 vasp.5.4.4.18Apr17-6-g9f103f2a35 (build May  1 2020 15:48:39) complex           
 executed on             LinuxGNU date 2020.06.25  05:28:02
 running on   16 total cores
 distrk:  each k-point on   16 cores,    1 groups
 distr:  one band on NCORES_PER_BAND=   1 cores,   16 groups


--------------------------------------------------------------------------------------------------------


 INCAR:
 POTCAR:   PAW_PBE Ni 06Sep2000                   
 POTCAR:   PAW_PBE Ge 05Jan2001                   
 POTCAR:   PAW_PBE Si 05Jan2001                   
 POTCAR:   PAW_PBE Se 06Sep2000                   

 ----------------------------------------------------------------------------- 
|                                                                             |
|           W    W    AA    RRRRR   N    N  II  N    N   GGGG   !!!           |
|           W    W   A  A   R    R  NN   N  II  NN   N  G    G  !!!           |
|           W    W  A    A  R    R  N N  N  II  N N  N  G       !!!           |
|           W WW W  AAAAAA  RRRRR   N  N N  II  N  N N  G  GGG   !            |
|           WW  WW  A    A  R   R   N   NN  II  N   NN  G    G                |
|           W    W  A    A  R    R  N    N  II  N    N   GGGG   !!!           |
|                                                                             |
|      For optimal performance we recommend to set                            |
|        NCORE= 4 - approx SQRT( number of cores)                             |
|      NCORE specifies how many cores store one orbital (NPAR=cpu/NCORE).     |
|      This setting can  greatly improve the performance of VASP for DFT.     |
|      The default,   NCORE=1            might be grossly inefficient         |
|      on modern multi-core architectures or massively parallel machines.     |
|      Do your own testing !!!!                                               |
|      Unfortunately you need to use the default for GW and RPA calculations. |
|      (for HF NCORE is supported but not extensively tested yet)             |
|                                                                             |
 ----------------------------------------------------------------------------- 


 ----------------------------------------------------------------------------- 
|                                                                             |
|  ADVICE TO THIS USER RUNNING 'VASP/VAMP'   (HEAR YOUR MASTER'S VOICE ...):  |
|                                                                             |
|      You have switched on vdW-DFT.                                          |
|      This routine was written and supplied by Jiri Klimes.                  |
|      We recommed that you carefully read and cite the following             |
|      publication                                                            |
|      J. Klimes, D.R. Bowler, A. Michelides                                  |
|        J. Phys.: Cond Matt. 22 022201 (2010)                                |
|      J. Klimes, D.R. Bowler, A. Michelides                                  |
|        Phys. Rev. B. 83, 195131 (2011)                                      |
|      and references therein.                                                |
|                                                                             |
 ----------------------------------------------------------------------------- 

 POTCAR:   PAW_PBE Ni 06Sep2000                   
   VRHFIN =Ni:                                                                  
   LEXCH  = PE                                                                  
   EATOM  =  1077.9025 eV,   79.2236 Ry                                         
                                                                                
   TITEL  = PAW_PBE Ni 06Sep2000                                                
   LULTRA =        F    use ultrasoft PP ?                                      
   IUNSCR =        1    unscreen: 0-lin 1-nonlin 2-no                           
   RPACOR =    2.000    partial core radius                                     
   POMASS =   58.690; ZVAL   =   10.000    mass and valenz                      
   RCORE  =    2.300    outmost cutoff radius                                   
   RWIGS  =    2.430; RWIGS  =    1.286    wigner-seitz radius (au A)           
   ENMAX  =  269.533; ENMIN  =  202.150 eV                                      
   RCLOC  =    1.681    cutoff for local pot                                    
   LCOR   =        T    correct aug charges                                     
   LPAW   =        T    paw PP                                                  
   EAUG   =  544.565                                                            
   DEXC   =    -.009                                                            
   RMAX   =    2.808    core radius for proj-oper                               
   RAUG   =    1.300    factor for augmentation sphere                          
   RDEP   =    2.390    radius for radial grids                                 
   QCUT   =   -4.451; QGAM   =    8.902    optimization parameters              
                                                                                
   Description                                                                  
     l     E      TYP  RCUT    TYP  RCUT                                        
     2   .000     23  2.300                                                     
     2   .000     23  2.300                                                     
     0   .000     23  2.300                                                     
     0   .000     23  2.300                                                     
     1  -.200     23  2.300                                                     
     1   .000     23  2.300                                                     
     3   .000      7   .000                                                     
  local pseudopotential read in
  partial core-charges read in
  atomic valenz-charges read in
  non local Contribution for L=           2  read in
    real space projection operators read in
  non local Contribution for L=           2  read in
    real space projection operators read in
  non local Contribution for L=           0  read in
    real space projection operators read in
  non local Contribution for L=           0  read in
    real space projection operators read in
  non local Contribution for L=           1  read in
    real space projection operators read in
  non local Contribution for L=           1  read in
    real space projection operators read in
    PAW grid and wavefunctions read in

   number of l-projection  operators is LMAX  =           6
   number of lm-projection operators is LMMAX =          18

 POTCAR:   PAW_PBE Ge 05Jan2001                   
   VRHFIN =Ge: s2p2                                                             
   LEXCH  = PE                                                                  
   EATOM  =   104.9960 eV,    7.7170 Ry                                         
                                                                                
   TITEL  = PAW_PBE Ge 05Jan2001                                                
   LULTRA =        F    use ultrasoft PP ?                                      
   IUNSCR =        1    unscreen: 0-lin 1-nonlin 2-no                           
   RPACOR =    2.170    partial core radius                                     
   POMASS =   72.610; ZVAL   =    4.000    mass and valenz                      
   RCORE  =    2.300    outmost cutoff radius                                   
   RWIGS  =    2.300; RWIGS  =    1.217    wigner-seitz radius (au A)           
   ENMAX  =  173.807; ENMIN  =  130.355 eV                                      
   ICORE  =        3    local potential                                         
   LCOR   =        T    correct aug charges                                     
   LPAW   =        T    paw PP                                                  
   EAUG   =  385.843                                                            
   DEXC   =    -.138                                                            
   RMAX   =    3.497    core radius for proj-oper                               
   RAUG   =    1.300    factor for augmentation sphere                          
   RDEP   =    2.318    radius for radial grids                                 
   QCUT   =   -3.574; QGAM   =    7.148    optimization parameters              
                                                                                
   Description                                                                  
     l     E      TYP  RCUT    TYP  RCUT                                        
     0   .000     23  2.300                                                     
     0   .000     23  2.300                                                     
     1   .000     23  2.300                                                     
     1   .000     23  2.300                                                     
     2   .000     23  2.300                                                     
     3  -.100      7  2.300                                                     
  local pseudopotential read in
  partial core-charges read in
  atomic valenz-charges read in
  non local Contribution for L=           0  read in
    real space projection operators read in
  non local Contribution for L=           0  read in
    real space projection operators read in
  non local Contribution for L=           1  read in
    real space projection operators read in
  non local Contribution for L=           1  read in
    real space projection operators read in
  non local Contribution for L=           2  read in
    real space projection operators read in
    PAW grid and wavefunctions read in

   number of l-projection  operators is LMAX  =           5
   number of lm-projection operators is LMMAX =          13

 POTCAR:   PAW_PBE Si 05Jan2001                   
   VRHFIN =Si: s2p2                                                             
   LEXCH  = PE                                                                  
   EATOM  =   103.0669 eV,    7.5752 Ry                                         
                                                                                
   TITEL  = PAW_PBE Si 05Jan2001                                                
   LULTRA =        F    use ultrasoft PP ?                                      
   IUNSCR =        1    unscreen: 0-lin 1-nonlin 2-no                           
   RPACOR =    1.500    partial core radius                                     
   POMASS =   28.085; ZVAL   =    4.000    mass and valenz                      
   RCORE  =    1.900    outmost cutoff radius                                   
   RWIGS  =    2.480; RWIGS  =    1.312    wigner-seitz radius (au A)           
   ENMAX  =  245.345; ENMIN  =  184.009 eV                                      
   ICORE  =        2    local potential                                         
   LCOR   =        T    correct aug charges                                     
   LPAW   =        T    paw PP                                                  
   EAUG   =  322.069                                                            
   DEXC   =    -.007                                                            
   RMAX   =    2.944    core radius for proj-oper                               
   RAUG   =    1.300    factor for augmentation sphere                          
   RDEP   =    1.993    radius for radial grids                                 
   QCUT   =   -4.246; QGAM   =    8.493    optimization parameters              
                                                                                
   Description                                                                  
     l     E      TYP  RCUT    TYP  RCUT                                        
     0   .000     23  1.900                                                     
     0   .000     23  1.900                                                     
     1   .000     23  1.900                                                     
     1   .000     23  1.900                                                     
     2   .000      7  1.900                                                     
  local pseudopotential read in
  partial core-charges read in
  atomic valenz-charges read in
  non local Contribution for L=           0  read in
    real space projection operators read in
  non local Contribution for L=           0  read in
    real space projection operators read in
  non local Contribution for L=           1  read in
    real space projection operators read in
  non local Contribution for L=           1  read in
    real space projection operators read in
    PAW grid and wavefunctions read in

   number of l-projection  operators is LMAX  =           4
   number of lm-projection operators is LMMAX =           8

 POTCAR:   PAW_PBE Se 06Sep2000                   
   VRHFIN =Se: s2p4                                                             
   LEXCH  = PE                                                                  
   EATOM  =   256.9644 eV,   18.8864 Ry                                         
                                                                                
   TITEL  = PAW_PBE Se 06Sep2000                                                
   LULTRA =        F    use ultrasoft PP ?                                      
   IUNSCR =        1    unscreen: 0-lin 1-nonlin 2-no                           
   RPACOR =    1.900    partial core radius                                     
   POMASS =   78.960; ZVAL   =    6.000    mass and valenz                      
   RCORE  =    2.100    outmost cutoff radius                                   
   RWIGS  =    2.200; RWIGS  =    1.164    wigner-seitz radius (au A)           
   ENMAX  =  211.534; ENMIN  =  158.651 eV                                      
   ICORE  =        3    local potential                                         
   LCOR   =        T    correct aug charges                                     
   LPAW   =        T    paw PP                                                  
   EAUG   =  446.842                                                            
   DEXC   =    -.031                                                            
   RMAX   =    3.170    core radius for proj-oper                               
   RAUG   =    1.300    factor for augmentation sphere                          
   RDEP   =    2.177    radius for radial grids                                 
   QCUT   =   -3.943; QGAM   =    7.886    optimization parameters              
                                                                                
   Description                                                                  
     l     E      TYP  RCUT    TYP  RCUT                                        
     0   .000     23  2.100                                                     
     0   .000     23  2.100                                                     
     1   .000     23  2.100                                                     
     1   .000     23  2.100                                                     
     2   .000     23  2.100                                                     
     3  -.100      7  2.100                                                     
  local pseudopotential read in
  partial core-charges read in
  atomic valenz-charges read in
  non local Contribution for L=           0  read in
    real space projection operators read in
  non local Contribution for L=           0  read in
    real space projection operators read in
  non local Contribution for L=           1  read in
    real space projection operators read in
  non local Contribution for L=           1  read in
    real space projection operators read in
  non local Contribution for L=           2  read in
    real space projection operators read in
    PAW grid and wavefunctions read in

   number of l-projection  operators is LMAX  =           5
   number of lm-projection operators is LMMAX =          13

 Optimization of the real space projectors (new method)

 maximal supplied QI-value         = 16.25
 optimisation between [QCUT,QGAM] = [ 11.54, 23.24] = [ 37.28,151.24] Ry 
 Optimized for a Real-space Cutoff    1.49 Angstroem

   l    n(q)    QCUT    max X(q) W(low)/X(q) W(high)/X(q)  e(spline) 
   2      9    11.539     4.811    0.20E-04    0.14E-04    0.45E-07
   2      9    11.539    15.146    0.24E-03    0.12E-03    0.20E-06
   0     10    11.539    14.357    0.18E-04    0.12E-05    0.14E-07
   0     10    11.539    43.282    0.39E-04    0.17E-04    0.23E-06
   1     10    11.539     5.514    0.99E-05    0.13E-04    0.19E-07
   1     10    11.539     7.697    0.38E-04    0.79E-04    0.91E-07
 Optimization of the real space projectors (new method)

 maximal supplied QI-value         = 16.25
 optimisation between [QCUT,QGAM] = [ 11.54, 23.24] = [ 37.28,151.24] Ry 
 Optimized for a Real-space Cutoff    1.28 Angstroem

   l    n(q)    QCUT    max X(q) W(low)/X(q) W(high)/X(q)  e(spline) 
   0      9    11.539     8.651    0.22E-04    0.16E-04    0.10E-07
   0      9    11.539    33.192    0.11E-03    0.16E-03    0.65E-07
   1      8    11.539     5.899    0.37E-04    0.28E-04    0.43E-07
   1      8    11.539    27.289    0.22E-03    0.28E-04    0.14E-06
   2      8    11.539     4.673    0.11E-03    0.18E-03    0.58E-07
 Optimization of the real space projectors (new method)

 maximal supplied QI-value         = 19.84
 optimisation between [QCUT,QGAM] = [ 11.51, 23.22] = [ 37.09,150.92] Ry 
 Optimized for a Real-space Cutoff    1.21 Angstroem

   l    n(q)    QCUT    max X(q) W(low)/X(q) W(high)/X(q)  e(spline) 
   0      8    11.508     8.708    0.18E-04    0.44E-05    0.47E-08
   0      8    11.508   106.241    0.70E-04    0.15E-03    0.51E-07
   1      8    11.508     5.901    0.63E-05    0.23E-04    0.21E-07
   1      8    11.508    73.241    0.15E-03    0.36E-04    0.79E-07
 Optimization of the real space projectors (new method)

 maximal supplied QI-value         = 17.95
 optimisation between [QCUT,QGAM] = [ 11.67, 23.34] = [ 38.13,152.52] Ry 
 Optimized for a Real-space Cutoff    1.25 Angstroem

   l    n(q)    QCUT    max X(q) W(low)/X(q) W(high)/X(q)  e(spline) 
   0      9    11.669     6.499    0.13E-04    0.81E-05    0.11E-07
   0      9    11.669    52.623    0.18E-03    0.46E-04    0.72E-07
   1      8    11.669     4.229    0.40E-04    0.45E-04    0.31E-07
   1      8    11.669    29.991    0.22E-03    0.36E-03    0.10E-06
   2      8    11.669     3.719    0.19E-03    0.46E-04    0.50E-07

 ----------------------------------------------------------------------------- 
|                                                                             |
|  ADVICE TO THIS USER RUNNING 'VASP/VAMP'   (HEAR YOUR MASTER'S VOICE ...):  |
|                                                                             |
|      You enforced a specific xc-type in the INCAR file,                     |
|      a different type was found on the POTCAR file                          |
|          I HOPE YOU KNOW, WHAT YOU ARE  DOING                               |
|                                                                             |
 ----------------------------------------------------------------------------- 

 PAW_PBE Ni 06Sep2000                   :
 energy of atom  1       EATOM=-1077.9025
 kinetic energy error for atom=    0.0030 (will be added to EATOM!!)
 PAW_PBE Ge 05Jan2001                   :
 energy of atom  2       EATOM= -104.9960
 kinetic energy error for atom=    0.0002 (will be added to EATOM!!)
 PAW_PBE Si 05Jan2001                   :
 energy of atom  3       EATOM= -103.0669
 kinetic energy error for atom=    0.0005 (will be added to EATOM!!)
 PAW_PBE Se 06Sep2000                   :
 energy of atom  4       EATOM= -256.9644
 kinetic energy error for atom=    0.0007 (will be added to EATOM!!)


 POSCAR: Ni2 Ge Si Se6                           
  positions in direct lattice
  velocities in cartesian coordinates
  No initial velocities read in
 exchange correlation table for  LEXCH =       42
   RHO(1)=    0.500       N(1)  =     2000
   RHO(2)=  100.500       N(2)  =     4000



--------------------------------------------------------------------------------------------------------


 ion  position               nearest neighbor table
   1  0.333  0.333  0.500-   6 2.78   5 2.78   7 2.78   8 2.78  10 2.78   9 2.78
   2  0.667  0.667  0.500-   9 2.78   8 2.78  10 2.78   5 2.78   7 2.78   6 2.78
   3  0.000  0.000  0.448-   4 2.43   8 2.63  10 2.63   9 2.63
   4  0.000  0.000  0.552-   3 2.43   5 2.63   7 2.63   6 2.63
   5  0.626  0.000  0.574-   4 2.63   1 2.78   2 2.78
   6  0.000  0.373  0.574-   4 2.63   1 2.78   2 2.78
   7  0.373  0.626  0.574-   4 2.63   1 2.78   2 2.78
   8  0.374  1.000  0.426-   3 2.63   2 2.78   1 2.78
   9  1.000  0.627  0.426-   3 2.63   2 2.78   1 2.78
  10  0.627  0.374  0.426-   3 2.63   2 2.78   1 2.78

  LATTYP: Found a hexagonal cell.
 ALAT       =     6.9077769333
 C/A-ratio  =     3.3939410937
  
  Lattice vectors:
  
 A1 = (   3.4538890000,  -5.9823100000,   0.0000000000)
 A2 = (  -6.9077770000,   0.0000000000,   0.0000000000)
 A3 = (   0.0000000000,   0.0000000000, -23.4445880000)


Analysis of symmetry for initial positions (statically):
=====================================================================
 Subroutine PRICEL returns:
 Original cell was already a primitive cell.
 

 Routine SETGRP: Setting up the symmetry group for a 
 hexagonal supercell.


 Subroutine GETGRP returns: Found  3 space group operations
 (whereof  3 operations were pure point group operations)
 out of a pool of 24 trial point group operations.


The static configuration has the point symmetry C_3 .


Analysis of symmetry for dynamics (positions and initial velocities):
=====================================================================
 Subroutine PRICEL returns:
 Original cell was already a primitive cell.
 

 Routine SETGRP: Setting up the symmetry group for a 
 hexagonal supercell.


 Subroutine GETGRP returns: Found  3 space group operations
 (whereof  3 operations were pure point group operations)
 out of a pool of 24 trial point group operations.


The dynamic configuration has the point symmetry C_3 .


Analysis of constrained symmetry for selective dynamics:
=====================================================================
 Subroutine PRICEL returns:
 Original cell was already a primitive cell.
 

 Routine SETGRP: Setting up the symmetry group for a 
 hexagonal supercell.


 Subroutine GETGRP returns: Found  3 space group operations
 (whereof  3 operations were pure point group operations)
 out of a pool of 24 trial point group operations.


The constrained configuration has the point symmetry C_3 .


Analysis of structural, dynamic, and magnetic symmetry:
=====================================================================
 Subroutine PRICEL returns:
 Original cell was already a primitive cell.
 

 Routine SETGRP: Setting up the symmetry group for a 
 hexagonal supercell.


 Subroutine GETGRP returns: Found  3 space group operations
 (whereof  3 operations were pure point group operations)
 out of a pool of 24 trial point group operations.


The magnetic configuration has the point symmetry C_3 .


 Subroutine INISYM returns: Found  3 space group operations
 (whereof  3 operations are pure point group operations),
 and found     1 'primitive' translations



 KPOINTS: Kpoints from vasprun.xml                

Automatic generation of k-mesh.
Space group operators:
 irot       det(A)        alpha          n_x          n_y          n_z        tau_x        tau_y        tau_z
    1     1.000000     0.000000     1.000000     0.000000     0.000000     0.000000     0.000000     0.000000
    2     1.000000   120.000000     0.000000     0.000000     1.000000     0.000000     0.000000     0.000000
    3     1.000000   120.000000     0.000000     0.000000    -1.000000     0.000000     0.000000     0.000000
 
 Subroutine IBZKPT returns following result:
 ===========================================
 
 Found      5 irreducible k-points:
 
 Following reciprocal coordinates:
            Coordinates               Weight
  0.000000  0.000000  0.000000      1.000000
  0.200000  0.000000  0.000000      6.000000
  0.400000  0.000000  0.000000      6.000000
  0.400000  0.200000  0.000000      6.000000
 -0.400000  0.200000  0.000000      6.000000
 
 Following cartesian coordinates:
            Coordinates               Weight
  0.000000  0.000000  0.000000      1.000000
  0.028953 -0.016716  0.000000      6.000000
  0.057906 -0.033432  0.000000      6.000000
  0.057906  0.000000  0.000000      6.000000
 -0.057906  0.066864  0.000000      6.000000
 
 TETIRR: Found     15 inequivalent tetrahedra from      150


--------------------------------------------------------------------------------------------------------




 Dimension of arrays:
   k-points           NKPTS =      5   k-points in BZ     NKDIM =      5   number of bands    NBANDS=     48
   number of dos      NEDOS =    301   number of ions     NIONS =     10
   non local maximal  LDIM  =      6   non local SUM 2l+1 LMDIM =     18
   total plane-waves  NPLWV = 524880
   max r-space proj   IRMAX =   7543   max aug-charges    IRDMAX=  29641
   dimension x,y,z NGX =    54 NGY =   54 NGZ =  180
   dimension x,y,z NGXF=   108 NGYF=  108 NGZF=  360
   support grid    NGXF=   108 NGYF=  108 NGZF=  360
   ions per type =               2   1   1   6
   NGX,Y,Z   is equivalent  to a cutoff of  13.00, 13.00, 12.76 a.u.
   NGXF,Y,Z  is equivalent  to a cutoff of  25.99, 25.99, 25.53 a.u.

 SYSTEM =  unknown system                          
 POSCAR =  Ni2 Ge Si Se6                           

 Startparameter for this run:
   NWRITE =      2    write-flag & timer
   PREC   = accura    normal or accurate (medium, high low for compatibility)
   ISTART =      0    job   : 0-new  1-cont  2-samecut
   ICHARG =      2    charge: 1-file 2-atom 10-const
   ISPIN  =      2    spin polarized calculation?
   LNONCOLLINEAR =      F non collinear calculations
   LSORBIT =      F    spin-orbit coupling
   INIWAV =      1    electr: 0-lowe 1-rand  2-diag
   LASPH  =      F    aspherical Exc in radial PAW
   METAGGA=      F    non-selfconsistent MetaGGA calc.

 Electronic Relaxation 1
   ENCUT  =  520.0 eV  38.22 Ry    6.18 a.u.  12.84 12.84 43.59*2*pi/ulx,y,z
   ENINI  =  520.0     initial cutoff
   ENAUG  =  544.6 eV  augmentation charge cutoff
   NELM   =    400;   NELMIN=  2; NELMDL=  0     # of ELM steps 
   EDIFF  = 0.1E-03   stopping-criterion for ELM
   LREAL  =      T    real-space projection
   NLSPLINE    = F    spline interpolate recip. space projectors
   LCOMPAT=      F    compatible to vasp.4.4
   GGA_COMPAT  = T    GGA compatible to vasp.4.4-vasp.4.6
   LMAXPAW     = -100 max onsite density
   LMAXMIX     =    2 max onsite mixed and CHGCAR
   VOSKOWN=      0    Vosko Wilk Nusair interpolation
   ROPT   =   -0.00025  -0.00025  -0.00025  -0.00025
 Ionic relaxation
   EDIFFG = 0.1E-02   stopping-criterion for IOM
   NSW    =     99    number of steps for IOM
   NBLOCK =      1;   KBLOCK =     99    inner block; outer block 
   IBRION =      2    ionic relax: 0-MD 1-quasi-New 2-CG
   NFREE  =      1    steps in history (QN), initial steepest desc. (CG)
   ISIF   =      3    stress and relaxation
   IWAVPR =     11    prediction:  0-non 1-charg 2-wave 3-comb
   ISYM   =      2    0-nonsym 1-usesym 2-fastsym
   LCORR  =      T    Harris-Foulkes like correction to forces

   POTIM  = 0.5000    time-step for ionic-motion
   TEIN   =    0.0    initial temperature
   TEBEG  =    0.0;   TEEND  =   0.0 temperature during run
   SMASS  =  -3.00    Nose mass-parameter (am)
   estimated Nose-frequenzy (Omega)   =  0.10E-29 period in steps =****** mass=  -0.109E-26a.u.
   SCALEE = 1.0000    scale energy and forces
   NPACO  =    256;   APACO  = 16.0  distance and # of slots for P.C.
   PSTRESS=    0.0 pullay stress

  Mass of Ions in am
   POMASS =  58.69 72.61 28.09 78.96
  Ionic Valenz
   ZVAL   =  10.00  4.00  4.00  6.00
  Atomic Wigner-Seitz radii
   RWIGS  =  -1.00 -1.00 -1.00 -1.00
  virtual crystal weights 
   VCA    =   1.00  1.00  1.00  1.00
   NELECT =      64.0000    total number of electrons
   NUPDOWN=      -1.0000    fix difference up-down

 DOS related values:
   EMIN   =  10.00;   EMAX   =-10.00  energy-range for DOS
   EFERMI =   0.00
   ISMEAR =    -5;   SIGMA  =   0.05  broadening in eV -4-tet -1-fermi 0-gaus

 Electronic relaxation 2 (details)
   IALGO  =     38    algorithm
   LDIAG  =      T    sub-space diagonalisation (order eigenvalues)
   LSUBROT=      F    optimize rotation matrix (better conditioning)
   TURBO    =      0    0=normal 1=particle mesh
   IRESTART =      0    0=no restart 2=restart with 2 vectors
   NREBOOT  =      0    no. of reboots
   NMIN     =      0    reboot dimension
   EREF     =   0.00    reference energy to select bands
   IMIX   =      4    mixing-type and parameters
     AMIX     =   0.40;   BMIX     =  1.00
     AMIX_MAG =   1.60;   BMIX_MAG =  1.00
     AMIN     =   0.01
     WC   =   100.;   INIMIX=   1;  MIXPRE=   1;  MAXMIX= -45

 Intra band minimization:
   WEIMIN = 0.0010     energy-eigenvalue tresh-hold
   EBREAK =  0.52E-06  absolut break condition
   DEPER  =   0.30     relativ break condition  

   TIME   =   0.40     timestep for ELM

  volume/ion in A,a.u.               =      96.88       653.80
  Fermi-wavevector in a.u.,A,eV,Ry     =   0.661787  1.250596  5.958835  0.437962
  Thomas-Fermi vector in A             =   1.734655

 Write flags
   LWAVE        =      F    write WAVECAR
   LDOWNSAMPLE  =      F    k-point downsampling of WAVECAR
   LCHARG       =      T    write CHGCAR
   LVTOT        =      F    write LOCPOT, total local potential
   LVHAR        =      F    write LOCPOT, Hartree potential only
   LELF         =      F    write electronic localiz. function (ELF)
   LORBIT       =     11    0 simple, 1 ext, 2 COOP (PROOUT), +10 PAW based schemes


 Dipole corrections
   LMONO  =      F    monopole corrections only (constant potential shift)
   LDIPOL =      F    correct potential (dipole corrections)
   IDIPOL =      0    1-x, 2-y, 3-z, 4-all directions 
   EPSILON=  1.0000000 bulk dielectric constant

 Exchange correlation treatment:
   GGA     =    BO    GGA type
   LEXCH   =    42    internal setting for exchange type
   VOSKOWN=      0    Vosko Wilk Nusair interpolation
   LHFCALC =     F    Hartree Fock is set to
   LHFONE  =     F    Hartree Fock one center treatment
   AEXX    =    0.0000 exact exchange contribution

 vdW DFT:
   LUSE_VDW   =     T    switch on vdW DFT
   Zab_VDW    =-.8491    correlation parameter
   PARAM1     =0.1833
   PARAM2     =0.2200
   PARAM3     =0.0000
   -- rVV10 --
   BPARAM     = 6.3000
   CPARAM     = 0.0093

 Linear response parameters
   LEPSILON=     F    determine dielectric tensor
   LRPA    =     F    only Hartree local field effects (RPA)
   LNABLA  =     F    use nabla operator in PAW spheres
   LVEL    =     F    velocity operator in full k-point grid
   LINTERFAST=   F  fast interpolation
   KINTER  =     0    interpolate to denser k-point grid
   CSHIFT  =0.1000    complex shift for real part using Kramers Kronig
   OMEGAMAX=  -1.0    maximum frequency
   DEG_THRESHOLD= 0.2000000E-02 threshold for treating states as degnerate
   RTIME   =   -0.100 relaxation time in fs
  (WPLASMAI=    0.000 imaginary part of plasma frequency in eV, 0.658/RTIME)
   DFIELD  = 0.0000000 0.0000000 0.0000000 field for delta impulse in time

 Orbital magnetization related:
   ORBITALMAG=     F  switch on orbital magnetization
   LCHIMAG   =     F  perturbation theory with respect to B field
   DQ        =  0.001000  dq finite difference perturbation B field
   LLRAUG    =     F  two centre corrections for induced B field



--------------------------------------------------------------------------------------------------------


 conjugate gradient relaxation of ions
   using selective dynamics as specified on POSCAR
 charge density and potential will be updated during run
 spin polarized calculation
 Variant of blocked Davidson
 Davidson routine will perform the subspace rotation
 perform sub-space diagonalisation
    after iterative eigenvector-optimisation
 modified Broyden-mixing scheme, WC =      100.0
 initial mixing is a Kerker type mixing with AMIX =  0.4000 and BMIX =      1.0000
 Hartree-type preconditioning will be used
 using additional bands           16
 real space projection scheme for non local part
 use partial core corrections
 calculate Harris-corrections to forces   (improved forces if not selfconsistent)
 use gradient corrections 
 use of overlap-Matrix (Vanderbilt PP)
 Fermi weights with tetrahedron method with Bloechl corrections


--------------------------------------------------------------------------------------------------------


  energy-cutoff  :      520.00
  volume of cell :      968.84
      direct lattice vectors                 reciprocal lattice vectors
     6.907777000 -0.000000000  0.000000000     0.144764372 -0.083579742  0.000000000
     3.453888000  5.982310000  0.000000000     0.000000000  0.167159509 -0.000000000
     0.000000000  0.000000000 23.444588000    -0.000000000  0.000000000  0.042653767

  length of vectors
     6.907777000  6.907776433 23.444588000     0.167159495  0.167159509  0.042653767



 k-points in units of 2pi/SCALE and weight: Kpoints from vasprun.xml                
   0.00000000  0.00000000  0.00000000       0.040
   0.02895287 -0.01671595  0.00000000       0.240
   0.05790575 -0.03343190  0.00000000       0.240
   0.05790575  0.00000000  0.00000000       0.240
  -0.05790575  0.06686380  0.00000000       0.240

 k-points in reciprocal lattice and weights: Kpoints from vasprun.xml                
   0.00000000  0.00000000  0.00000000       0.040
   0.20000000  0.00000000  0.00000000       0.240
   0.40000000  0.00000000  0.00000000       0.240
   0.40000000  0.20000000  0.00000000       0.240
  -0.40000000  0.20000000  0.00000000       0.240

 position of ions in fractional coordinates (direct lattice) 
   0.33333300  0.33333300  0.49992500
   0.66666700  0.66666700  0.50007500
   0.00000000  0.00000000  0.44821600
   0.00000000  0.00000000  0.55178400
   0.62635700  0.00042000  0.57375200
   0.00042000  0.37322400  0.57375200
   0.37322400  0.62635700  0.57375200
   0.37364300  0.99958000  0.42624800
   0.99958000  0.62677600  0.42624800
   0.62677600  0.37364300  0.42624800

 position of ions in cartesian coordinates  (Angst):
   3.45388488  1.99410134 11.72053566
   6.90778012  3.98820866 11.72405234
   0.00000000  0.00000000 10.50823946
   0.00000000  0.00000000 12.93634854
   4.32818511  0.00251257 13.45137925
   1.29197516  2.23274167 13.45137925
   4.74151509  3.74706174 13.45137925
   6.03347989  5.97979743  9.99320875
   9.06968984  3.74956833  9.99320875
   5.62014991  2.23524826  9.99320875



--------------------------------------------------------------------------------------------------------


 k-point  1 :   0.0000 0.0000 0.0000  plane waves:   26073
 k-point  2 :   0.2000 0.0000 0.0000  plane waves:   26070
 k-point  3 :   0.4000 0.0000 0.0000  plane waves:   26086
 k-point  4 :   0.4000 0.2000 0.0000  plane waves:   26085
 k-point  5 :  -0.4000 0.2000 0.0000  plane waves:   26115

 maximum and minimum number of plane-waves per node :     26115    26070

 maximum number of plane-waves:     26115
 maximum index in each direction: 
   IXMAX=   13   IYMAX=   12   IZMAX=   43
   IXMIN=  -13   IYMIN=  -13   IZMIN=  -43


 serial   3D FFT for wavefunctions
 parallel 3D FFT for charge:
    minimum data exchange during FFTs selected (reduces bandwidth)


 total amount of memory used by VASP MPI-rank0   129818. kBytes
=======================================================================

   base      :      30000. kBytes
   nonlr-proj:       7318. kBytes
   fftplans  :      11247. kBytes
   grid      :      68332. kBytes
   one-center:        311. kBytes
   wavefun   :      12610. kBytes

     INWAV:  cpu time    0.0040: real time    0.0004
 Broyden mixing: mesh for mixing (old mesh)
   NGX = 25   NGY = 25   NGZ = 87
  (NGX  =108   NGY  =108   NGZ  =360)
  gives a total of  54375 points

 initial charge density was supplied:
 charge density of overlapping atoms calculated
 number of electron      64.0000000 magnetization       7.3200000
 keeping initial charge density in first step


--------------------------------------------------------------------------------------------------------


 Maximum index for non-local projection operator         7247
 Maximum index for augmentation-charges         2133 (set IRDMAX)


--------------------------------------------------------------------------------------------------------


 First call to EWALD:  gamma=   0.179
 Maximum number of real-space cells 4x 4x 1
 Maximum number of reciprocal cells 2x 2x 6

    FEWALD:  cpu time    0.0000: real time    0.0015


--------------------------------------- Iteration      1(   1)  ---------------------------------------


vdW kernel read from vdw_kernel.bindat
  0.0000  0.2424  0.5071  0.7962  1.1119  1.4567  1.8333  2.2446  2.6937  3.1842
  3.7199  4.3049  4.9438  5.6415  6.4036  7.2358  8.1446  9.1372 10.2212 11.4050
 12.6979 14.1099 15.6519 17.3360 19.1751 21.1837 23.3773 25.7729 28.3892 31.2465
 34.3669 37.7748 41.4965 45.5611 50.0000

    POTLOK:  cpu time   52.0600: real time   53.2782
    SETDIJ:  cpu time    0.0480: real time    0.0498
     EDDAV:  cpu time   22.8080: real time   22.8931
 BZINTS: Fermi energy:  4.376622; 64.000000 electrons
         Band energy: -47.005083;  BLOECHL correction: -0.039101
       DOS:  cpu time    0.0040: real time    0.0068
    --------------------------------------------
      LOOP:  cpu time   74.9200: real time   76.2279

 eigenvalue-minimisations  :   960
 total energy-change (2. order) : 0.4077362E+03  (-0.1953434E+04)
 number of electron      64.0000000 magnetization       7.3200000
 augmentation part       64.0000000 magnetization       7.3200000

 Free energy of the ion-electron system (eV)
  ---------------------------------------------------
  alpha Z        PSCENC =        40.05543433
  Ewald energy   TEWEN  =      8065.03639907
  -Hartree energ DENC   =    -11594.03494219
  -exchange      EXHF   =         0.00000000
  -V(xc)+E(xc)   XCENC  =        32.22000101
  PAW double counting   =      2450.75115479    -2462.74554606
  entropy T*S    EENTRO =         0.00000000
  eigenvalues    EBANDS =       -47.00508292
  atomic energy  EATOM  =      3923.45879020
  Solvation  Ediel_sol  =         0.00000000
  ---------------------------------------------------
  free energy    TOTEN  =       407.73620824 eV

  energy without entropy =      407.73620824  energy(sigma->0) =      407.73620824


--------------------------------------------------------------------------------------------------------




--------------------------------------- Iteration      1(   2)  ---------------------------------------


     EDDAV:  cpu time   32.6400: real time   32.9854
 BZINTS: Fermi energy: -2.169296; 64.000000 electrons
         Band energy:-429.575385;  BLOECHL correction: -0.023437
       DOS:  cpu time    0.0040: real time    0.0045
    --------------------------------------------
      LOOP:  cpu time   32.6440: real time   32.9899

 eigenvalue-minimisations  :  1440
 total energy-change (2. order) :-0.3825703E+03  (-0.3618827E+03)
 number of electron      64.0000000 magnetization       7.3200000
 augmentation part       64.0000000 magnetization       7.3200000

 Free energy of the ion-electron system (eV)
  ---------------------------------------------------
  alpha Z        PSCENC =        40.05543433
  Ewald energy   TEWEN  =      8065.03639907
  -Hartree energ DENC   =    -11594.03494219
  -exchange      EXHF   =         0.00000000
  -V(xc)+E(xc)   XCENC  =        32.22000101
  PAW double counting   =      2450.75115479    -2462.74554606
  entropy T*S    EENTRO =         0.00000000
  eigenvalues    EBANDS =      -429.57538511
  atomic energy  EATOM  =      3923.45879020
  Solvation  Ediel_sol  =         0.00000000
  ---------------------------------------------------
  free energy    TOTEN  =        25.16590605 eV

  energy without entropy =       25.16590605  energy(sigma->0) =       25.16590605


--------------------------------------------------------------------------------------------------------




--------------------------------------- Iteration      1(   3)  ---------------------------------------


     EDDAV:  cpu time   27.8840: real time   27.9383
 BZINTS: Fermi energy: -2.826300; 64.000000 electrons
         Band energy:-490.380513;  BLOECHL correction: -0.007713
       DOS:  cpu time    0.0080: real time    0.0052
    --------------------------------------------
      LOOP:  cpu time   27.8920: real time   27.9435

 eigenvalue-minimisations  :  1200
 total energy-change (2. order) :-0.6080513E+02  (-0.5887983E+02)
 number of electron      64.0000000 magnetization       7.3200000
 augmentation part       64.0000000 magnetization       7.3200000

 Free energy of the ion-electron system (eV)
  ---------------------------------------------------
  alpha Z        PSCENC =        40.05543433
  Ewald energy   TEWEN  =      8065.03639907
  -Hartree energ DENC   =    -11594.03494219
  -exchange      EXHF   =         0.00000000
  -V(xc)+E(xc)   XCENC  =        32.22000101
  PAW double counting   =      2450.75115479    -2462.74554606
  entropy T*S    EENTRO =         0.00000000
  eigenvalues    EBANDS =      -490.38051273
  atomic energy  EATOM  =      3923.45879020
  Solvation  Ediel_sol  =         0.00000000
  ---------------------------------------------------
  free energy    TOTEN  =       -35.63922156 eV

  energy without entropy =      -35.63922156  energy(sigma->0) =      -35.63922156


--------------------------------------------------------------------------------------------------------




--------------------------------------- Iteration      1(   4)  ---------------------------------------


     EDDAV:  cpu time   28.5880: real time   28.8541
 BZINTS: Fermi energy: -2.856842; 64.000000 electrons
         Band energy:-492.639084;  BLOECHL correction: -0.006595
       DOS:  cpu time    0.0080: real time    0.0055
    --------------------------------------------
      LOOP:  cpu time   28.5960: real time   28.8596

 eigenvalue-minimisations  :  1248
 total energy-change (2. order) :-0.2258571E+01  (-0.2227990E+01)
 number of electron      64.0000000 magnetization       7.3200000
 augmentation part       64.0000000 magnetization       7.3200000

 Free energy of the ion-electron system (eV)
  ---------------------------------------------------
  alpha Z        PSCENC =        40.05543433
  Ewald energy   TEWEN  =      8065.03639907
  -Hartree energ DENC   =    -11594.03494219
  -exchange      EXHF   =         0.00000000
  -V(xc)+E(xc)   XCENC  =        32.22000101
  PAW double counting   =      2450.75115479    -2462.74554606
  entropy T*S    EENTRO =         0.00000000
  eigenvalues    EBANDS =      -492.63908420
  atomic energy  EATOM  =      3923.45879020
  Solvation  Ediel_sol  =         0.00000000
  ---------------------------------------------------
  free energy    TOTEN  =       -37.89779304 eV

  energy without entropy =      -37.89779304  energy(sigma->0) =      -37.89779304


--------------------------------------------------------------------------------------------------------




--------------------------------------- Iteration      1(   5)  ---------------------------------------


     EDDAV:  cpu time   26.4040: real time   26.6835
 BZINTS: Fermi energy: -2.857905; 64.000000 electrons
         Band energy:-492.689918;  BLOECHL correction: -0.006696
       DOS:  cpu time    0.0080: real time    0.0058
    CHARGE:  cpu time    2.1360: real time    2.1554
    MIXING:  cpu time    0.0400: real time    0.0400
    --------------------------------------------
      LOOP:  cpu time   28.5880: real time   28.8848

 eigenvalue-minimisations  :  1152
 total energy-change (2. order) :-0.5083412E-01  (-0.5079982E-01)
 number of electron      63.9999994 magnetization       7.2601045
 augmentation part        0.8514737 magnetization       4.8555583

 Broyden mixing:
  rms(total) = 0.34052E+01    rms(broyden)= 0.34051E+01
  rms(prec ) = 0.36257E+01
  weight for this iteration     100.00

 Free energy of the ion-electron system (eV)
  ---------------------------------------------------
  alpha Z        PSCENC =        40.05543433
  Ewald energy   TEWEN  =      8065.03639907
  -Hartree energ DENC   =    -11594.03494219
  -exchange      EXHF   =         0.00000000
  -V(xc)+E(xc)   XCENC  =        32.22000101
  PAW double counting   =      2450.75115479    -2462.74554606
  entropy T*S    EENTRO =         0.00000000
  eigenvalues    EBANDS =      -492.68991832
  atomic energy  EATOM  =      3923.45879020
  Solvation  Ediel_sol  =         0.00000000
  ---------------------------------------------------
  free energy    TOTEN  =       -37.94862716 eV

  energy without entropy =      -37.94862716  energy(sigma->0) =      -37.94862716


--------------------------------------------------------------------------------------------------------




--------------------------------------- Iteration      1(   6)  ---------------------------------------


    POTLOK:  cpu time   51.5800: real time   51.7374
    SETDIJ:  cpu time    0.0600: real time    0.0605
     EDDAV:  cpu time   28.4400: real time   28.5103
 BZINTS: Fermi energy: -4.271031; 64.000000 electrons
         Band energy:-738.268889;  BLOECHL correction: -0.025715
       DOS:  cpu time    0.0040: real time    0.0066
    CHARGE:  cpu time    2.1360: real time    2.1370
    MIXING:  cpu time    0.0480: real time    0.0449
    --------------------------------------------
      LOOP:  cpu time   82.2680: real time   82.4966

 eigenvalue-minimisations  :  1232
 total energy-change (2. order) :-0.4251217E+02  (-0.5029321E+02)
 number of electron      63.9999993 magnetization       6.9741983
 augmentation part        8.9453914 magnetization       6.5970868

 Broyden mixing:
  rms(total) = 0.52968E+01    rms(broyden)= 0.52968E+01
  rms(prec ) = 0.55247E+01
  weight for this iteration     100.00

 eigenvalues of (default mixing * dielectric matrix)
  average eigenvalue GAMMA=   0.3618
  0.3618

 Free energy of the ion-electron system (eV)
  ---------------------------------------------------
  alpha Z        PSCENC =        40.05543433
  Ewald energy   TEWEN  =      8065.03639907
  -Hartree energ DENC   =    -11419.13067447
  -exchange      EXHF   =         0.00000000
  -V(xc)+E(xc)   XCENC  =        30.83003280
  PAW double counting   =      2173.89654105    -2156.33843277
  entropy T*S    EENTRO =         0.00000000
  eigenvalues    EBANDS =      -738.26888912
  atomic energy  EATOM  =      3923.45879020
  Solvation  Ediel_sol  =         0.00000000
  ---------------------------------------------------
  free energy    TOTEN  =       -80.46079890 eV

  energy without entropy =      -80.46079890  energy(sigma->0) =      -80.46079890


--------------------------------------------------------------------------------------------------------




--------------------------------------- Iteration      1(   7)  ---------------------------------------


    POTLOK:  cpu time   51.5000: real time   51.6801
    SETDIJ:  cpu time    0.0440: real time    0.0452
     EDDAV:  cpu time   32.9560: real time   33.9936
 BZINTS: Fermi energy: -4.486432; 64.000000 electrons
         Band energy:-731.663179;  BLOECHL correction: -0.019821
       DOS:  cpu time    0.0080: real time    0.0072
    CHARGE:  cpu time    2.0680: real time    2.1139
    MIXING:  cpu time    0.0440: real time    0.0425
    --------------------------------------------
      LOOP:  cpu time   86.6200: real time   87.8825

 eigenvalue-minimisations  :  1488
 total energy-change (2. order) :-0.1062161E+03  (-0.1467616E+03)
 number of electron      63.9999993 magnetization       6.9385180
 augmentation part        7.9649569 magnetization       6.9144201

 Broyden mixing:
  rms(total) = 0.35876E+01    rms(broyden)= 0.35719E+01
  rms(prec ) = 0.37517E+01
  weight for this iteration     100.00

 eigenvalues of (default mixing * dielectric matrix)
  average eigenvalue GAMMA=   0.1988
  0.3410  0.0567

 Free energy of the ion-electron system (eV)
  ---------------------------------------------------
  alpha Z        PSCENC =        40.05543433
  Ewald energy   TEWEN  =      8065.03639907
  -Hartree energ DENC   =    -11506.90720646
  -exchange      EXHF   =         0.00000000
  -V(xc)+E(xc)   XCENC  =        30.41710354
  PAW double counting   =      2328.74215343    -2335.81640366
  entropy T*S    EENTRO =         0.00000000
  eigenvalues    EBANDS =      -731.66317896
  atomic energy  EATOM  =      3923.45879020
  Solvation  Ediel_sol  =         0.00000000
  ---------------------------------------------------
  free energy    TOTEN  =      -186.67690852 eV

  energy without entropy =     -186.67690852  energy(sigma->0) =     -186.67690852


--------------------------------------------------------------------------------------------------------




--------------------------------------- Iteration      1(   8)  ---------------------------------------


    POTLOK:  cpu time   51.4000: real time   51.7410
    SETDIJ:  cpu time    0.0480: real time    0.0467
     EDDAV:  cpu time   26.4080: real time   26.4770
 BZINTS: Fermi energy: -4.383089; 64.000000 electrons
         Band energy:-583.373208;  BLOECHL correction: -0.036423
       DOS:  cpu time    0.0040: real time    0.0072
    CHARGE:  cpu time    2.1520: real time    2.1640
    MIXING:  cpu time    0.0400: real time    0.0434
    --------------------------------------------
      LOOP:  cpu time   80.0520: real time   80.4791

 eigenvalue-minimisations  :  1152
 total energy-change (2. order) : 0.1451705E+03  (-0.1599960E+03)
 number of electron      63.9999993 magnetization       6.7459947
 augmentation part        7.6938021 magnetization       5.1221732

 Broyden mixing:
  rms(total) = 0.26972E+01    rms(broyden)= 0.26839E+01
  rms(prec ) = 0.28535E+01
  weight for this iteration     100.00

 eigenvalues of (default mixing * dielectric matrix)
  average eigenvalue GAMMA=   0.3374
  0.4722  0.4722  0.0678

 Free energy of the ion-electron system (eV)
  ---------------------------------------------------
  alpha Z        PSCENC =        40.05543433
  Ewald energy   TEWEN  =      8065.03639907
  -Hartree energ DENC   =    -11510.03541533
  -exchange      EXHF   =         0.00000000
  -V(xc)+E(xc)   XCENC  =        31.15000298
  PAW double counting   =      2335.69393330    -2343.49230278
  entropy T*S    EENTRO =         0.00000000
  eigenvalues    EBANDS =      -583.37320838
  atomic energy  EATOM  =      3923.45879020
  Solvation  Ediel_sol  =         0.00000000
  ---------------------------------------------------
  free energy    TOTEN  =       -41.50636662 eV

  energy without entropy =      -41.50636662  energy(sigma->0) =      -41.50636662


--------------------------------------------------------------------------------------------------------




--------------------------------------- Iteration      1(   9)  ---------------------------------------


    POTLOK:  cpu time   50.8160: real time   50.9832
    SETDIJ:  cpu time    0.0440: real time    0.0463
     EDDAV:  cpu time   25.1680: real time   25.4536
 BZINTS: Fermi energy: -4.258399; 64.000000 electrons
         Band energy:-530.332815;  BLOECHL correction: -0.007362
       DOS:  cpu time    0.0040: real time    0.0066
    CHARGE:  cpu time    2.0920: real time    2.1099
    MIXING:  cpu time    0.0440: real time    0.0415
    --------------------------------------------
      LOOP:  cpu time   78.1680: real time   78.6411

 eigenvalue-minimisations  :  1104
 total energy-change (2. order) : 0.7419419E+01  (-0.8607848E+00)
 number of electron      63.9999993 magnetization       6.6408785
 augmentation part        6.0347282 magnetization       5.4023847

 Broyden mixing:
  rms(total) = 0.12397E+01    rms(broyden)= 0.12384E+01
  rms(prec ) = 0.13034E+01
  weight for this iteration     100.00

 eigenvalues of (default mixing * dielectric matrix)
  average eigenvalue GAMMA=   0.3397
  0.5153  0.5153  0.2582  0.0700

 Free energy of the ion-electron system (eV)
  ---------------------------------------------------
  alpha Z        PSCENC =        40.05543433
  Ewald energy   TEWEN  =      8065.03639907
  -Hartree energ DENC   =    -11550.23067638
  -exchange      EXHF   =         0.00000000
  -V(xc)+E(xc)   XCENC  =        31.44767934
  PAW double counting   =      2406.40720554    -2419.92896436
  entropy T*S    EENTRO =         0.00000000
  eigenvalues    EBANDS =      -530.33281544
  atomic energy  EATOM  =      3923.45879020
  Solvation  Ediel_sol  =         0.00000000
  ---------------------------------------------------
  free energy    TOTEN  =       -34.08694770 eV

  energy without entropy =      -34.08694770  energy(sigma->0) =      -34.08694770


--------------------------------------------------------------------------------------------------------




--------------------------------------- Iteration      1(  10)  ---------------------------------------


    POTLOK:  cpu time   50.7560: real time   51.2543
    SETDIJ:  cpu time    0.0440: real time    0.0459
     EDDAV:  cpu time   34.1800: real time   34.3375
 BZINTS: Fermi energy: -4.204434; 64.000000 electrons
         Band energy:-522.556345;  BLOECHL correction: -0.004138
       DOS:  cpu time    0.0080: real time    0.0067
    CHARGE:  cpu time    2.0880: real time    2.1640
    MIXING:  cpu time    0.0440: real time    0.0441
    --------------------------------------------
      LOOP:  cpu time   87.1200: real time   87.8523

 eigenvalue-minimisations  :  1536
 total energy-change (2. order) : 0.3752507E+00  (-0.1711025E+00)
 number of electron      63.9999992 magnetization       6.6623043
 augmentation part        5.4650742 magnetization       5.6527952

 Broyden mixing:
  rms(total) = 0.82176E+00    rms(broyden)= 0.82160E+00
  rms(prec ) = 0.85332E+00
  weight for this iteration     100.00

 eigenvalues of (default mixing * dielectric matrix)
  average eigenvalue GAMMA=   0.3932
  0.5042  0.5042  0.4441  0.4441  0.0695

 Free energy of the ion-electron system (eV)
  ---------------------------------------------------
  alpha Z        PSCENC =        40.05543433
  Ewald energy   TEWEN  =      8065.03639907
  -Hartree energ DENC   =    -11557.30751732
  -exchange      EXHF   =         0.00000000
  -V(xc)+E(xc)   XCENC  =        31.53767804
  PAW double counting   =      2420.27946700    -2434.21560365
  entropy T*S    EENTRO =         0.00000000
  eigenvalues    EBANDS =      -522.55634471
  atomic energy  EATOM  =      3923.45879020
  Solvation  Ediel_sol  =         0.00000000
  ---------------------------------------------------
  free energy    TOTEN  =       -33.71169704 eV

  energy without entropy =      -33.71169704  energy(sigma->0) =      -33.71169704


--------------------------------------------------------------------------------------------------------




--------------------------------------- Iteration      1(  11)  ---------------------------------------


    POTLOK:  cpu time   50.8480: real time   51.1058
    SETDIJ:  cpu time    0.0440: real time    0.0470
     EDDAV:  cpu time   25.7640: real time   26.0763
 BZINTS: Fermi energy: -4.211187; 64.000000 electrons
         Band energy:-522.248026;  BLOECHL correction: -0.004088
       DOS:  cpu time    0.0080: real time    0.0070
    CHARGE:  cpu time    2.1200: real time    2.1254
    MIXING:  cpu time    0.0440: real time    0.0428
    --------------------------------------------
      LOOP:  cpu time   78.8280: real time   79.4043

 eigenvalue-minimisations  :  1136
 total energy-change (2. order) : 0.3415854E-01  (-0.1579778E-01)
 number of electron      63.9999992 magnetization       6.4480438
 augmentation part        5.4286807 magnetization       5.4559808

 Broyden mixing:
  rms(total) = 0.81517E+00    rms(broyden)= 0.81516E+00
  rms(prec ) = 0.84519E+00
  weight for this iteration     100.00

 eigenvalues of (default mixing * dielectric matrix)
  average eigenvalue GAMMA=   0.5062
  0.7364  0.7364  0.5432  0.5432  0.4085  0.0696

 Free energy of the ion-electron system (eV)
  ---------------------------------------------------
  alpha Z        PSCENC =        40.05543433
  Ewald energy   TEWEN  =      8065.03639907
  -Hartree energ DENC   =    -11557.52816950
  -exchange      EXHF   =         0.00000000
  -V(xc)+E(xc)   XCENC  =        31.55631372
  PAW double counting   =      2420.47146878    -2434.47974926
  entropy T*S    EENTRO =         0.00000000
  eigenvalues    EBANDS =      -522.24802584
  atomic energy  EATOM  =      3923.45879020
  Solvation  Ediel_sol  =         0.00000000
  ---------------------------------------------------
  free energy    TOTEN  =       -33.67753850 eV

  energy without entropy =      -33.67753850  energy(sigma->0) =      -33.67753850


--------------------------------------------------------------------------------------------------------




--------------------------------------- Iteration      1(  12)  ---------------------------------------


    POTLOK:  cpu time   51.0640: real time   51.2481
    SETDIJ:  cpu time    0.0480: real time    0.0467
     EDDAV:  cpu time   27.9680: real time   28.2422
 BZINTS: Fermi energy: -4.274591; 64.000000 electrons
         Band energy:-528.646671;  BLOECHL correction: -0.005122
       DOS:  cpu time    0.0040: real time    0.0072
    CHARGE:  cpu time    2.1000: real time    2.1702
    MIXING:  cpu time    0.0440: real time    0.0446
    --------------------------------------------
      LOOP:  cpu time   81.2280: real time   81.7591

 eigenvalue-minimisations  :  1248
 total energy-change (2. order) :-0.4424225E+00  (-0.1202042E+00)
 number of electron      63.9999993 magnetization       5.3534668
 augmentation part        5.7514221 magnetization       4.2099847

 Broyden mixing:
  rms(total) = 0.96412E+00    rms(broyden)= 0.96411E+00
  rms(prec ) = 0.10148E+01
  weight for this iteration     100.00

 eigenvalues of (default mixing * dielectric matrix)
  average eigenvalue GAMMA=   0.6665
  1.2719  1.2719  0.5396  0.5396  0.0696  0.4863  0.4863

 Free energy of the ion-electron system (eV)
  ---------------------------------------------------
  alpha Z        PSCENC =        40.05543433
  Ewald energy   TEWEN  =      8065.03639907
  -Hartree energ DENC   =    -11552.32775151
  -exchange      EXHF   =         0.00000000
  -V(xc)+E(xc)   XCENC  =        31.32932056
  PAW double counting   =      2413.39254932    -2426.41803205
  entropy T*S    EENTRO =         0.00000000
  eigenvalues    EBANDS =      -528.64667091
  atomic energy  EATOM  =      3923.45879020
  Solvation  Ediel_sol  =         0.00000000
  ---------------------------------------------------
  free energy    TOTEN  =       -34.11996099 eV

  energy without entropy =      -34.11996099  energy(sigma->0) =      -34.11996099


--------------------------------------------------------------------------------------------------------




--------------------------------------- Iteration      1(  13)  ---------------------------------------


    POTLOK:  cpu time   50.9400: real time   51.1094
    SETDIJ:  cpu time    0.0440: real time    0.0462
     EDDAV:  cpu time   27.1560: real time   27.3562
 BZINTS: Fermi energy: -4.219828; 64.000000 electrons
         Band energy:-525.869761;  BLOECHL correction: -0.003576
       DOS:  cpu time    0.0040: real time    0.0068
    CHARGE:  cpu time    2.1320: real time    2.1319
    MIXING:  cpu time    0.0920: real time    0.0887
    --------------------------------------------
      LOOP:  cpu time   80.3680: real time   80.7391

 eigenvalue-minimisations  :  1200
 total energy-change (2. order) : 0.2895306E+00  (-0.6643082E+00)
 number of electron      63.9999992 magnetization       4.9384593
 augmentation part        5.3637226 magnetization       3.9186236

 Broyden mixing:
  rms(total) = 0.54348E+00    rms(broyden)= 0.54344E+00
  rms(prec ) = 0.57536E+00
  weight for this iteration     100.00

 eigenvalues of (default mixing * dielectric matrix)
  average eigenvalue GAMMA=   0.6869
  1.4471  1.4471  0.5459  0.5459  0.0696  0.5025  0.5025  0.4344

 Free energy of the ion-electron system (eV)
  ---------------------------------------------------
  alpha Z        PSCENC =        40.05543433
  Ewald energy   TEWEN  =      8065.03639907
  -Hartree energ DENC   =    -11556.63463594
  -exchange      EXHF   =         0.00000000
  -V(xc)+E(xc)   XCENC  =        31.23987948
  PAW double counting   =      2429.93907588    -2441.05561257
  entropy T*S    EENTRO =         0.00000000
  eigenvalues    EBANDS =      -525.86976082
  atomic energy  EATOM  =      3923.45879020
  Solvation  Ediel_sol  =         0.00000000
  ---------------------------------------------------
  free energy    TOTEN  =       -33.83043036 eV

  energy without entropy =      -33.83043036  energy(sigma->0) =      -33.83043036


--------------------------------------------------------------------------------------------------------




--------------------------------------- Iteration      1(  14)  ---------------------------------------


    POTLOK:  cpu time   50.9680: real time   51.1554
    SETDIJ:  cpu time    0.0480: real time    0.0467
     EDDAV:  cpu time   30.1360: real time   30.4194
 BZINTS: Fermi energy: -4.149834; 64.000000 electrons
         Band energy:-522.596168;  BLOECHL correction: -0.003657
       DOS:  cpu time    0.0040: real time    0.0074
    CHARGE:  cpu time    2.1720: real time    2.1858
    MIXING:  cpu time    0.0440: real time    0.0456
    --------------------------------------------
      LOOP:  cpu time   83.3720: real time   83.8602

 eigenvalue-minimisations  :  1344
 total energy-change (2. order) :-0.5336639E-01  (-0.5641551E-01)
 number of electron      63.9999992 magnetization       4.7073469
 augmentation part        5.1070833 magnetization       3.7566631

 Broyden mixing:
  rms(total) = 0.44558E+00    rms(broyden)= 0.44549E+00
  rms(prec ) = 0.47529E+00
  weight for this iteration     100.00

 eigenvalues of (default mixing * dielectric matrix)
  average eigenvalue GAMMA=   0.6485
  1.4980  1.4980  0.5499  0.5499  0.0696  0.5055  0.5055  0.4764  0.1841

 Free energy of the ion-electron system (eV)
  ---------------------------------------------------
  alpha Z        PSCENC =        40.05543433
  Ewald energy   TEWEN  =      8065.03639907
  -Hartree energ DENC   =    -11560.10503397
  -exchange      EXHF   =         0.00000000
  -V(xc)+E(xc)   XCENC  =        31.29640508
  PAW double counting   =      2438.02614583    -2449.05576938
  entropy T*S    EENTRO =         0.00000000
  eigenvalues    EBANDS =      -522.59616791
  atomic energy  EATOM  =      3923.45879020
  Solvation  Ediel_sol  =         0.00000000
  ---------------------------------------------------
  free energy    TOTEN  =       -33.88379675 eV

  energy without entropy =      -33.88379675  energy(sigma->0) =      -33.88379675


--------------------------------------------------------------------------------------------------------




--------------------------------------- Iteration      1(  15)  ---------------------------------------


    POTLOK:  cpu time   50.8960: real time   51.1435
    SETDIJ:  cpu time    0.0400: real time    0.0389
     EDDAV:  cpu time   27.0520: real time   27.2797
 BZINTS: Fermi energy: -4.120945; 64.000000 electrons
         Band energy:-520.452123;  BLOECHL correction: -0.003956
       DOS:  cpu time    0.0080: real time    0.0072
    CHARGE:  cpu time    2.1200: real time    2.1221
    MIXING:  cpu time    0.0440: real time    0.0463
    --------------------------------------------
      LOOP:  cpu time   80.1600: real time   80.6378

 eigenvalue-minimisations  :  1200
 total energy-change (2. order) :-0.8390034E-02  (-0.5843080E-01)
 number of electron      63.9999992 magnetization       4.1825093
 augmentation part        5.0026607 magnetization       3.2805165

 Broyden mixing:
  rms(total) = 0.28510E+00    rms(broyden)= 0.28500E+00
  rms(prec ) = 0.29893E+00
  weight for this iteration     100.00

 eigenvalues of (default mixing * dielectric matrix)
  average eigenvalue GAMMA=   0.7500
  1.8654  1.8654  0.5598  0.5598  0.7292  0.7292  0.5448  0.4377  0.0696  0.1393

 Free energy of the ion-electron system (eV)
  ---------------------------------------------------
  alpha Z        PSCENC =        40.05543433
  Ewald energy   TEWEN  =      8065.03639907
  -Hartree energ DENC   =    -11562.14682638
  -exchange      EXHF   =         0.00000000
  -V(xc)+E(xc)   XCENC  =        31.35726829
  PAW double counting   =      2442.15038236    -2453.35151195
  entropy T*S    EENTRO =         0.00000000
  eigenvalues    EBANDS =      -520.45212270
  atomic energy  EATOM  =      3923.45879020
  Solvation  Ediel_sol  =         0.00000000
  ---------------------------------------------------
  free energy    TOTEN  =       -33.89218678 eV

  energy without entropy =      -33.89218678  energy(sigma->0) =      -33.89218678


--------------------------------------------------------------------------------------------------------




--------------------------------------- Iteration      1(  16)  ---------------------------------------


    POTLOK:  cpu time   50.9120: real time   51.0734
    SETDIJ:  cpu time    0.0480: real time    0.0463
     EDDAV:  cpu time   24.2880: real time   24.4704
 BZINTS: Fermi energy: -4.034003; 64.000000 electrons
         Band energy:-515.866205;  BLOECHL correction: -0.004744
       DOS:  cpu time    0.0040: real time    0.0072
    CHARGE:  cpu time    2.0640: real time    2.1398
    MIXING:  cpu time    0.0480: real time    0.0472
    --------------------------------------------
      LOOP:  cpu time   77.3640: real time   77.7842

 eigenvalue-minimisations  :  1056
 total energy-change (2. order) :-0.1149470E-01  (-0.1831048E+00)
 number of electron      63.9999992 magnetization       3.4080177
 augmentation part        4.8510614 magnetization       2.5528624

 Broyden mixing:
  rms(total) = 0.16996E+00    rms(broyden)= 0.16993E+00
  rms(prec ) = 0.17653E+00
  weight for this iteration     100.00

 eigenvalues of (default mixing * dielectric matrix)
  average eigenvalue GAMMA=   0.8589
  2.3984  2.3984  0.8575  0.8575  0.5616  0.5616  0.5649  0.5649  0.4747  0.0696
  0.1388

 Free energy of the ion-electron system (eV)
  ---------------------------------------------------
  alpha Z        PSCENC =        40.05543433
  Ewald energy   TEWEN  =      8065.03639907
  -Hartree energ DENC   =    -11565.96532754
  -exchange      EXHF   =         0.00000000
  -V(xc)+E(xc)   XCENC  =        31.51034393
  PAW double counting   =      2448.17949091    -2460.31260741
  entropy T*S    EENTRO =         0.00000000
  eigenvalues    EBANDS =      -515.86620497
  atomic energy  EATOM  =      3923.45879020
  Solvation  Ediel_sol  =         0.00000000
  ---------------------------------------------------
  free energy    TOTEN  =       -33.90368148 eV

  energy without entropy =      -33.90368148  energy(sigma->0) =      -33.90368148


--------------------------------------------------------------------------------------------------------




--------------------------------------- Iteration      1(  17)  ---------------------------------------


    POTLOK:  cpu time   50.9120: real time   50.9943
    SETDIJ:  cpu time    0.0440: real time    0.0452
     EDDAV:  cpu time   24.6800: real time   24.7376
 BZINTS: Fermi energy: -3.973459; 64.000000 electrons
         Band energy:-512.926593;  BLOECHL correction: -0.004563
       DOS:  cpu time    0.0080: real time    0.0066
    CHARGE:  cpu time    2.0240: real time    2.1248
    MIXING:  cpu time    0.0520: real time    0.0493
    --------------------------------------------
      LOOP:  cpu time   77.7200: real time   77.9579

 eigenvalue-minimisations  :  1072
 total energy-change (2. order) :-0.6068201E-01  (-0.2282605E-01)
 number of electron      63.9999992 magnetization       2.7247002
 augmentation part        4.8629513 magnetization       1.8758554

 Broyden mixing:
  rms(total) = 0.11200E+00    rms(broyden)= 0.11200E+00
  rms(prec ) = 0.11656E+00
  weight for this iteration     100.00

 eigenvalues of (default mixing * dielectric matrix)
  average eigenvalue GAMMA=   0.9778
  3.6744  2.4236  0.9360  0.9360  0.5611  0.5611  0.7038  0.7038  0.5614  0.4643
  0.0696  0.1387

 Free energy of the ion-electron system (eV)
  ---------------------------------------------------
  alpha Z        PSCENC =        40.05543433
  Ewald energy   TEWEN  =      8065.03639907
  -Hartree energ DENC   =    -11568.23064410
  -exchange      EXHF   =         0.00000000
  -V(xc)+E(xc)   XCENC  =        31.57991561
  PAW double counting   =      2450.22449465    -2463.16216060
  entropy T*S    EENTRO =         0.00000000
  eigenvalues    EBANDS =      -512.92659265
  atomic energy  EATOM  =      3923.45879020
  Solvation  Ediel_sol  =         0.00000000
  ---------------------------------------------------
  free energy    TOTEN  =       -33.96436350 eV

  energy without entropy =      -33.96436350  energy(sigma->0) =      -33.96436350


--------------------------------------------------------------------------------------------------------




--------------------------------------- Iteration      1(  18)  ---------------------------------------


    POTLOK:  cpu time   50.9400: real time   51.1145
    SETDIJ:  cpu time    0.0600: real time    0.0571
     EDDAV:  cpu time   26.6080: real time   26.7715
 BZINTS: Fermi energy: -3.923903; 64.000000 electrons
         Band energy:-510.856389;  BLOECHL correction: -0.004430
       DOS:  cpu time    0.0040: real time    0.0058
    CHARGE:  cpu time    2.1040: real time    2.1120
    MIXING:  cpu time    0.0520: real time    0.0498
    --------------------------------------------
      LOOP:  cpu time   79.7680: real time   80.1109

 eigenvalue-minimisations  :  1168
 total energy-change (2. order) :-0.3964566E-01  (-0.4731256E-02)
 number of electron      63.9999992 magnetization       2.1807352
 augmentation part        4.9273842 magnetization       1.3165560

 Broyden mixing:
  rms(total) = 0.94728E-01    rms(broyden)= 0.94725E-01
  rms(prec ) = 0.10219E+00
  weight for this iteration     100.00

 eigenvalues of (default mixing * dielectric matrix)
  average eigenvalue GAMMA=   1.2256
  6.3102  2.7886  1.0768  1.0768  0.5613  0.5613  0.8544  0.8544  0.0696  0.5844
  0.5844  0.4719  0.1387

 Free energy of the ion-electron system (eV)
  ---------------------------------------------------
  alpha Z        PSCENC =        40.05543433
  Ewald energy   TEWEN  =      8065.03639907
  -Hartree energ DENC   =    -11570.10460000
  -exchange      EXHF   =         0.00000000
  -V(xc)+E(xc)   XCENC  =        31.58594801
  PAW double counting   =      2451.40312210    -2464.58271422
  entropy T*S    EENTRO =         0.00000000
  eigenvalues    EBANDS =      -510.85638864
  atomic energy  EATOM  =      3923.45879020
  Solvation  Ediel_sol  =         0.00000000
  ---------------------------------------------------
  free energy    TOTEN  =       -34.00400915 eV

  energy without entropy =      -34.00400915  energy(sigma->0) =      -34.00400915


--------------------------------------------------------------------------------------------------------




--------------------------------------- Iteration      1(  19)  ---------------------------------------


    POTLOK:  cpu time   50.7120: real time   51.1242
    SETDIJ:  cpu time    0.0720: real time    0.0737
     EDDAV:  cpu time   28.8040: real time   29.1636
 BZINTS: Fermi energy: -3.848729; 64.000000 electrons
         Band energy:-506.470269;  BLOECHL correction: -0.004763
       DOS:  cpu time    0.0040: real time    0.0070
    CHARGE:  cpu time    2.1280: real time    2.1354
    MIXING:  cpu time    0.0480: real time    0.0505
    --------------------------------------------
      LOOP:  cpu time   81.7680: real time   82.5543

 eigenvalue-minimisations  :  1296
 total energy-change (2. order) :-0.3157703E-01  (-0.5675573E-02)
 number of electron      63.9999992 magnetization       2.0887280
 augmentation part        4.8131067 magnetization       1.2991425

 Broyden mixing:
  rms(total) = 0.49024E-01    rms(broyden)= 0.48973E-01
  rms(prec ) = 0.51747E-01
  weight for this iteration     100.00

 eigenvalues of (default mixing * dielectric matrix)
  average eigenvalue GAMMA=   1.3024
  7.7456  2.6829  1.2867  1.2867  0.5613  0.5613  0.0696  0.8063  0.8063  0.6425
  0.6425  0.4780  0.5248  0.1387

 Free energy of the ion-electron system (eV)
  ---------------------------------------------------
  alpha Z        PSCENC =        40.05543433
  Ewald energy   TEWEN  =      8065.03639907
  -Hartree energ DENC   =    -11574.37262565
  -exchange      EXHF   =         0.00000000
  -V(xc)+E(xc)   XCENC  =        31.63014610
  PAW double counting   =      2454.75483174    -2468.12829269
  entropy T*S    EENTRO =         0.00000000
  eigenvalues    EBANDS =      -506.47026929
  atomic energy  EATOM  =      3923.45879020
  Solvation  Ediel_sol  =         0.00000000
  ---------------------------------------------------
  free energy    TOTEN  =       -34.03558618 eV

  energy without entropy =      -34.03558618  energy(sigma->0) =      -34.03558618


--------------------------------------------------------------------------------------------------------




--------------------------------------- Iteration      1(  20)  ---------------------------------------


    POTLOK:  cpu time   50.8920: real time   51.1597
    SETDIJ:  cpu time    0.0600: real time    0.0606
     EDDAV:  cpu time   27.6240: real time   27.7448
 BZINTS: Fermi energy: -3.851262; 64.000000 electrons
         Band energy:-506.428734;  BLOECHL correction: -0.004758
       DOS:  cpu time    0.0080: real time    0.0076
    CHARGE:  cpu time    2.1360: real time    2.1359
    MIXING:  cpu time    0.0520: real time    0.0545
    --------------------------------------------
      LOOP:  cpu time   80.7720: real time   81.1631

 eigenvalue-minimisations  :  1216
 total energy-change (2. order) :-0.7839798E-02  (-0.8127444E-03)
 number of electron      63.9999992 magnetization       2.0319905
 augmentation part        4.8007025 magnetization       1.2459873

 Broyden mixing:
  rms(total) = 0.47534E-01    rms(broyden)= 0.47530E-01
  rms(prec ) = 0.50896E-01
  weight for this iteration     100.00

 eigenvalues of (default mixing * dielectric matrix)
  average eigenvalue GAMMA=   1.3579
  8.5659  2.3250  1.9476  1.1222  1.1222  0.5613  0.5613  0.0696  0.8096  0.8096
  0.4729  0.6594  0.6352  0.5678  0.1387

 Free energy of the ion-electron system (eV)
  ---------------------------------------------------
  alpha Z        PSCENC =        40.05543433
  Ewald energy   TEWEN  =      8065.03639907
  -Hartree energ DENC   =    -11574.52121198
  -exchange      EXHF   =         0.00000000
  -V(xc)+E(xc)   XCENC  =        31.61176064
  PAW double counting   =      2454.20472700    -2467.46059098
  entropy T*S    EENTRO =         0.00000000
  eigenvalues    EBANDS =      -506.42873425
  atomic energy  EATOM  =      3923.45879020
  Solvation  Ediel_sol  =         0.00000000
  ---------------------------------------------------
  free energy    TOTEN  =       -34.04342598 eV

  energy without entropy =      -34.04342598  energy(sigma->0) =      -34.04342598


--------------------------------------------------------------------------------------------------------




--------------------------------------- Iteration      1(  21)  ---------------------------------------


    POTLOK:  cpu time   50.8960: real time   51.0530
    SETDIJ:  cpu time    0.0440: real time    0.0475
     EDDAV:  cpu time   23.2760: real time   23.4037
 BZINTS: Fermi energy: -3.852544; 64.000000 electrons
         Band energy:-506.582984;  BLOECHL correction: -0.004798
       DOS:  cpu time    0.0040: real time    0.0072
    CHARGE:  cpu time    2.0600: real time    2.1609
    MIXING:  cpu time    0.0520: real time    0.0534
    --------------------------------------------
      LOOP:  cpu time   76.3320: real time   76.7257

 eigenvalue-minimisations  :  1008
 total energy-change (2. order) :-0.6772608E-02  (-0.3740660E-03)
 number of electron      63.9999992 magnetization       2.0005623
 augmentation part        4.7831954 magnetization       1.2149754

 Broyden mixing:
  rms(total) = 0.54437E-01    rms(broyden)= 0.54436E-01
  rms(prec ) = 0.58580E-01
  weight for this iteration     100.00

 eigenvalues of (default mixing * dielectric matrix)
  average eigenvalue GAMMA=   1.3858
  8.8690  2.3057  2.3057  1.4307  0.5613  0.5613  0.0696  0.8518  0.8518  1.0125
  0.9023  0.4733  0.6837  0.5775  0.5775  0.1387

 Free energy of the ion-electron system (eV)
  ---------------------------------------------------
  alpha Z        PSCENC =        40.05543433
  Ewald energy   TEWEN  =      8065.03639907
  -Hartree energ DENC   =    -11574.42731106
  -exchange      EXHF   =         0.00000000
  -V(xc)+E(xc)   XCENC  =        31.59294255
  PAW double counting   =      2453.53687886    -2466.72034874
  entropy T*S    EENTRO =         0.00000000
  eigenvalues    EBANDS =      -506.58298380
  atomic energy  EATOM  =      3923.45879020
  Solvation  Ediel_sol  =         0.00000000
  ---------------------------------------------------
  free energy    TOTEN  =       -34.05019859 eV

  energy without entropy =      -34.05019859  energy(sigma->0) =      -34.05019859


--------------------------------------------------------------------------------------------------------




--------------------------------------- Iteration      1(  22)  ---------------------------------------


    POTLOK:  cpu time   50.9320: real time   51.0239
    SETDIJ:  cpu time    0.0440: real time    0.0455
     EDDAV:  cpu time   26.6040: real time   26.8955
 BZINTS: Fermi energy: -3.872968; 64.000000 electrons
         Band energy:-507.830802;  BLOECHL correction: -0.004651
       DOS:  cpu time    0.0080: real time    0.0071
    CHARGE:  cpu time    2.1040: real time    2.1207
    MIXING:  cpu time    0.0560: real time    0.0549
    --------------------------------------------
      LOOP:  cpu time   79.7480: real time   80.1476

 eigenvalue-minimisations  :  1168
 total energy-change (2. order) :-0.2308856E-05  (-0.9893814E-03)
 number of electron      63.9999992 magnetization       1.9902208
 augmentation part        4.8571206 magnetization       1.1751580

 Broyden mixing:
  rms(total) = 0.21898E-01    rms(broyden)= 0.21867E-01
  rms(prec ) = 0.23662E-01
  weight for this iteration     100.00

 eigenvalues of (default mixing * dielectric matrix)
  average eigenvalue GAMMA=   1.3799
  9.0619  2.3837  2.3837  1.3099  1.3099  0.5613  0.5613  0.0696  0.9160  0.9160
  0.7977  0.7977  0.4731  0.5700  0.6039  0.6039  0.1387

 Free energy of the ion-electron system (eV)
  ---------------------------------------------------
  alpha Z        PSCENC =        40.05543433
  Ewald energy   TEWEN  =      8065.03639907
  -Hartree energ DENC   =    -11573.27142852
  -exchange      EXHF   =         0.00000000
  -V(xc)+E(xc)   XCENC  =        31.55201516
[...]
     34      -2.0564      0.00000
     35      -1.7725      0.00000
     36      -0.6479      0.00000
     37       0.0464      0.00000
     38       0.8734      0.00000
     39       0.9561      0.00000
     40       1.6443      0.00000
     41       1.7108      0.00000
     42       2.0710      0.00000
     43       2.2137      0.00000
     44       2.5011      0.00000
     45       2.5485      0.00000
     46       3.0597      0.00000
     47       3.2753      0.00000
     48       3.4855      0.00000

 k-point     5 :      -0.4000    0.2000    0.0000
  band No.  band energies     occupation 
      1     -16.4052      1.00000
      2     -16.2592      1.00000
      3     -15.8638      1.00000
      4     -15.7572      1.00000
      5     -15.6625      1.00000
      6     -15.4671      1.00000
      7     -11.3433      1.00000
      8      -9.5518      1.00000
      9      -7.8922      1.00000
     10      -7.3851      1.00000
     11      -7.3703      1.00000
     12      -6.8777      1.00000
     13      -6.5323      1.00000
     14      -6.3567      1.00000
     15      -6.0772      1.00000
     16      -5.6958      1.00000
     17      -5.6333      1.00000
     18      -5.6020      1.00000
     19      -5.5871      1.00000
     20      -5.3875      1.00000
     21      -5.1702      1.00000
     22      -4.6718      1.00000
     23      -4.4683      1.00000
     24      -4.4048      1.00000
     25      -4.3010      1.00000
     26      -4.0647      1.00000
     27      -4.0532      1.00000
     28      -3.9309      1.00000
     29      -3.8934      1.00000
     30      -3.7675      1.00000
     31      -3.6553      1.00000
     32      -2.4262     -0.04326
     33      -2.3420      0.00000
     34      -2.1667      0.00000
     35      -1.7336      0.00000
     36      -1.1262      0.00000
     37      -0.1481      0.00000
     38       0.4914      0.00000
     39       0.6801      0.00000
     40       1.3717      0.00000
     41       1.5386      0.00000
     42       1.6933      0.00000
     43       2.6843      0.00000
     44       2.7729      0.00000
     45       2.8118      0.00000
     46       2.9894      0.00000
     47       3.2001      0.00000
     48       3.7953      0.00000


--------------------------------------------------------------------------------------------------------


 soft charge-density along one line, spin component           1
         0         1         2         3         4         5         6         7         8         9
 total charge-density along one line

 soft charge-density along one line, spin component           2
         0         1         2         3         4         5         6         7         8         9
 total charge-density along one line

 pseudopotential strength for first ion, spin component:           1
-10.823  -0.140   0.000   0.015   0.000   1.497   0.059  -0.000
 -0.140 -10.983   0.000   0.000   0.015   0.059   1.563  -0.000
  0.000   0.000 -10.750   0.000   0.000  -0.000  -0.000   1.466
  0.015   0.000   0.000 -10.983   0.140  -0.006  -0.000  -0.000
  0.000   0.015   0.000   0.140 -10.823  -0.000  -0.006  -0.000
  1.497   0.059  -0.000  -0.006  -0.000   0.693  -0.025   0.000
  0.059   1.563  -0.000  -0.000  -0.006  -0.025   0.665   0.000
 -0.000  -0.000   1.466  -0.000  -0.000   0.000   0.000   0.706
 -0.006  -0.000  -0.000   1.563  -0.059   0.003   0.000   0.000
 -0.000  -0.006  -0.000  -0.059   1.497   0.000   0.003   0.000
  0.000  -0.000   0.006  -0.000   0.000  -0.000  -0.000  -0.001
 -0.000   0.000  -0.000   0.000  -0.000   0.000  -0.000   0.000
 -0.001  -0.003   0.000  -0.000   0.000   0.000   0.001  -0.000
 -0.000  -0.000  -0.002  -0.000   0.000  -0.000   0.000   0.000
  0.000  -0.000   0.000  -0.003   0.001   0.000  -0.000  -0.000
  0.000   0.000  -0.000   0.000  -0.000  -0.000  -0.000   0.000
  0.000   0.000   0.000   0.000  -0.000  -0.000  -0.000   0.000
 -0.000   0.000  -0.000   0.000  -0.000   0.000  -0.000   0.000
 pseudopotential strength for first ion, spin component:           2
-10.405   0.026  -0.000  -0.003  -0.000   1.318  -0.008   0.000
  0.026 -10.392   0.000  -0.000  -0.003  -0.008   1.314  -0.000
 -0.000   0.000 -10.436   0.000   0.000   0.000  -0.000   1.329
 -0.003  -0.000   0.000 -10.392  -0.026   0.001   0.000  -0.000
 -0.000  -0.003   0.000  -0.026 -10.405   0.000   0.001  -0.000
  1.318  -0.008   0.000   0.001   0.000   0.769   0.002  -0.000
 -0.008   1.314  -0.000   0.000   0.001   0.002   0.770   0.000
  0.000  -0.000   1.329  -0.000  -0.000  -0.000   0.000   0.767
  0.001   0.000  -0.000   1.314   0.008  -0.000  -0.000   0.000
  0.000   0.001  -0.000   0.008   1.318  -0.000  -0.000   0.000
  0.000  -0.000   0.000  -0.000   0.000   0.000  -0.000   0.000
 -0.000   0.000  -0.000   0.000  -0.000   0.000  -0.000   0.000
 -0.000  -0.001   0.000   0.000  -0.000   0.000   0.000  -0.000
  0.000  -0.000  -0.001  -0.000   0.000   0.000   0.000   0.000
 -0.000   0.000   0.000  -0.001   0.000   0.000   0.000  -0.000
  0.000   0.000  -0.000  -0.000  -0.000  -0.000   0.000   0.000
 -0.000   0.000   0.000   0.000  -0.000   0.000  -0.000   0.000
 -0.000  -0.000  -0.000   0.000  -0.000   0.000   0.000   0.000
 total augmentation occupancy for first ion, spin component:           1
  1.808  -0.180   0.000   0.020  -0.000   0.009   0.092  -0.000  -0.011   0.000  -0.000  -0.000  -0.006  -0.000   0.003   0.000
 -0.180   1.644  -0.000  -0.000   0.020   0.090   0.099   0.000  -0.000  -0.010   0.000   0.000  -0.011  -0.000   0.005   0.001
  0.000  -0.000   1.946  -0.000  -0.000  -0.000   0.000  -0.064   0.000   0.000  -0.014  -0.007  -0.000  -0.002  -0.000   0.000
  0.020  -0.000  -0.000   1.644   0.180  -0.010   0.000   0.000   0.099  -0.090  -0.000  -0.000  -0.005   0.000  -0.011   0.000
 -0.000   0.020  -0.000   0.180   1.808  -0.000  -0.011   0.000  -0.092   0.009   0.000   0.000   0.003   0.000   0.006  -0.001
  0.009   0.090  -0.000  -0.010  -0.000   0.072   0.048   0.000  -0.005  -0.000   0.000  -0.000  -0.001  -0.000   0.017   0.000
  0.092   0.099   0.000   0.000  -0.011   0.048   0.132   0.000  -0.000  -0.005   0.000  -0.000  -0.009   0.000  -0.003   0.001
 -0.000   0.000  -0.064   0.000   0.000   0.000   0.000   0.062   0.000  -0.000   0.033  -0.015  -0.000  -0.004   0.000   0.000
 -0.011  -0.000   0.000   0.099  -0.092  -0.005  -0.000   0.000   0.132  -0.048   0.000   0.000   0.003   0.000  -0.009  -0.000
  0.000  -0.010   0.000  -0.090   0.009  -0.000  -0.005  -0.000  -0.048   0.072  -0.000   0.000   0.017   0.000   0.001  -0.002
 -0.000   0.000  -0.014  -0.000   0.000   0.000   0.000   0.033   0.000  -0.000   1.012  -0.277   0.000  -0.019  -0.000   0.000
 -0.000   0.000  -0.007  -0.000   0.000  -0.000   0.000  -0.015   0.000   0.000  -0.277   0.136  -0.000   0.007   0.000   0.000
 -0.006  -0.011  -0.000  -0.005   0.003  -0.001  -0.009  -0.000   0.003   0.017   0.000   0.000   0.184  -0.000  -0.000  -0.013
 -0.000  -0.000  -0.002   0.000   0.000  -0.000   0.000  -0.004   0.000   0.000  -0.019   0.007  -0.000   0.196   0.000   0.000
  0.003   0.005  -0.000  -0.011   0.006   0.017  -0.003   0.000  -0.009   0.001  -0.000  -0.000  -0.000   0.000   0.184   0.000
  0.000   0.001   0.000   0.000  -0.001   0.000   0.001   0.000  -0.000  -0.002   0.000   0.000  -0.013   0.000   0.000   0.002
  0.000   0.000   0.001  -0.000  -0.000   0.000   0.000   0.001   0.000  -0.000   0.002  -0.001   0.000  -0.016  -0.000  -0.000
 -0.001  -0.000  -0.000   0.001  -0.000  -0.002   0.000  -0.000   0.001  -0.000   0.000   0.000  -0.000  -0.000  -0.013  -0.000
 total augmentation occupancy for first ion, spin component:           2
  0.053   0.094   0.000  -0.010  -0.000  -0.050  -0.045  -0.000   0.005   0.000   0.000   0.000   0.002   0.000  -0.001   0.000
  0.094   0.151   0.000  -0.000  -0.010  -0.046  -0.101  -0.000   0.000   0.005  -0.000   0.000   0.005   0.000  -0.001   0.000
  0.000   0.000  -0.005   0.000  -0.000  -0.000  -0.000  -0.023  -0.000   0.000   0.003   0.002   0.000   0.000   0.000  -0.000
 -0.010  -0.000   0.000   0.151  -0.094   0.005  -0.000  -0.000  -0.101   0.046   0.000   0.000   0.001   0.000   0.005  -0.000
 -0.000  -0.010  -0.000  -0.094   0.053  -0.000   0.005   0.000   0.045  -0.050  -0.000  -0.000  -0.001  -0.000  -0.002   0.000
 -0.050  -0.046  -0.000   0.005  -0.000   0.011   0.017   0.000  -0.002  -0.000  -0.000   0.000  -0.001  -0.000   0.001   0.000
 -0.045  -0.101  -0.000  -0.000   0.005   0.017   0.031   0.000  -0.000  -0.002  -0.000   0.000  -0.002  -0.000   0.000  -0.000
 -0.000  -0.000  -0.023  -0.000   0.000   0.000   0.000   0.003   0.000  -0.000  -0.000   0.000  -0.000  -0.000   0.000  -0.000
  0.005   0.000  -0.000  -0.101   0.045  -0.002  -0.000   0.000   0.031  -0.017  -0.000  -0.000  -0.000  -0.000  -0.002   0.000
  0.000   0.005   0.000   0.046  -0.050  -0.000  -0.002  -0.000  -0.017   0.011   0.000  -0.000   0.001   0.000   0.001   0.000
  0.000  -0.000   0.003   0.000  -0.000  -0.000  -0.000  -0.000  -0.000   0.000   0.004   0.018   0.000  -0.000   0.000   0.000
  0.000   0.000   0.002   0.000  -0.000   0.000   0.000   0.000  -0.000  -0.000   0.018  -0.010  -0.000  -0.000  -0.000   0.000
  0.002   0.005   0.000   0.001  -0.001  -0.001  -0.002  -0.000  -0.000   0.001  -0.000  -0.000   0.000   0.000  -0.000   0.001
  0.000   0.000   0.000  -0.000  -0.000  -0.000  -0.000  -0.000  -0.000   0.000  -0.000  -0.000  -0.000   0.001  -0.000  -0.000
 -0.001  -0.001   0.000   0.005  -0.002   0.001   0.000   0.000  -0.002   0.001   0.000   0.000  -0.000  -0.000   0.000  -0.000
  0.000   0.000  -0.000  -0.000   0.000   0.000  -0.000  -0.000   0.000   0.000   0.000  -0.000   0.001  -0.000  -0.000  -0.000
  0.000  -0.000   0.000  -0.000  -0.000  -0.000   0.000  -0.000  -0.000   0.000  -0.000   0.000  -0.000   0.001   0.000   0.000
  0.000   0.000   0.000   0.000  -0.000   0.000  -0.000   0.000  -0.000  -0.000   0.000   0.000   0.000   0.000   0.001   0.000


------------------------ aborting loop because EDIFF is reached ----------------------------------------





 total charge     

# of ion       s       p       d       tot
------------------------------------------
    1        0.391   0.431   8.332   9.153
    2        0.391   0.431   8.329   9.151
    3        1.158   1.160   0.099   2.418
    4        0.755   0.861   0.000   1.616
    5        1.490   2.254   0.044   3.787
    6        1.484   2.317   0.045   3.846
    7        1.488   2.274   0.044   3.805
    8        1.496   2.221   0.043   3.761
    9        1.493   2.285   0.042   3.820
   10        1.495   2.237   0.043   3.774
--------------------------------------------------
tot         11.641  16.470  17.022  45.132



 magnetization (x)

# of ion       s       p       d       tot
------------------------------------------
    1       -0.001  -0.001   0.546   0.545
    2       -0.001  -0.001   0.546   0.544
    3        0.004   0.009   0.003   0.016
    4        0.003   0.001   0.000   0.004
    5        0.006   0.053   0.001   0.061
    6        0.008   0.070   0.002   0.080
    7        0.006   0.062   0.002   0.070
    8        0.008   0.052   0.001   0.061
    9        0.009   0.069   0.002   0.080
   10        0.007   0.061   0.001   0.069
--------------------------------------------------
tot          0.050   0.377   1.105   1.531

    CHARGE:  cpu time    2.1200: real time    2.1763
    FORLOC:  cpu time    0.0640: real time    0.0619
    FORNL :  cpu time    6.6040: real time    6.7113
    STRESS:  cpu time   19.7120: real time   20.1140
    FORCOR:  cpu time   50.8560: real time   51.6004
    FORHAR:  cpu time    0.3640: real time    0.3944
    MIXING:  cpu time    0.0400: real time    0.0411
    OFIELD:  cpu time    0.0000: real time    0.0000

  FORCE on cell =-STRESS in cart. coord.  units (eV):
  Direction    XX          YY          ZZ          XY          YZ          ZX
  --------------------------------------------------------------------------------------
  Alpha Z    52.59075    52.59075    52.59075
  Ewald   11938.96754 11938.96542-14085.00717    -0.00239    -0.00056    -0.00101
  Hartree 12693.71668 12693.71788-12050.66266    -0.00056     0.00008     0.00012
  E(xc)    -273.67529  -273.67529  -273.36486     0.00002     0.00001     0.00001
  Local  -25355.50595-25355.50627 25385.34963     0.00257     0.00030     0.00057
  n-local   240.90021   241.39681   241.92999     0.08831     0.53436     0.37158
  augment    75.41451    75.41461    72.01240     0.00006     0.00002     0.00005
  Kinetic   631.75711   622.59494   657.23800    -4.82810    -0.65201    -1.08747
  Fock        0.00000     0.00000     0.00000     0.00000     0.00000     0.00000
  -------------------------------------------------------------------------------------
  Total      -0.16780    -0.16780     0.08609     0.00000     0.00000     0.00000
  in kB      -0.36433    -0.36433     0.18692     0.00000     0.00000     0.00000
  external pressure =       -0.18 kB  Pullay stress =        0.00 kB


 VOLUME and BASIS-vectors are now :
 -----------------------------------------------------------------------------
  energy-cutoff  :      520.00
  volume of cell :      737.91
      direct lattice vectors                 reciprocal lattice vectors
     6.211748410  0.000000012  0.000000000     0.160985271 -0.092944883 -0.000000000
     3.105873844  5.379531675 -0.000000000    -0.000000000  0.185889788  0.000000000
     0.000000000 -0.000000000 22.082263001    -0.000000000  0.000000000  0.045285214

  length of vectors
     6.211748410  6.211748013 22.082263001     0.185889776  0.185889788  0.045285214


 FORCES acting on ions
    electron-ion (+dipol)            ewald-force                    non-local-force                 convergence-correction
 -----------------------------------------------------------------------------------------------
   0.159E-03 0.751E-04 -.555E+01   0.792E-03 0.475E-03 0.564E+01   -.139E-16 0.573E-20 -.493E-01   0.212E-05 -.360E-05 -.272E-01
   -.144E-03 -.652E-04 -.703E+01   -.780E-03 -.469E-03 0.714E+01   -.208E-19 0.824E-20 -.710E-01   0.224E-05 -.388E-05 -.289E-01
   -.351E-04 -.369E-04 0.241E+03   -.174E-03 -.976E-04 -.238E+03   -.948E-18 -.656E-17 -.323E+01   0.896E-07 0.450E-07 0.488E-02
   0.303E-04 0.104E-04 -.248E+03   0.189E-03 0.106E-03 0.244E+03   0.151E-16 0.134E-16 0.432E+01   -.654E-07 -.483E-07 -.147E-01
   -.269E+02 0.358E-02 -.525E+03   0.249E+02 0.147E-01 0.528E+03   0.196E+01 -.503E-02 -.229E+01   0.148E-02 -.166E-01 -.323E-01
   0.135E+02 0.233E+02 -.525E+03   -.125E+02 -.216E+02 0.528E+03   -.985E+00 -.170E+01 -.229E+01   -.151E-01 0.702E-02 -.323E-01
   0.134E+02 -.233E+02 -.525E+03   -.125E+02 0.216E+02 0.528E+03   -.976E+00 0.170E+01 -.229E+01   0.136E-01 0.958E-02 -.323E-01
   0.344E+02 -.163E-01 0.532E+03   -.324E+02 0.354E-01 -.534E+03   -.192E+01 0.333E-02 0.226E+01   -.555E-03 -.183E-01 0.160E-01
   -.172E+02 -.297E+02 0.532E+03   0.162E+02 0.281E+02 -.534E+03   0.961E+00 0.166E+01 0.226E+01   -.156E-01 0.965E-02 0.160E-01
   -.172E+02 0.298E+02 0.532E+03   0.162E+02 -.281E+02 -.534E+03   0.955E+00 -.166E+01 0.226E+01   0.162E-01 0.869E-02 0.160E-01
 -----------------------------------------------------------------------------------------------
   0.387E-04 -.286E-04 -.748E+00   -.355E-14 0.142E-13 0.000E+00   -.222E-15 0.000E+00 0.869E+00   0.430E-05 -.759E-05 -.115E+00


 POSITION                                       TOTAL-FORCE (eV/Angst)
 -----------------------------------------------------------------------------------
      3.10587      1.79318     11.02743         0.000000      0.000000      0.013578
      6.21175      3.58636     11.02966         0.000000      0.000000      0.007766
      0.00000     -0.00000      9.89762        -0.000000      0.000000     -0.226020
      0.00000     -0.00000     12.24444         0.000000     -0.000000      0.041356
      3.92969      0.00079     12.60244         0.002421     -0.002786      0.026961
      1.14171      1.97593     12.60244        -0.003623     -0.000703      0.026961
      4.24623      3.40282     12.60244         0.001203      0.003490      0.026961
      5.50244      5.37858      9.47437         0.000043      0.003489      0.027480
      8.11851      3.30452      9.47437         0.003000     -0.001782      0.027480
      5.01428      2.07596      9.47437        -0.003043     -0.001707      0.027480
 -----------------------------------------------------------------------------------
    total drift:                                0.000043     -0.000036      0.006901


--------------------------------------------------------------------------------------------------------



  FREE ENERGIE OF THE ION-ELECTRON SYSTEM (eV)
  ---------------------------------------------------
  free  energy   TOTEN  =       -37.67196778 eV

  energy  without entropy=      -37.67196778  energy(sigma->0) =      -37.67196778

 d Force = 0.1625579E-03[ 0.542E-04, 0.271E-03]  d Energy = 0.2936583E-03-0.131E-03
 d Force =-0.1214752E+01[-0.121E+01,-0.122E+01]  d Ewald  = 0.2888199E+01-0.410E+01


--------------------------------------------------------------------------------------------------------


    POTLOK:  cpu time   51.3960: real time   51.6353


--------------------------------------------------------------------------------------------------------




--------------------------------------------------------------------------------------------------------


  
 reached required accuracy - stopping structural energy minimisation
     LOOP+:  cpu time  440.4200: real time  443.2930
    4ORBIT:  cpu time    0.0000: real time    0.0000



 total charge     

# of ion       s       p       d       tot
------------------------------------------
    1        0.391   0.431   8.332   9.153
    2        0.391   0.431   8.329   9.151
    3        1.158   1.160   0.099   2.418
    4        0.755   0.861   0.000   1.616
    5        1.490   2.254   0.044   3.787
    6        1.484   2.317   0.045   3.846
    7        1.488   2.274   0.044   3.805
    8        1.496   2.221   0.043   3.761
    9        1.493   2.285   0.042   3.820
   10        1.495   2.237   0.043   3.774
--------------------------------------------------
tot         11.641  16.470  17.022  45.132



 magnetization (x)

# of ion       s       p       d       tot
------------------------------------------
    1       -0.001  -0.001   0.546   0.545
    2       -0.001  -0.001   0.546   0.544
    3        0.004   0.009   0.003   0.016
    4        0.003   0.001   0.000   0.004
    5        0.006   0.053   0.001   0.061
    6        0.008   0.070   0.002   0.080
    7        0.006   0.062   0.002   0.070
    8        0.008   0.052   0.001   0.061
    9        0.009   0.069   0.002   0.080
   10        0.007   0.061   0.001   0.069
--------------------------------------------------
tot          0.050   0.377   1.105   1.531

 BZINTS: Fermi energy: -2.619163; 64.000000 electrons
         Band energy:-490.146670;  BLOECHL correction: -0.015387

 total amount of memory used by VASP MPI-rank0   132350. kBytes
=======================================================================

   base      :      30000. kBytes
   nonlr-proj:       9850. kBytes
   fftplans  :      11247. kBytes
   grid      :      68332. kBytes
   one-center:        311. kBytes
   wavefun   :      12610. kBytes

  
  
 General timing and accounting informations for this job:
 ========================================================
  
                  Total CPU time used (sec):    10067.492
                            User time (sec):     9847.508
                          System time (sec):      219.984
                         Elapsed time (sec):    10130.975
  
                   Maximum memory used (kb):      386120.
                   Average memory used (kb):           0.
  
                          Minor page faults:      8795238
                          Major page faults:            9
                 Voluntary context switches:         1033
