       N       E                     dE             d eps       ncg     rms          rms(c)
DAV:   1     0.425545983615E+03    0.42555E+03   -0.20050E+04   960   0.965E+02
DAV:   2     0.361674627571E+02   -0.38938E+03   -0.36606E+03  1456   0.201E+02
DAV:   3    -0.398761399816E+02   -0.76044E+02   -0.72313E+02  1200   0.803E+01
DAV:   4    -0.429086824954E+02   -0.30325E+01   -0.30135E+01  1168   0.216E+01
DAV:   5    -0.429994219910E+02   -0.90739E-01   -0.90727E-01  1328   0.394E+00    0.460E+01
DAV:   6    -0.104595099081E+03   -0.61596E+02   -0.78601E+02  1296   0.204E+02    0.675E+01
DAV:   7    -0.529632227999E+02    0.51632E+02   -0.74266E+01  1120   0.517E+01    0.354E+01
DAV:   8    -0.386945265809E+02    0.14269E+02   -0.16441E+01  1264   0.357E+01    0.237E+01
DAV:   9    -0.348026635372E+02    0.38919E+01   -0.51318E+00  1248   0.279E+01    0.880E+00
DAV:  10    -0.348129886793E+02   -0.10325E-01   -0.15105E+00  1264   0.513E+00    0.773E+00
DAV:  11    -0.348311161282E+02   -0.18127E-01   -0.38502E-02  1392   0.123E+00    0.781E+00
DAV:  12    -0.349916186570E+02   -0.16050E+00   -0.29260E-01  1376   0.465E+00    0.764E+00
DAV:  13    -0.350058643257E+02   -0.14246E-01   -0.33444E-01  1296   0.867E+00    0.665E+00
DAV:  14    -0.349217678049E+02    0.84097E-01   -0.26293E-01  1152   0.722E+00    0.451E+00
DAV:  15    -0.349175810830E+02    0.41867E-02   -0.51225E-01  1216   0.100E+01    0.272E+00
DAV:  16    -0.349061764650E+02    0.11405E-01   -0.18206E-01  1152   0.307E+00    0.152E+00
DAV:  17    -0.349962031066E+02   -0.90027E-01   -0.25863E-01  1280   0.555E+00    0.214E+00
DAV:  18    -0.349766109752E+02    0.19592E-01   -0.14355E-01  1184   0.409E+00    0.637E-01
DAV:  19    -0.350127368158E+02   -0.36126E-01   -0.81829E-02  1360   0.325E+00    0.168E+00
DAV:  20    -0.350057393012E+02    0.69975E-02   -0.32094E-02  1376   0.216E+00    0.618E-01
DAV:  21    -0.350059253817E+02   -0.18608E-03   -0.10418E-02  1456   0.694E-01    0.393E-01
DAV:  22    -0.350095842181E+02   -0.36588E-02   -0.44935E-03  1408   0.578E-01    0.518E-01
DAV:  23    -0.350093837903E+02    0.20043E-03   -0.15044E-03  1296   0.465E-01    0.288E-01
DAV:  24    -0.350100711975E+02   -0.68741E-03   -0.12528E-03  1392   0.357E-01    0.102E-01
DAV:  25    -0.350107581396E+02   -0.68694E-03   -0.58024E-04  1152   0.175E-01    0.336E-02
DAV:  26    -0.350109404073E+02   -0.18227E-03   -0.23479E-04  1088   0.783E-02    0.316E-02
DAV:  27    -0.350109684477E+02   -0.28040E-04   -0.58558E-05   880   0.535E-02
   1 F= -.35010968E+02 E0= -.35010968E+02  d E =-.350110E+02  mag=     2.9989
       N       E                     dE             d eps       ncg     rms          rms(c)
DAV:   1    -0.158882581635E+03   -0.12387E+03   -0.12854E+03  1296   0.292E+02    0.108E+02
DAV:   2    -0.360041204812E+03   -0.20116E+03   -0.25958E+03  1520   0.350E+02    0.661E+01
DAV:   3    -0.772835579338E+02    0.28276E+03   -0.66358E+02  1216   0.140E+02    0.381E+01
DAV:   4    -0.522505197073E+02    0.25033E+02   -0.40495E+02  1392   0.266E+02    0.449E+01
DAV:   5    -0.426080689915E+02    0.96425E+01   -0.79158E+01  1408   0.553E+01    0.768E+00
DAV:   6    -0.426457014711E+02   -0.37632E-01   -0.55448E+00  1472   0.145E+01    0.103E+01
DAV:   7    -0.429408484046E+02   -0.29515E+00   -0.46155E+00  1504   0.196E+01    0.120E+01
DAV:   8    -0.424531761679E+02    0.48767E+00   -0.27032E+00  1424   0.127E+01    0.267E+00
DAV:   9    -0.423434538503E+02    0.10972E+00   -0.35162E-01  1264   0.486E+00    0.212E+00
DAV:  10    -0.423725649430E+02   -0.29111E-01   -0.87406E-02  1280   0.220E+00    0.302E+00
DAV:  11    -0.423467781856E+02    0.25787E-01   -0.21488E-02  1264   0.173E+00    0.297E+00
DAV:  12    -0.423844371103E+02   -0.37659E-01   -0.18209E-02  1248   0.150E+00    0.331E+00
DAV:  13    -0.423842268157E+02    0.21029E-03   -0.23786E-03  1200   0.402E-01    0.355E+00
DAV:  14    -0.423662352318E+02    0.17992E-01   -0.19582E-02  1216   0.183E+00    0.307E+00
DAV:  15    -0.423493003468E+02    0.16935E-01   -0.21803E-02  1376   0.142E+00    0.293E+00
DAV:  16    -0.423515238871E+02   -0.22235E-02   -0.68141E-03  1152   0.803E-01    0.284E+00
DAV:  17    -0.423562402386E+02   -0.47164E-02   -0.11709E-03  1152   0.354E-01    0.274E+00
DAV:  18    -0.423594558043E+02   -0.32156E-02   -0.55777E-04  1120   0.202E-01    0.281E+00
DAV:  19    -0.423613138136E+02   -0.18580E-02   -0.36282E-04   912   0.135E-01    0.288E+00
DAV:  20    -0.423633409037E+02   -0.20271E-02   -0.37958E-04   976   0.207E-01    0.289E+00
DAV:  21    -0.423663220551E+02   -0.29812E-02   -0.48123E-04   992   0.218E-01    0.293E+00
DAV:  22    -0.423686019199E+02   -0.22799E-02   -0.39192E-04   944   0.170E-01    0.298E+00
DAV:  23    -0.423715921266E+02   -0.29902E-02   -0.43770E-04  1024   0.168E-01    0.302E+00
DAV:  24    -0.423745660712E+02   -0.29739E-02   -0.30611E-04  1008   0.179E-01    0.303E+00
DAV:  25    -0.423755052802E+02   -0.93921E-03   -0.16468E-04   848   0.990E-02    0.305E+00
DAV:  26    -0.423744544112E+02    0.10509E-02   -0.76278E-04   848   0.147E-01    0.307E+00
DAV:  27    -0.423746760091E+02   -0.22160E-03   -0.10159E-03   848   0.166E-01    0.306E+00
DAV:  28    -0.423763179871E+02   -0.16420E-02   -0.18300E-04   816   0.108E-01    0.305E+00
DAV:  29    -0.423843245615E+02   -0.80066E-02   -0.13212E-03  1200   0.414E-01    0.294E+00
DAV:  30    -0.423899808598E+02   -0.56563E-02   -0.11403E-03  1040   0.283E-01    0.278E+00
DAV:  31    -0.424002799945E+02   -0.10299E-01   -0.14254E-03  1152   0.469E-01    0.244E+00
DAV:  32    -0.424028767011E+02   -0.25967E-02   -0.74876E-04  1056   0.225E-01    0.232E+00
DAV:  33    -0.424093818619E+02   -0.65052E-02   -0.92832E-04  1040   0.408E-01    0.203E+00
DAV:  34    -0.424206688995E+02   -0.11287E-01   -0.39721E-03  1280   0.798E-01    0.141E+00
DAV:  35    -0.424304788393E+02   -0.98099E-02   -0.46731E-03  1248   0.803E-01    0.807E-01
DAV:  36    -0.424320774024E+02   -0.15986E-02   -0.17285E-03  1264   0.322E-01    0.627E-01
DAV:  37    -0.424323619069E+02   -0.28450E-03   -0.13492E-04   720   0.146E-01    0.547E-01
DAV:  38    -0.424324485331E+02   -0.86626E-04   -0.36352E-04   944   0.272E-01
   2 F= -.42432449E+02 E0= -.42432449E+02  d E =-.742148E+01  mag=     2.9700
       N       E                     dE             d eps       ncg     rms          rms(c)
DAV:   1    -0.431153745069E+02   -0.68301E+00   -0.90706E+00  1216   0.280E+01    0.714E+00
DAV:   2    -0.445552755663E+02   -0.14399E+01   -0.12357E+01  1168   0.506E+01    0.143E+01
DAV:   3    -0.424588860511E+02    0.20964E+01   -0.43146E+00  1088   0.436E+01    0.151E+00
DAV:   4    -0.425306457749E+02   -0.71760E-01   -0.92653E-01  1328   0.618E+00    0.254E+00
DAV:   5    -0.424841499936E+02    0.46496E-01   -0.22793E-01  1184   0.653E+00    0.120E+00
DAV:   6    -0.424760118985E+02    0.81381E-02   -0.77879E-02  1264   0.372E+00    0.489E-01
DAV:   7    -0.424753696054E+02    0.64229E-03   -0.95623E-03  1312   0.106E+00    0.109E-01
DAV:   8    -0.424755892673E+02   -0.21966E-03   -0.11707E-03  1184   0.248E-01    0.614E-02
DAV:   9    -0.424754914372E+02    0.97830E-04   -0.20652E-04   944   0.117E-01
   3 F= -.42475491E+02 E0= -.42475491E+02  d E =-.746452E+01  mag=     2.9173
       N       E                     dE             d eps       ncg     rms          rms(c)
DAV:   1    -0.424996297002E+02   -0.24040E-01   -0.28394E-01  1120   0.503E+00    0.129E+00
DAV:   2    -0.425444912816E+02   -0.44862E-01   -0.38521E-01  1024   0.105E+01    0.247E+00
DAV:   3    -0.424820806177E+02    0.62411E-01   -0.18517E-01   992   0.735E+00    0.279E-01
DAV:   4    -0.424800423079E+02    0.20383E-02   -0.15146E-02  1232   0.679E-01    0.347E-01
DAV:   5    -0.424796988240E+02    0.34348E-03   -0.57022E-03  1168   0.114E+00    0.293E-01
DAV:   6    -0.424818957082E+02   -0.21969E-02   -0.29887E-03  1056   0.802E-01    0.791E-02
DAV:   7    -0.424818251607E+02    0.70548E-04   -0.30569E-04   800   0.163E-01
   4 F= -.42481825E+02 E0= -.42481825E+02  d E =-.747086E+01  mag=     2.9320
       N       E                     dE             d eps       ncg     rms          rms(c)
DAV:   1    -0.425829354011E+02   -0.10104E+00   -0.12006E+01   960   0.128E+01    0.116E+00
DAV:   2    -0.426578328905E+02   -0.74897E-01   -0.88674E-01  1232   0.658E+00    0.132E+00
DAV:   3    -0.426473302772E+02    0.10503E-01   -0.13602E-01  1168   0.578E+00    0.732E-01
DAV:   4    -0.426395498458E+02    0.77804E-02   -0.18144E-02  1120   0.162E+00    0.283E-01
DAV:   5    -0.426399721064E+02   -0.42226E-03   -0.12999E-02  1376   0.124E+00    0.363E-01
DAV:   6    -0.426394643566E+02    0.50775E-03   -0.12713E-02  1472   0.162E+00    0.214E-01
DAV:   7    -0.426391898992E+02    0.27446E-03   -0.20671E-03  1040   0.611E-01    0.461E-02
DAV:   8    -0.426392431374E+02   -0.53238E-04   -0.21905E-04   816   0.956E-02
   5 F= -.42639243E+02 E0= -.42639243E+02  d E =-.157418E+00  mag=     2.9324
       N       E                     dE             d eps       ncg     rms          rms(c)
DAV:   1    -0.426364401332E+02    0.27498E-02   -0.72071E+00   960   0.997E+00    0.902E-01
DAV:   2    -0.426816813777E+02   -0.45241E-01   -0.54076E-01  1280   0.523E+00    0.105E+00
DAV:   3    -0.426725025537E+02    0.91788E-02   -0.84166E-02  1120   0.454E+00    0.563E-01
DAV:   4    -0.426695670551E+02    0.29355E-02   -0.10887E-02  1184   0.121E+00    0.222E-01
DAV:   5    -0.426693996923E+02    0.16736E-03   -0.53952E-03  1360   0.474E-01    0.115E-01
DAV:   6    -0.426697800730E+02   -0.38038E-03   -0.38419E-03  1200   0.894E-01    0.204E-01
DAV:   7    -0.426694273865E+02    0.35269E-03   -0.19304E-03  1088   0.649E-01    0.414E-02
DAV:   8    -0.426694970706E+02   -0.69684E-04   -0.12579E-04   672   0.920E-02
   6 F= -.42669497E+02 E0= -.42669497E+02  d E =-.187672E+00  mag=     2.9261
       N       E                     dE             d eps       ncg     rms          rms(c)
DAV:   1    -0.426694777927E+02   -0.50406E-04   -0.19758E-01  1104   0.169E+00    0.155E-01
DAV:   2    -0.426705089898E+02   -0.10312E-02   -0.15000E-02  1248   0.961E-01    0.197E-01
DAV:   3    -0.426703941183E+02    0.11487E-03   -0.25897E-03  1056   0.795E-01    0.902E-02
DAV:   4    -0.426703726755E+02    0.21443E-04   -0.31694E-04   848   0.195E-01
   7 F= -.42670373E+02 E0= -.42670373E+02  d E =-.188548E+00  mag=     2.9255
       N       E                     dE             d eps       ncg     rms          rms(c)
DAV:   1    -0.428283104735E+02   -0.15792E+00   -0.61973E+00  1296   0.160E+01    0.351E+00
DAV:   2    -0.431579672629E+02   -0.32966E+00   -0.28784E+00  1184   0.289E+01    0.625E+00
DAV:   3    -0.427118025859E+02    0.44616E+00   -0.14119E+00  1136   0.183E+01    0.104E+00
DAV:   4    -0.427380405771E+02   -0.26238E-01   -0.32061E-01  1392   0.736E+00    0.195E+00
DAV:   5    -0.427066303933E+02    0.31410E-01   -0.16523E-01  1296   0.587E+00    0.499E-01
DAV:   6    -0.427022905276E+02    0.43399E-02   -0.11014E-02  1168   0.128E+00    0.118E-01
DAV:   7    -0.427012373278E+02    0.10532E-02   -0.26714E-03  1296   0.267E-01    0.880E-02
DAV:   8    -0.427015267262E+02   -0.28940E-03   -0.46964E-04   976   0.298E-01    0.380E-02
DAV:   9    -0.427016446522E+02   -0.11793E-03   -0.11522E-04   816   0.811E-02    0.250E-02
DAV:  10    -0.427016178935E+02    0.26759E-04   -0.38622E-05   768   0.355E-02
   8 F= -.42701618E+02 E0= -.42701618E+02  d E =-.312452E-01  mag=     2.9841
       N       E                     dE             d eps       ncg     rms          rms(c)
DAV:   1    -0.427014671221E+02    0.17753E-03   -0.94202E-04  1120   0.195E-01    0.460E-02
DAV:   2    -0.427019191903E+02   -0.45207E-03   -0.45840E-04   928   0.341E-01    0.795E-02
DAV:   3    -0.427015522804E+02    0.36691E-03   -0.22298E-04   832   0.270E-01    0.162E-02
DAV:   4    -0.427015124981E+02    0.39782E-04   -0.54824E-05   736   0.955E-02
   9 F= -.42701512E+02 E0= -.42701512E+02  d E =-.311398E-01  mag=     2.9894
       N       E                     dE             d eps       ncg     rms          rms(c)
DAV:   1    -0.427238483275E+02   -0.22296E-01   -0.35221E+00   960   0.863E+00    0.144E+00
DAV:   2    -0.427835744077E+02   -0.59726E-01   -0.55284E-01  1152   0.104E+01    0.245E+00
DAV:   3    -0.427177214204E+02    0.65853E-01   -0.21305E-01   976   0.844E+00    0.463E-01
DAV:   4    -0.427188320827E+02   -0.11107E-02   -0.28770E-02  1072   0.777E-01    0.414E-01
DAV:   5    -0.427181323771E+02    0.69971E-03   -0.10436E-02  1024   0.160E+00    0.342E-01
DAV:   6    -0.427174501722E+02    0.68220E-03   -0.91164E-03  1104   0.144E+00    0.149E-01
DAV:   7    -0.427174616087E+02   -0.11437E-04   -0.13469E-03  1216   0.470E-01    0.277E-02
DAV:   8    -0.427175233775E+02   -0.61769E-04   -0.78443E-05   736   0.644E-02
  10 F= -.42717523E+02 E0= -.42717523E+02  d E =-.160109E-01  mag=     2.9945
       N       E                     dE             d eps       ncg     rms          rms(c)
DAV:   1    -0.427176409775E+02   -0.17937E-03   -0.13882E-02   960   0.551E-01    0.928E-02
DAV:   2    -0.427177876625E+02   -0.14668E-03   -0.21468E-03  1088   0.666E-01    0.146E-01
DAV:   3    -0.427175509540E+02    0.23671E-03   -0.88436E-04   912   0.525E-01    0.333E-02
DAV:   4    -0.427176066951E+02   -0.55741E-04   -0.95887E-05   640   0.555E-02
  11 F= -.42717607E+02 E0= -.42717607E+02  d E =-.160942E-01  mag=     2.9966
       N       E                     dE             d eps       ncg     rms          rms(c)
DAV:   1    -0.427576885302E+02   -0.40138E-01   -0.15336E+00  1248   0.669E+00    0.147E+00
DAV:   2    -0.427954121990E+02   -0.37724E-01   -0.47473E-01  1168   0.109E+01    0.242E+00
DAV:   3    -0.427291366009E+02    0.66276E-01   -0.21698E-01  1184   0.796E+00    0.481E-01
DAV:   4    -0.427301210367E+02   -0.98444E-03   -0.51890E-02  1328   0.257E+00    0.739E-01
DAV:   5    -0.427258891487E+02    0.42319E-02   -0.30759E-02  1296   0.263E+00    0.289E-01
DAV:   6    -0.427247746459E+02    0.11145E-02   -0.40630E-03  1120   0.921E-01    0.619E-02
DAV:   7    -0.427246218327E+02    0.15281E-03   -0.83324E-04   976   0.169E-01    0.322E-02
DAV:   8    -0.427245991877E+02    0.22645E-04   -0.80863E-05   752   0.946E-02
  12 F= -.42724599E+02 E0= -.42724599E+02  d E =-.699249E-02  mag=     2.9984
       N       E                     dE             d eps       ncg     rms          rms(c)
DAV:   1    -0.427362573589E+02   -0.11636E-01   -0.56394E-01  1264   0.401E+00    0.871E-01
DAV:   2    -0.427486286834E+02   -0.12371E-01   -0.16883E-01  1088   0.639E+00    0.142E+00
DAV:   3    -0.427251880455E+02    0.23441E-01   -0.75592E-02  1040   0.480E+00    0.287E-01
DAV:   4    -0.427246101454E+02    0.57790E-03   -0.11435E-02  1040   0.480E-01    0.218E-01
DAV:   5    -0.427242028252E+02    0.40732E-03   -0.36432E-03  1120   0.948E-01    0.188E-01
DAV:   6    -0.427238785572E+02    0.32427E-03   -0.23245E-03  1104   0.719E-01    0.607E-02
DAV:   7    -0.427238647713E+02    0.13786E-04   -0.25529E-04   688   0.190E-01
  13 F= -.42723865E+02 E0= -.42723865E+02  d E =-.625808E-02  mag=     2.9993
       N       E                     dE             d eps       ncg     rms          rms(c)
DAV:   1    -0.427542611867E+02   -0.30383E-01   -0.14681E+00  1296   0.695E+00    0.148E+00
DAV:   2    -0.428051405135E+02   -0.50879E-01   -0.50667E-01  1088   0.118E+01    0.260E+00
DAV:   3    -0.427281228945E+02    0.77018E-01   -0.23159E-01   992   0.825E+00    0.354E-01
DAV:   4    -0.427287652507E+02   -0.64236E-03   -0.25787E-02  1248   0.795E-01    0.315E-01
DAV:   5    -0.427284160900E+02    0.34916E-03   -0.76550E-03  1056   0.138E+00    0.307E-01
DAV:   6    -0.427275982201E+02    0.81787E-03   -0.44290E-03  1056   0.101E+00    0.672E-02
DAV:   7    -0.427278418490E+02   -0.24363E-03   -0.72123E-04  1200   0.187E-01    0.302E-02
DAV:   8    -0.427277769737E+02    0.64875E-04   -0.93178E-05   640   0.110E-01
  14 F= -.42727777E+02 E0= -.42727777E+02  d E =-.391220E-02  mag=     2.9994
       N       E                     dE             d eps       ncg     rms          rms(c)
DAV:   1    -0.428522086050E+02   -0.12437E+00   -0.77328E+00  1296   0.160E+01    0.342E+00
DAV:   2    -0.431426310700E+02   -0.29042E+00   -0.26552E+00  1216   0.278E+01    0.602E+00
DAV:   3    -0.427307046553E+02    0.41193E+00   -0.12563E+00  1008   0.175E+01    0.826E-01
DAV:   4    -0.427284261339E+02    0.22785E-02   -0.12896E-01  1200   0.172E+00    0.446E-01
DAV:   5    -0.427268082198E+02    0.16179E-02   -0.74205E-03  1264   0.111E+00    0.235E-01
DAV:   6    -0.427273321217E+02   -0.52390E-03   -0.11676E-02  1280   0.161E+00    0.347E-01
DAV:   7    -0.427265505417E+02    0.78158E-03   -0.59174E-03  1312   0.108E+00    0.563E-02
DAV:   8    -0.427267854808E+02   -0.23494E-03   -0.45625E-04   960   0.147E-01    0.332E-02
DAV:   9    -0.427267951422E+02   -0.96614E-05   -0.10483E-04   672   0.834E-02
  15 F= -.42726795E+02 E0= -.42726795E+02  d E =-.293037E-02  mag=     2.9978
       N       E                     dE             d eps       ncg     rms          rms(c)
DAV:   1    -0.427286671288E+02   -0.18816E-02   -0.20167E-01   960   0.180E+00    0.239E-01
DAV:   2    -0.427290975449E+02   -0.43042E-03   -0.12711E-02  1152   0.155E+00    0.358E-01
DAV:   3    -0.427276002117E+02    0.14973E-02   -0.53527E-03   976   0.127E+00    0.959E-02
DAV:   4    -0.427277957431E+02   -0.19553E-03   -0.74521E-04  1200   0.294E-01    0.732E-02
DAV:   5    -0.427278564816E+02   -0.60739E-04   -0.88974E-04   992   0.464E-01
  16 F= -.42727856E+02 E0= -.42727856E+02  d E =-.106134E-02  mag=     2.9988
       N       E                     dE             d eps       ncg     rms          rms(c)
DAV:   1    -0.427346058467E+02   -0.68101E-02   -0.18164E+00   960   0.559E+00    0.760E-01
DAV:   2    -0.427444763176E+02   -0.98705E-02   -0.12461E-01  1168   0.499E+00    0.113E+00
DAV:   3    -0.427313243210E+02    0.13152E-01   -0.53415E-02   976   0.395E+00    0.297E-01
DAV:   4    -0.427315392006E+02   -0.21488E-03   -0.65686E-03  1264   0.804E-01    0.191E-01
DAV:   5    -0.427321267267E+02   -0.58753E-03   -0.73210E-03  1216   0.131E+00    0.300E-01
DAV:   6    -0.427317891193E+02    0.33761E-03   -0.43069E-03  1168   0.971E-01    0.461E-02
DAV:   7    -0.427321714205E+02   -0.38230E-03   -0.31257E-04   832   0.134E-01    0.215E-02
DAV:   8    -0.427319789166E+02    0.19250E-03   -0.52152E-05   736   0.615E-02    0.169E-02
DAV:   9    -0.427315812066E+02    0.39771E-03   -0.80902E-05   832   0.355E-02    0.159E-02
DAV:  10    -0.427310671316E+02    0.51407E-03   -0.25956E-04   896   0.713E-02    0.171E-02
DAV:  11    -0.427301459160E+02    0.92122E-03   -0.48386E-04  1024   0.823E-02    0.178E-02
DAV:  12    -0.427291232011E+02    0.10227E-02   -0.22173E-04   944   0.756E-02    0.104E-02
DAV:  13    -0.427288450479E+02    0.27815E-03   -0.49961E-05   768   0.421E-02    0.819E-03
DAV:  14    -0.427291423667E+02   -0.29732E-03   -0.87256E-05   848   0.413E-02    0.641E-03
DAV:  15    -0.427295267914E+02   -0.38442E-03   -0.15357E-04   912   0.425E-02    0.578E-03
DAV:  16    -0.427297733060E+02   -0.24651E-03   -0.77788E-05   816   0.298E-02    0.337E-03
DAV:  17    -0.427300027599E+02   -0.22945E-03   -0.98174E-05   800   0.341E-02    0.217E-03
DAV:  18    -0.427300684229E+02   -0.65663E-04   -0.30499E-05   736   0.274E-02
  17 F= -.42730068E+02 E0= -.42730068E+02  d E =-.327328E-02  mag=     3.0000
       N       E                     dE             d eps       ncg     rms          rms(c)
DAV:   1    -0.427457650656E+02   -0.15762E-01   -0.73401E+00   960   0.114E+01    0.155E+00
DAV:   2    -0.427926891391E+02   -0.46924E-01   -0.51569E-01  1216   0.104E+01    0.236E+00
DAV:   3    -0.427392122607E+02    0.53477E-01   -0.22203E-01  1040   0.783E+00    0.557E-01
DAV:   4    -0.427360555778E+02    0.31567E-02   -0.21837E-02  1216   0.122E+00    0.238E-01
DAV:   5    -0.427353511175E+02    0.70446E-03   -0.37098E-03  1344   0.434E-01    0.796E-02
DAV:   6    -0.427356258124E+02   -0.27469E-03   -0.16269E-03  1088   0.495E-01    0.123E-01
DAV:   7    -0.427355135231E+02    0.11229E-03   -0.10471E-03   944   0.500E-01    0.535E-02
DAV:   8    -0.427354910437E+02    0.22479E-04   -0.13514E-04   720   0.155E-01
  18 F= -.42735491E+02 E0= -.42735491E+02  d E =-.869590E-02  mag=     2.9987
       N       E                     dE             d eps       ncg     rms          rms(c)
DAV:   1    -0.427507849859E+02   -0.15271E-01   -0.25375E-01  1280   0.361E+00    0.854E-01
DAV:   2    -0.427747943655E+02   -0.24009E-01   -0.17223E-01  1040   0.664E+00    0.164E+00
DAV:   3    -0.427435272083E+02    0.31267E-01   -0.76385E-02   960   0.516E+00    0.191E-01
DAV:   4    -0.427431870681E+02    0.34014E-03   -0.89613E-03  1184   0.526E-01    0.275E-01
DAV:   5    -0.427432138674E+02   -0.26799E-04   -0.23809E-03  1120   0.732E-01    0.126E-01
DAV:   6    -0.427432888036E+02   -0.74936E-04   -0.10048E-03   944   0.466E-01    0.622E-02
DAV:   7    -0.427435192632E+02   -0.23046E-03   -0.17175E-04   688   0.168E-01    0.122E-02
DAV:   8    -0.427435910999E+02   -0.71837E-04   -0.59820E-05   752   0.450E-02
  19 F= -.42743591E+02 E0= -.42743591E+02  d E =-.810006E-02  mag=     2.9974
       N       E                     dE             d eps       ncg     rms          rms(c)
DAV:   1    -0.427466084819E+02   -0.30892E-02   -0.47903E-02  1232   0.159E+00    0.370E-01
DAV:   2    -0.427534785219E+02   -0.68700E-02   -0.32313E-02  1008   0.291E+00    0.704E-01
DAV:   3    -0.427462318921E+02    0.72466E-02   -0.14441E-02   992   0.221E+00    0.783E-02
DAV:   4    -0.427460578214E+02    0.17407E-03   -0.16552E-03  1216   0.217E-01    0.114E-01
DAV:   5    -0.427463443395E+02   -0.28652E-03   -0.38146E-04   992   0.295E-01    0.444E-02
DAV:   6    -0.427464303578E+02   -0.86018E-04   -0.14322E-04   752   0.182E-01
  20 F= -.42746430E+02 E0= -.42746430E+02  d E =-.109393E-01  mag=     2.9969
       N       E                     dE             d eps       ncg     rms          rms(c)
DAV:   1    -0.427540524019E+02   -0.77081E-02   -0.19030E-01  1312   0.315E+00    0.742E-01
DAV:   2    -0.427734688727E+02   -0.19416E-01   -0.12933E-01   976   0.579E+00    0.145E+00
DAV:   3    -0.427502998247E+02    0.23169E-01   -0.56789E-02   976   0.445E+00    0.147E-01
DAV:   4    -0.427498548985E+02    0.44493E-03   -0.69099E-03  1184   0.481E-01    0.240E-01
DAV:   5    -0.427499031297E+02   -0.48231E-04   -0.15796E-03  1104   0.584E-01    0.722E-02
DAV:   6    -0.427500572693E+02   -0.15414E-03   -0.57805E-04   832   0.345E-01    0.677E-02
DAV:   7    -0.427501493993E+02   -0.92130E-04   -0.22172E-04   720   0.211E-01
  21 F= -.42750149E+02 E0= -.42750149E+02  d E =-.146584E-01  mag=     2.9918
       N       E                     dE             d eps       ncg     rms          rms(c)
DAV:   1    -0.427529366152E+02   -0.28793E-02   -0.98682E-02  1088   0.125E+00    0.154E-01
DAV:   2    -0.427524498228E+02    0.48679E-03   -0.47416E-03  1152   0.597E-01    0.138E-01
DAV:   3    -0.427527973242E+02   -0.34750E-03   -0.13390E-03   976   0.586E-01    0.104E-01
DAV:   4    -0.427525933553E+02    0.20397E-03   -0.29267E-04   848   0.278E-01    0.330E-02
DAV:   5    -0.427526648191E+02   -0.71464E-04   -0.18369E-04   688   0.154E-01
  22 F= -.42752665E+02 E0= -.42752665E+02  d E =-.251542E-02  mag=     2.9910
       N       E                     dE             d eps       ncg     rms          rms(c)
DAV:   1    -0.427564988566E+02   -0.39055E-02   -0.88730E-01   960   0.377E+00    0.458E-01
DAV:   2    -0.427563850622E+02    0.11379E-03   -0.42410E-02  1152   0.175E+00    0.406E-01
DAV:   3    -0.427569931839E+02   -0.60812E-03   -0.13510E-02  1008   0.186E+00    0.345E-01
DAV:   4    -0.427561734994E+02    0.81968E-03   -0.89517E-03  1056   0.151E+00    0.289E-01
DAV:   5    -0.427554742673E+02    0.69923E-03   -0.80110E-03  1056   0.138E+00    0.192E-01
DAV:   6    -0.427552688290E+02    0.20544E-03   -0.19223E-03  1152   0.591E-01    0.296E-02
DAV:   7    -0.427553123900E+02   -0.43561E-04   -0.13029E-04   784   0.811E-02
  23 F= -.42755312E+02 E0= -.42755312E+02  d E =-.516299E-02  mag=     2.9883
       N       E                     dE             d eps       ncg     rms          rms(c)
DAV:   1    -0.427577770441E+02   -0.25082E-02   -0.10114E-01  1152   0.203E+00    0.456E-01
DAV:   2    -0.427655241065E+02   -0.77471E-02   -0.46681E-02  1072   0.353E+00    0.876E-01
DAV:   3    -0.427567098547E+02    0.88143E-02   -0.21010E-02  1056   0.270E+00    0.913E-02
DAV:   4    -0.427565539447E+02    0.15591E-03   -0.24762E-03  1376   0.323E-01    0.141E-01
DAV:   5    -0.427566612059E+02   -0.10726E-03   -0.12180E-03  1024   0.528E-01    0.131E-01
DAV:   6    -0.427566855899E+02   -0.24384E-04   -0.61747E-04   864   0.380E-01
  24 F= -.42756686E+02 E0= -.42756686E+02  d E =-.137320E-02  mag=     2.9833
       N       E                     dE             d eps       ncg     rms          rms(c)
DAV:   1    -0.427568689153E+02   -0.20771E-03   -0.93913E-04  1024   0.166E-01    0.401E-02
DAV:   2    -0.427571409633E+02   -0.27205E-03   -0.30825E-04   864   0.281E-01    0.693E-02
DAV:   3    -0.427570088220E+02    0.13214E-03   -0.17101E-04   784   0.232E-01    0.137E-02
DAV:   4    -0.427570263701E+02   -0.17548E-04   -0.49175E-05   672   0.364E-02
  25 F= -.42757026E+02 E0= -.42757026E+02  d E =-.171398E-02  mag=     2.9810
