 vasp.5.4.4.18Apr17-6-g9f103f2a35 (build May  1 2020 15:48:39) complex           
 executed on             LinuxGNU date 2020.06.21  23:31:46
 running on   16 total cores
 distrk:  each k-point on   16 cores,    1 groups
 distr:  one band on NCORES_PER_BAND=   1 cores,   16 groups


--------------------------------------------------------------------------------------------------------


 INCAR:
 POTCAR:   PAW_PBE Ni 06Sep2000                   
 POTCAR:    PAW_PBE P 17Jan2003                   
 POTCAR:   PAW_PBE Ge 05Jan2001                   
 POTCAR:    PAW_PBE S 17Jan2003                   

 ----------------------------------------------------------------------------- 
|                                                                             |
|           W    W    AA    RRRRR   N    N  II  N    N   GGGG   !!!           |
|           W    W   A  A   R    R  NN   N  II  NN   N  G    G  !!!           |
|           W    W  A    A  R    R  N N  N  II  N N  N  G       !!!           |
|           W WW W  AAAAAA  RRRRR   N  N N  II  N  N N  G  GGG   !            |
|           WW  WW  A    A  R   R   N   NN  II  N   NN  G    G                |
|           W    W  A    A  R    R  N    N  II  N    N   GGGG   !!!           |
|                                                                             |
|      For optimal performance we recommend to set                            |
|        NCORE= 4 - approx SQRT( number of cores)                             |
|      NCORE specifies how many cores store one orbital (NPAR=cpu/NCORE).     |
|      This setting can  greatly improve the performance of VASP for DFT.     |
|      The default,   NCORE=1            might be grossly inefficient         |
|      on modern multi-core architectures or massively parallel machines.     |
|      Do your own testing !!!!                                               |
|      Unfortunately you need to use the default for GW and RPA calculations. |
|      (for HF NCORE is supported but not extensively tested yet)             |
|                                                                             |
 ----------------------------------------------------------------------------- 


 ----------------------------------------------------------------------------- 
|                                                                             |
|  ADVICE TO THIS USER RUNNING 'VASP/VAMP'   (HEAR YOUR MASTER'S VOICE ...):  |
|                                                                             |
|      You have switched on vdW-DFT.                                          |
|      This routine was written and supplied by Jiri Klimes.                  |
|      We recommed that you carefully read and cite the following             |
|      publication                                                            |
|      J. Klimes, D.R. Bowler, A. Michelides                                  |
|        J. Phys.: Cond Matt. 22 022201 (2010)                                |
|      J. Klimes, D.R. Bowler, A. Michelides                                  |
|        Phys. Rev. B. 83, 195131 (2011)                                      |
|      and references therein.                                                |
|                                                                             |
 ----------------------------------------------------------------------------- 

 POTCAR:   PAW_PBE Ni 06Sep2000                   
   VRHFIN =Ni:                                                                  
   LEXCH  = PE                                                                  
   EATOM  =  1077.9025 eV,   79.2236 Ry                                         
                                                                                
   TITEL  = PAW_PBE Ni 06Sep2000                                                
   LULTRA =        F    use ultrasoft PP ?                                      
   IUNSCR =        1    unscreen: 0-lin 1-nonlin 2-no                           
   RPACOR =    2.000    partial core radius                                     
   POMASS =   58.690; ZVAL   =   10.000    mass and valenz                      
   RCORE  =    2.300    outmost cutoff radius                                   
   RWIGS  =    2.430; RWIGS  =    1.286    wigner-seitz radius (au A)           
   ENMAX  =  269.533; ENMIN  =  202.150 eV                                      
   RCLOC  =    1.681    cutoff for local pot                                    
   LCOR   =        T    correct aug charges                                     
   LPAW   =        T    paw PP                                                  
   EAUG   =  544.565                                                            
   DEXC   =    -.009                                                            
   RMAX   =    2.808    core radius for proj-oper                               
   RAUG   =    1.300    factor for augmentation sphere                          
   RDEP   =    2.390    radius for radial grids                                 
   QCUT   =   -4.451; QGAM   =    8.902    optimization parameters              
                                                                                
   Description                                                                  
     l     E      TYP  RCUT    TYP  RCUT                                        
     2   .000     23  2.300                                                     
     2   .000     23  2.300                                                     
     0   .000     23  2.300                                                     
     0   .000     23  2.300                                                     
     1  -.200     23  2.300                                                     
     1   .000     23  2.300                                                     
     3   .000      7   .000                                                     
  local pseudopotential read in
  partial core-charges read in
  atomic valenz-charges read in
  non local Contribution for L=           2  read in
    real space projection operators read in
  non local Contribution for L=           2  read in
    real space projection operators read in
  non local Contribution for L=           0  read in
    real space projection operators read in
  non local Contribution for L=           0  read in
    real space projection operators read in
  non local Contribution for L=           1  read in
    real space projection operators read in
  non local Contribution for L=           1  read in
    real space projection operators read in
    PAW grid and wavefunctions read in

   number of l-projection  operators is LMAX  =           6
   number of lm-projection operators is LMMAX =          18

 POTCAR:    PAW_PBE P 17Jan2003                   
   VRHFIN =P : s2p3                                                             
   LEXCH  = PE                                                                  
   EATOM  =   176.0430 eV,   12.9388 Ry                                         
                                                                                
   TITEL  = PAW_PBE P 17Jan2003                                                 
   LULTRA =        F    use ultrasoft PP ?                                      
   IUNSCR =        1    unscreen: 0-lin 1-nonlin 2-no                           
   RPACOR =    1.500    partial core radius                                     
   POMASS =   30.974; ZVAL   =    5.000    mass and valenz                      
   RCORE  =    1.900    outmost cutoff radius                                   
   RWIGS  =    2.330; RWIGS  =    1.233    wigner-seitz radius (au A)           
   ENMAX  =  270.000; ENMIN  =  191.280 eV                                      
   ICORE  =        2    local potential                                         
   LCOR   =        T    correct aug charges                                     
   LPAW   =        T    paw PP                                                  
   EAUG   =  342.924                                                            
   DEXC   =    -.002                                                            
   RMAX   =    2.887    core radius for proj-oper                               
   RAUG   =    1.300    factor for augmentation sphere                          
   RDEP   =    1.931    radius for radial grids                                 
   QCUT   =   -4.330; QGAM   =    8.659    optimization parameters              
                                                                                
   Description                                                                  
     l     E      TYP  RCUT    TYP  RCUT                                        
     0   .000     23  1.900                                                     
     0   .000     23  1.900                                                     
     1   .000     23  1.900                                                     
     1   .000     23  1.900                                                     
     2   .000     23  1.900                                                     
  local pseudopotential read in
  partial core-charges read in
  atomic valenz-charges read in
  non local Contribution for L=           0  read in
    real space projection operators read in
  non local Contribution for L=           0  read in
    real space projection operators read in
  non local Contribution for L=           1  read in
    real space projection operators read in
  non local Contribution for L=           1  read in
    real space projection operators read in
    PAW grid and wavefunctions read in

   number of l-projection  operators is LMAX  =           4
   number of lm-projection operators is LMMAX =           8

 POTCAR:   PAW_PBE Ge 05Jan2001                   
   VRHFIN =Ge: s2p2                                                             
   LEXCH  = PE                                                                  
   EATOM  =   104.9960 eV,    7.7170 Ry                                         
                                                                                
   TITEL  = PAW_PBE Ge 05Jan2001                                                
   LULTRA =        F    use ultrasoft PP ?                                      
   IUNSCR =        1    unscreen: 0-lin 1-nonlin 2-no                           
   RPACOR =    2.170    partial core radius                                     
   POMASS =   72.610; ZVAL   =    4.000    mass and valenz                      
   RCORE  =    2.300    outmost cutoff radius                                   
   RWIGS  =    2.300; RWIGS  =    1.217    wigner-seitz radius (au A)           
   ENMAX  =  173.807; ENMIN  =  130.355 eV                                      
   ICORE  =        3    local potential                                         
   LCOR   =        T    correct aug charges                                     
   LPAW   =        T    paw PP                                                  
   EAUG   =  385.843                                                            
   DEXC   =    -.138                                                            
   RMAX   =    3.497    core radius for proj-oper                               
   RAUG   =    1.300    factor for augmentation sphere                          
   RDEP   =    2.318    radius for radial grids                                 
   QCUT   =   -3.574; QGAM   =    7.148    optimization parameters              
                                                                                
   Description                                                                  
     l     E      TYP  RCUT    TYP  RCUT                                        
     0   .000     23  2.300                                                     
     0   .000     23  2.300                                                     
     1   .000     23  2.300                                                     
     1   .000     23  2.300                                                     
     2   .000     23  2.300                                                     
     3  -.100      7  2.300                                                     
  local pseudopotential read in
  partial core-charges read in
  atomic valenz-charges read in
  non local Contribution for L=           0  read in
    real space projection operators read in
  non local Contribution for L=           0  read in
    real space projection operators read in
  non local Contribution for L=           1  read in
    real space projection operators read in
  non local Contribution for L=           1  read in
    real space projection operators read in
  non local Contribution for L=           2  read in
    real space projection operators read in
    PAW grid and wavefunctions read in

   number of l-projection  operators is LMAX  =           5
   number of lm-projection operators is LMMAX =          13

 POTCAR:    PAW_PBE S 17Jan2003                   
   VRHFIN =S : s2p4                                                             
   LEXCH  = PE                                                                  
   EATOM  =   276.8230 eV,   20.3459 Ry                                         
                                                                                
   TITEL  = PAW_PBE S 17Jan2003                                                 
   LULTRA =        F    use ultrasoft PP ?                                      
   IUNSCR =        1    unscreen: 0-lin 1-nonlin 2-no                           
   RPACOR =    1.500    partial core radius                                     
   POMASS =   32.066; ZVAL   =    6.000    mass and valenz                      
   RCORE  =    1.900    outmost cutoff radius                                   
   RWIGS  =    2.200; RWIGS  =    1.164    wigner-seitz radius (au A)           
   ENMAX  =  280.000; ENMIN  =  194.016 eV                                      
   ICORE  =        2    local potential                                         
   LCOR   =        T    correct aug charges                                     
   LPAW   =        T    paw PP                                                  
   EAUG   =  335.092                                                            
   DEXC   =     .000                                                            
   RMAX   =    2.867    core radius for proj-oper                               
   RAUG   =    1.300    factor for augmentation sphere                          
   RDEP   =    1.954    radius for radial grids                                 
   QCUT   =   -4.360; QGAM   =    8.721    optimization parameters              
                                                                                
   Description                                                                  
     l     E      TYP  RCUT    TYP  RCUT                                        
     0   .000     23  1.900                                                     
     0   .000     23  1.900                                                     
     1   .000     23  1.900                                                     
     1   .000     23  1.900                                                     
     2   .000     23  1.900                                                     
  local pseudopotential read in
  partial core-charges read in
  atomic valenz-charges read in
  non local Contribution for L=           0  read in
    real space projection operators read in
  non local Contribution for L=           0  read in
    real space projection operators read in
  non local Contribution for L=           1  read in
    real space projection operators read in
  non local Contribution for L=           1  read in
    real space projection operators read in
    PAW grid and wavefunctions read in

   number of l-projection  operators is LMAX  =           4
   number of lm-projection operators is LMMAX =           8

 Optimization of the real space projectors (new method)

 maximal supplied QI-value         = 16.25
 optimisation between [QCUT,QGAM] = [ 11.54, 23.24] = [ 37.28,151.24] Ry 
 Optimized for a Real-space Cutoff    1.49 Angstroem

   l    n(q)    QCUT    max X(q) W(low)/X(q) W(high)/X(q)  e(spline) 
   2      9    11.539     4.811    0.20E-04    0.14E-04    0.45E-07
   2      9    11.539    15.146    0.24E-03    0.12E-03    0.20E-06
   0     10    11.539    14.357    0.18E-04    0.12E-05    0.14E-07
   0     10    11.539    43.282    0.39E-04    0.17E-04    0.23E-06
   1     10    11.539     5.514    0.99E-05    0.13E-04    0.19E-07
   1     10    11.539     7.697    0.38E-04    0.79E-04    0.91E-07
 Optimization of the real space projectors (new method)

 maximal supplied QI-value         = 19.84
 optimisation between [QCUT,QGAM] = [ 11.51, 23.22] = [ 37.09,150.92] Ry 
 Optimized for a Real-space Cutoff    1.21 Angstroem

   l    n(q)    QCUT    max X(q) W(low)/X(q) W(high)/X(q)  e(spline) 
   0      8    11.508     6.651    0.19E-04    0.31E-05    0.49E-08
   0      8    11.508    90.285    0.95E-04    0.17E-03    0.51E-07
   1      8    11.508     4.328    0.14E-04    0.32E-04    0.22E-07
   1      8    11.508    54.583    0.16E-03    0.71E-04    0.89E-07
 Optimization of the real space projectors (new method)

 maximal supplied QI-value         = 16.25
 optimisation between [QCUT,QGAM] = [ 11.54, 23.24] = [ 37.28,151.24] Ry 
 Optimized for a Real-space Cutoff    1.28 Angstroem

   l    n(q)    QCUT    max X(q) W(low)/X(q) W(high)/X(q)  e(spline) 
   0      9    11.539     8.651    0.22E-04    0.16E-04    0.10E-07
   0      9    11.539    33.192    0.11E-03    0.16E-03    0.65E-07
   1      8    11.539     5.899    0.37E-04    0.28E-04    0.43E-07
   1      8    11.539    27.289    0.22E-03    0.28E-04    0.14E-06
   2      8    11.539     4.673    0.11E-03    0.18E-03    0.58E-07
 Optimization of the real space projectors (new method)

 maximal supplied QI-value         = 19.84
 optimisation between [QCUT,QGAM] = [ 11.51, 23.22] = [ 37.09,150.92] Ry 
 Optimized for a Real-space Cutoff    1.21 Angstroem

   l    n(q)    QCUT    max X(q) W(low)/X(q) W(high)/X(q)  e(spline) 
   0      8    11.508     5.487    0.18E-04    0.22E-05    0.47E-08
   0      8    11.508    85.627    0.96E-04    0.18E-03    0.54E-07
   1      8    11.508     3.530    0.17E-04    0.28E-04    0.21E-07
   1      8    11.508    42.714    0.18E-03    0.63E-04    0.92E-07

 ----------------------------------------------------------------------------- 
|                                                                             |
|  ADVICE TO THIS USER RUNNING 'VASP/VAMP'   (HEAR YOUR MASTER'S VOICE ...):  |
|                                                                             |
|      You enforced a specific xc-type in the INCAR file,                     |
|      a different type was found on the POTCAR file                          |
|          I HOPE YOU KNOW, WHAT YOU ARE  DOING                               |
|                                                                             |
 ----------------------------------------------------------------------------- 

 PAW_PBE Ni 06Sep2000                   :
 energy of atom  1       EATOM=-1077.9025
 kinetic energy error for atom=    0.0030 (will be added to EATOM!!)
  PAW_PBE P 17Jan2003                   :
 energy of atom  2       EATOM= -176.0430
 kinetic energy error for atom=    0.0011 (will be added to EATOM!!)
 PAW_PBE Ge 05Jan2001                   :
 energy of atom  3       EATOM= -104.9960
 kinetic energy error for atom=    0.0002 (will be added to EATOM!!)
  PAW_PBE S 17Jan2003                   :
 energy of atom  4       EATOM= -276.8230
 kinetic energy error for atom=    0.0016 (will be added to EATOM!!)


 POSCAR: Ni2 P Ge S6                             
  positions in direct lattice
  velocities in cartesian coordinates
  No initial velocities read in
 exchange correlation table for  LEXCH =       42
   RHO(1)=    0.500       N(1)  =     2000
   RHO(2)=  100.500       N(2)  =     4000



--------------------------------------------------------------------------------------------------------


 ion  position               nearest neighbor table
   1  0.333  0.333  0.500-   6 2.78   5 2.78   7 2.78   8 2.78  10 2.78   9 2.78
   2  0.667  0.667  0.500-   9 2.78   8 2.78  10 2.78   5 2.78   7 2.78   6 2.78
   3  0.000  0.000  0.448-   4 2.43   8 2.63  10 2.63   9 2.63
   4  0.000  0.000  0.552-   3 2.43   5 2.63   7 2.63   6 2.63
   5  0.626  0.000  0.574-   4 2.63   1 2.78   2 2.78
   6  0.000  0.373  0.574-   4 2.63   1 2.78   2 2.78
   7  0.373  0.626  0.574-   4 2.63   1 2.78   2 2.78
   8  0.374  1.000  0.426-   3 2.63   2 2.78   1 2.78
   9  1.000  0.627  0.426-   3 2.63   2 2.78   1 2.78
  10  0.627  0.374  0.426-   3 2.63   2 2.78   1 2.78

  LATTYP: Found a hexagonal cell.
 ALAT       =     6.9077769333
 C/A-ratio  =     3.3939410937
  
  Lattice vectors:
  
 A1 = (   3.4538890000,  -5.9823100000,   0.0000000000)
 A2 = (  -6.9077770000,   0.0000000000,   0.0000000000)
 A3 = (   0.0000000000,   0.0000000000, -23.4445880000)


Analysis of symmetry for initial positions (statically):
=====================================================================
 Subroutine PRICEL returns:
 Original cell was already a primitive cell.
 

 Routine SETGRP: Setting up the symmetry group for a 
 hexagonal supercell.


 Subroutine GETGRP returns: Found  3 space group operations
 (whereof  3 operations were pure point group operations)
 out of a pool of 24 trial point group operations.


The static configuration has the point symmetry C_3 .


Analysis of symmetry for dynamics (positions and initial velocities):
=====================================================================
 Subroutine PRICEL returns:
 Original cell was already a primitive cell.
 

 Routine SETGRP: Setting up the symmetry group for a 
 hexagonal supercell.


 Subroutine GETGRP returns: Found  3 space group operations
 (whereof  3 operations were pure point group operations)
 out of a pool of 24 trial point group operations.


The dynamic configuration has the point symmetry C_3 .


Analysis of constrained symmetry for selective dynamics:
=====================================================================
 Subroutine PRICEL returns:
 Original cell was already a primitive cell.
 

 Routine SETGRP: Setting up the symmetry group for a 
 hexagonal supercell.


 Subroutine GETGRP returns: Found  3 space group operations
 (whereof  3 operations were pure point group operations)
 out of a pool of 24 trial point group operations.


The constrained configuration has the point symmetry C_3 .


Analysis of structural, dynamic, and magnetic symmetry:
=====================================================================
 Subroutine PRICEL returns:
 Original cell was already a primitive cell.
 

 Routine SETGRP: Setting up the symmetry group for a 
 hexagonal supercell.


 Subroutine GETGRP returns: Found  3 space group operations
 (whereof  3 operations were pure point group operations)
 out of a pool of 24 trial point group operations.


The magnetic configuration has the point symmetry C_3 .


 Subroutine INISYM returns: Found  3 space group operations
 (whereof  3 operations are pure point group operations),
 and found     1 'primitive' translations



 KPOINTS: Kpoints from vasprun.xml                

Automatic generation of k-mesh.
Space group operators:
 irot       det(A)        alpha          n_x          n_y          n_z        tau_x        tau_y        tau_z
    1     1.000000     0.000000     1.000000     0.000000     0.000000     0.000000     0.000000     0.000000
    2     1.000000   120.000000     0.000000     0.000000     1.000000     0.000000     0.000000     0.000000
    3     1.000000   120.000000     0.000000     0.000000    -1.000000     0.000000     0.000000     0.000000
 
 Subroutine IBZKPT returns following result:
 ===========================================
 
 Found      5 irreducible k-points:
 
 Following reciprocal coordinates:
            Coordinates               Weight
  0.000000  0.000000  0.000000      1.000000
  0.200000  0.000000  0.000000      6.000000
  0.400000  0.000000  0.000000      6.000000
  0.400000  0.200000  0.000000      6.000000
 -0.400000  0.200000  0.000000      6.000000
 
 Following cartesian coordinates:
            Coordinates               Weight
  0.000000  0.000000  0.000000      1.000000
  0.028953 -0.016716  0.000000      6.000000
  0.057906 -0.033432  0.000000      6.000000
  0.057906  0.000000  0.000000      6.000000
 -0.057906  0.066864  0.000000      6.000000
 
 TETIRR: Found     15 inequivalent tetrahedra from      150


--------------------------------------------------------------------------------------------------------




 Dimension of arrays:
   k-points           NKPTS =      5   k-points in BZ     NKDIM =      5   number of bands    NBANDS=     48
   number of dos      NEDOS =    301   number of ions     NIONS =     10
   non local maximal  LDIM  =      6   non local SUM 2l+1 LMDIM =     18
   total plane-waves  NPLWV = 524880
   max r-space proj   IRMAX =   7543   max aug-charges    IRDMAX=  29641
   dimension x,y,z NGX =    54 NGY =   54 NGZ =  180
   dimension x,y,z NGXF=   108 NGYF=  108 NGZF=  360
   support grid    NGXF=   108 NGYF=  108 NGZF=  360
   ions per type =               2   1   1   6
   NGX,Y,Z   is equivalent  to a cutoff of  13.00, 13.00, 12.76 a.u.
   NGXF,Y,Z  is equivalent  to a cutoff of  25.99, 25.99, 25.53 a.u.

 SYSTEM =  unknown system                          
 POSCAR =  Ni2 P Ge S6                             

 Startparameter for this run:
   NWRITE =      2    write-flag & timer
   PREC   = accura    normal or accurate (medium, high low for compatibility)
   ISTART =      0    job   : 0-new  1-cont  2-samecut
   ICHARG =      2    charge: 1-file 2-atom 10-const
   ISPIN  =      2    spin polarized calculation?
   LNONCOLLINEAR =      F non collinear calculations
   LSORBIT =      F    spin-orbit coupling
   INIWAV =      1    electr: 0-lowe 1-rand  2-diag
   LASPH  =      F    aspherical Exc in radial PAW
   METAGGA=      F    non-selfconsistent MetaGGA calc.

 Electronic Relaxation 1
   ENCUT  =  520.0 eV  38.22 Ry    6.18 a.u.  12.84 12.84 43.59*2*pi/ulx,y,z
   ENINI  =  520.0     initial cutoff
   ENAUG  =  544.6 eV  augmentation charge cutoff
   NELM   =    400;   NELMIN=  2; NELMDL=  0     # of ELM steps 
   EDIFF  = 0.1E-03   stopping-criterion for ELM
   LREAL  =      T    real-space projection
   NLSPLINE    = F    spline interpolate recip. space projectors
   LCOMPAT=      F    compatible to vasp.4.4
   GGA_COMPAT  = T    GGA compatible to vasp.4.4-vasp.4.6
   LMAXPAW     = -100 max onsite density
   LMAXMIX     =    2 max onsite mixed and CHGCAR
   VOSKOWN=      0    Vosko Wilk Nusair interpolation
   ROPT   =   -0.00025  -0.00025  -0.00025  -0.00025
 Ionic relaxation
   EDIFFG = 0.1E-02   stopping-criterion for IOM
   NSW    =     99    number of steps for IOM
   NBLOCK =      1;   KBLOCK =     99    inner block; outer block 
   IBRION =      2    ionic relax: 0-MD 1-quasi-New 2-CG
   NFREE  =      1    steps in history (QN), initial steepest desc. (CG)
   ISIF   =      3    stress and relaxation
   IWAVPR =     11    prediction:  0-non 1-charg 2-wave 3-comb
   ISYM   =      2    0-nonsym 1-usesym 2-fastsym
   LCORR  =      T    Harris-Foulkes like correction to forces

   POTIM  = 0.5000    time-step for ionic-motion
   TEIN   =    0.0    initial temperature
   TEBEG  =    0.0;   TEEND  =   0.0 temperature during run
   SMASS  =  -3.00    Nose mass-parameter (am)
   estimated Nose-frequenzy (Omega)   =  0.10E-29 period in steps =****** mass=  -0.109E-26a.u.
   SCALEE = 1.0000    scale energy and forces
   NPACO  =    256;   APACO  = 16.0  distance and # of slots for P.C.
   PSTRESS=    0.0 pullay stress

  Mass of Ions in am
   POMASS =  58.69 30.97 72.61 32.07
  Ionic Valenz
   ZVAL   =  10.00  5.00  4.00  6.00
  Atomic Wigner-Seitz radii
   RWIGS  =  -1.00 -1.00 -1.00 -1.00
  virtual crystal weights 
   VCA    =   1.00  1.00  1.00  1.00
   NELECT =      65.0000    total number of electrons
   NUPDOWN=      -1.0000    fix difference up-down

 DOS related values:
   EMIN   =  10.00;   EMAX   =-10.00  energy-range for DOS
   EFERMI =   0.00
   ISMEAR =    -5;   SIGMA  =   0.05  broadening in eV -4-tet -1-fermi 0-gaus

 Electronic relaxation 2 (details)
   IALGO  =     38    algorithm
   LDIAG  =      T    sub-space diagonalisation (order eigenvalues)
   LSUBROT=      F    optimize rotation matrix (better conditioning)
   TURBO    =      0    0=normal 1=particle mesh
   IRESTART =      0    0=no restart 2=restart with 2 vectors
   NREBOOT  =      0    no. of reboots
   NMIN     =      0    reboot dimension
   EREF     =   0.00    reference energy to select bands
   IMIX   =      4    mixing-type and parameters
     AMIX     =   0.40;   BMIX     =  1.00
     AMIX_MAG =   1.60;   BMIX_MAG =  1.00
     AMIN     =   0.01
     WC   =   100.;   INIMIX=   1;  MIXPRE=   1;  MAXMIX= -45

 Intra band minimization:
   WEIMIN = 0.0010     energy-eigenvalue tresh-hold
   EBREAK =  0.52E-06  absolut break condition
   DEPER  =   0.30     relativ break condition  

   TIME   =   0.40     timestep for ELM

  volume/ion in A,a.u.               =      96.88       653.80
  Fermi-wavevector in a.u.,A,eV,Ry     =   0.665216  1.257076  6.020745  0.442512
  Thomas-Fermi vector in A             =   1.739143

 Write flags
   LWAVE        =      F    write WAVECAR
   LDOWNSAMPLE  =      F    k-point downsampling of WAVECAR
   LCHARG       =      T    write CHGCAR
   LVTOT        =      F    write LOCPOT, total local potential
   LVHAR        =      F    write LOCPOT, Hartree potential only
   LELF         =      F    write electronic localiz. function (ELF)
   LORBIT       =     11    0 simple, 1 ext, 2 COOP (PROOUT), +10 PAW based schemes


 Dipole corrections
   LMONO  =      F    monopole corrections only (constant potential shift)
   LDIPOL =      F    correct potential (dipole corrections)
   IDIPOL =      0    1-x, 2-y, 3-z, 4-all directions 
   EPSILON=  1.0000000 bulk dielectric constant

 Exchange correlation treatment:
   GGA     =    BO    GGA type
   LEXCH   =    42    internal setting for exchange type
   VOSKOWN=      0    Vosko Wilk Nusair interpolation
   LHFCALC =     F    Hartree Fock is set to
   LHFONE  =     F    Hartree Fock one center treatment
   AEXX    =    0.0000 exact exchange contribution

 vdW DFT:
   LUSE_VDW   =     T    switch on vdW DFT
   Zab_VDW    =-.8491    correlation parameter
   PARAM1     =0.1833
   PARAM2     =0.2200
   PARAM3     =0.0000
   -- rVV10 --
   BPARAM     = 6.3000
   CPARAM     = 0.0093

 Linear response parameters
   LEPSILON=     F    determine dielectric tensor
   LRPA    =     F    only Hartree local field effects (RPA)
   LNABLA  =     F    use nabla operator in PAW spheres
   LVEL    =     F    velocity operator in full k-point grid
   LINTERFAST=   F  fast interpolation
   KINTER  =     0    interpolate to denser k-point grid
   CSHIFT  =0.1000    complex shift for real part using Kramers Kronig
   OMEGAMAX=  -1.0    maximum frequency
   DEG_THRESHOLD= 0.2000000E-02 threshold for treating states as degnerate
   RTIME   =   -0.100 relaxation time in fs
  (WPLASMAI=    0.000 imaginary part of plasma frequency in eV, 0.658/RTIME)
   DFIELD  = 0.0000000 0.0000000 0.0000000 field for delta impulse in time

 Orbital magnetization related:
   ORBITALMAG=     F  switch on orbital magnetization
   LCHIMAG   =     F  perturbation theory with respect to B field
   DQ        =  0.001000  dq finite difference perturbation B field
   LLRAUG    =     F  two centre corrections for induced B field



--------------------------------------------------------------------------------------------------------


 conjugate gradient relaxation of ions
   using selective dynamics as specified on POSCAR
 charge density and potential will be updated during run
 spin polarized calculation
 Variant of blocked Davidson
 Davidson routine will perform the subspace rotation
 perform sub-space diagonalisation
    after iterative eigenvector-optimisation
 modified Broyden-mixing scheme, WC =      100.0
 initial mixing is a Kerker type mixing with AMIX =  0.4000 and BMIX =      1.0000
 Hartree-type preconditioning will be used
 using additional bands           15
 real space projection scheme for non local part
 use partial core corrections
 calculate Harris-corrections to forces   (improved forces if not selfconsistent)
 use gradient corrections 
 use of overlap-Matrix (Vanderbilt PP)
 Fermi weights with tetrahedron method with Bloechl corrections


--------------------------------------------------------------------------------------------------------


  energy-cutoff  :      520.00
  volume of cell :      968.84
      direct lattice vectors                 reciprocal lattice vectors
     6.907777000 -0.000000000  0.000000000     0.144764372 -0.083579742  0.000000000
     3.453888000  5.982310000  0.000000000     0.000000000  0.167159509 -0.000000000
     0.000000000  0.000000000 23.444588000    -0.000000000  0.000000000  0.042653767

  length of vectors
     6.907777000  6.907776433 23.444588000     0.167159495  0.167159509  0.042653767



 k-points in units of 2pi/SCALE and weight: Kpoints from vasprun.xml                
   0.00000000  0.00000000  0.00000000       0.040
   0.02895287 -0.01671595  0.00000000       0.240
   0.05790575 -0.03343190  0.00000000       0.240
   0.05790575  0.00000000  0.00000000       0.240
  -0.05790575  0.06686380  0.00000000       0.240

 k-points in reciprocal lattice and weights: Kpoints from vasprun.xml                
   0.00000000  0.00000000  0.00000000       0.040
   0.20000000  0.00000000  0.00000000       0.240
   0.40000000  0.00000000  0.00000000       0.240
   0.40000000  0.20000000  0.00000000       0.240
  -0.40000000  0.20000000  0.00000000       0.240

 position of ions in fractional coordinates (direct lattice) 
   0.33333300  0.33333300  0.49992500
   0.66666700  0.66666700  0.50007500
   0.00000000  0.00000000  0.44821600
   0.00000000  0.00000000  0.55178400
   0.62635700  0.00042000  0.57375200
   0.00042000  0.37322400  0.57375200
   0.37322400  0.62635700  0.57375200
   0.37364300  0.99958000  0.42624800
   0.99958000  0.62677600  0.42624800
   0.62677600  0.37364300  0.42624800

 position of ions in cartesian coordinates  (Angst):
   3.45388488  1.99410134 11.72053566
   6.90778012  3.98820866 11.72405234
   0.00000000  0.00000000 10.50823946
   0.00000000  0.00000000 12.93634854
   4.32818511  0.00251257 13.45137925
   1.29197516  2.23274167 13.45137925
   4.74151509  3.74706174 13.45137925
   6.03347989  5.97979743  9.99320875
   9.06968984  3.74956833  9.99320875
   5.62014991  2.23524826  9.99320875



--------------------------------------------------------------------------------------------------------


 k-point  1 :   0.0000 0.0000 0.0000  plane waves:   26073
 k-point  2 :   0.2000 0.0000 0.0000  plane waves:   26070
 k-point  3 :   0.4000 0.0000 0.0000  plane waves:   26086
 k-point  4 :   0.4000 0.2000 0.0000  plane waves:   26085
 k-point  5 :  -0.4000 0.2000 0.0000  plane waves:   26115

 maximum and minimum number of plane-waves per node :     26115    26070

 maximum number of plane-waves:     26115
 maximum index in each direction: 
   IXMAX=   13   IYMAX=   12   IZMAX=   43
   IXMIN=  -13   IYMIN=  -13   IZMIN=  -43


 serial   3D FFT for wavefunctions
 parallel 3D FFT for charge:
    minimum data exchange during FFTs selected (reduces bandwidth)


 total amount of memory used by VASP MPI-rank0   128521. kBytes
=======================================================================

   base      :      30000. kBytes
   nonlr-proj:       6036. kBytes
   fftplans  :      11247. kBytes
   grid      :      68332. kBytes
   one-center:        311. kBytes
   wavefun   :      12595. kBytes

     INWAV:  cpu time    0.0000: real time    0.0004
 Broyden mixing: mesh for mixing (old mesh)
   NGX = 25   NGY = 25   NGZ = 87
  (NGX  =108   NGY  =108   NGZ  =360)
  gives a total of  54375 points

 initial charge density was supplied:
 charge density of overlapping atoms calculated
 number of electron      65.0000000 magnetization       7.3200000
 keeping initial charge density in first step


--------------------------------------------------------------------------------------------------------


 Maximum index for non-local projection operator         7247
 Maximum index for augmentation-charges         2133 (set IRDMAX)


--------------------------------------------------------------------------------------------------------


 First call to EWALD:  gamma=   0.179
 Maximum number of real-space cells 4x 4x 1
 Maximum number of reciprocal cells 2x 2x 6

    FEWALD:  cpu time    0.0000: real time    0.0015


--------------------------------------- Iteration      1(   1)  ---------------------------------------


vdW kernel read from vdw_kernel.bindat
  0.0000  0.2424  0.5071  0.7962  1.1119  1.4567  1.8333  2.2446  2.6937  3.1842
  3.7199  4.3049  4.9438  5.6415  6.4036  7.2358  8.1446  9.1372 10.2212 11.4050
 12.6979 14.1099 15.6519 17.3360 19.1751 21.1837 23.3773 25.7729 28.3892 31.2465
 34.3669 37.7748 41.4965 45.5611 50.0000

    POTLOK:  cpu time   52.0960: real time   53.0708
    SETDIJ:  cpu time    0.0440: real time    0.0434
     EDDAV:  cpu time   22.3440: real time   22.4272
 BZINTS: Fermi energy:  4.591632; 65.000000 electrons
         Band energy: -46.359166;  BLOECHL correction: -0.037490
       DOS:  cpu time    0.0040: real time    0.0046
    --------------------------------------------
      LOOP:  cpu time   74.4880: real time   75.5460

 eigenvalue-minimisations  :   960
 total energy-change (2. order) : 0.4255460E+03  (-0.2004980E+04)
 number of electron      65.0000000 magnetization       7.3200000
 augmentation part       65.0000000 magnetization       7.3200000

 Free energy of the ion-electron system (eV)
  ---------------------------------------------------
  alpha Z        PSCENC =        28.20599243
  Ewald energy   TEWEN  =      8338.88239735
  -Hartree energ DENC   =    -12043.57747392
  -exchange      EXHF   =         0.00000000
  -V(xc)+E(xc)   XCENC  =       122.07439166
  PAW double counting   =      2424.84790082    -2511.98109786
  entropy T*S    EENTRO =         0.00000000
  eigenvalues    EBANDS =       -46.35916636
  atomic energy  EATOM  =      4113.45303949
  Solvation  Ediel_sol  =         0.00000000
  ---------------------------------------------------
  free energy    TOTEN  =       425.54598361 eV

  energy without entropy =      425.54598361  energy(sigma->0) =      425.54598361


--------------------------------------------------------------------------------------------------------




--------------------------------------- Iteration      1(   2)  ---------------------------------------


     EDDAV:  cpu time   32.2680: real time   32.9391
 BZINTS: Fermi energy: -2.227451; 65.000000 electrons
         Band energy:-435.737687;  BLOECHL correction: -0.061185
       DOS:  cpu time    0.0040: real time    0.0050
    --------------------------------------------
      LOOP:  cpu time   32.2720: real time   32.9442

 eigenvalue-minimisations  :  1456
 total energy-change (2. order) :-0.3893785E+03  (-0.3660587E+03)
 number of electron      65.0000000 magnetization       7.3200000
 augmentation part       65.0000000 magnetization       7.3200000

 Free energy of the ion-electron system (eV)
  ---------------------------------------------------
  alpha Z        PSCENC =        28.20599243
  Ewald energy   TEWEN  =      8338.88239735
  -Hartree energ DENC   =    -12043.57747392
  -exchange      EXHF   =         0.00000000
  -V(xc)+E(xc)   XCENC  =       122.07439166
  PAW double counting   =      2424.84790082    -2511.98109786
  entropy T*S    EENTRO =         0.00000000
  eigenvalues    EBANDS =      -435.73768722
  atomic energy  EATOM  =      4113.45303949
  Solvation  Ediel_sol  =         0.00000000
  ---------------------------------------------------
  free energy    TOTEN  =        36.16746276 eV

  energy without entropy =       36.16746276  energy(sigma->0) =       36.16746276


--------------------------------------------------------------------------------------------------------




--------------------------------------- Iteration      1(   3)  ---------------------------------------


     EDDAV:  cpu time   27.0920: real time   27.4677
 BZINTS: Fermi energy: -2.873157; 65.000000 electrons
         Band energy:-511.781290;  BLOECHL correction: -0.006754
       DOS:  cpu time    0.0040: real time    0.0054
    --------------------------------------------
      LOOP:  cpu time   27.0960: real time   27.4731

 eigenvalue-minimisations  :  1200
 total energy-change (2. order) :-0.7604360E+02  (-0.7231281E+02)
 number of electron      65.0000000 magnetization       7.3200000
 augmentation part       65.0000000 magnetization       7.3200000

 Free energy of the ion-electron system (eV)
  ---------------------------------------------------
  alpha Z        PSCENC =        28.20599243
  Ewald energy   TEWEN  =      8338.88239735
  -Hartree energ DENC   =    -12043.57747392
  -exchange      EXHF   =         0.00000000
  -V(xc)+E(xc)   XCENC  =       122.07439166
  PAW double counting   =      2424.84790082    -2511.98109786
  entropy T*S    EENTRO =         0.00000000
  eigenvalues    EBANDS =      -511.78128996
  atomic energy  EATOM  =      4113.45303949
  Solvation  Ediel_sol  =         0.00000000
  ---------------------------------------------------
  free energy    TOTEN  =       -39.87613998 eV

  energy without entropy =      -39.87613998  energy(sigma->0) =      -39.87613998


--------------------------------------------------------------------------------------------------------




--------------------------------------- Iteration      1(   4)  ---------------------------------------


     EDDAV:  cpu time   26.5440: real time   26.8754
 BZINTS: Fermi energy: -2.889206; 65.000000 electrons
         Band energy:-514.813832;  BLOECHL correction: -0.006920
       DOS:  cpu time    0.0080: real time    0.0053
    --------------------------------------------
      LOOP:  cpu time   26.5520: real time   26.8806

 eigenvalue-minimisations  :  1168
 total energy-change (2. order) :-0.3032543E+01  (-0.3013521E+01)
 number of electron      65.0000000 magnetization       7.3200000
 augmentation part       65.0000000 magnetization       7.3200000

 Free energy of the ion-electron system (eV)
  ---------------------------------------------------
  alpha Z        PSCENC =        28.20599243
  Ewald energy   TEWEN  =      8338.88239735
  -Hartree energ DENC   =    -12043.57747392
  -exchange      EXHF   =         0.00000000
  -V(xc)+E(xc)   XCENC  =       122.07439166
  PAW double counting   =      2424.84790082    -2511.98109786
  entropy T*S    EENTRO =         0.00000000
  eigenvalues    EBANDS =      -514.81383247
  atomic energy  EATOM  =      4113.45303949
  Solvation  Ediel_sol  =         0.00000000
  ---------------------------------------------------
  free energy    TOTEN  =       -42.90868250 eV

  energy without entropy =      -42.90868250  energy(sigma->0) =      -42.90868250


--------------------------------------------------------------------------------------------------------




--------------------------------------- Iteration      1(   5)  ---------------------------------------


     EDDAV:  cpu time   29.8200: real time   29.9831
 BZINTS: Fermi energy: -2.890069; 65.000000 electrons
         Band energy:-514.904572;  BLOECHL correction: -0.006903
       DOS:  cpu time    0.0080: real time    0.0080
    CHARGE:  cpu time    2.1160: real time    2.1243
    MIXING:  cpu time    0.0440: real time    0.0408
    --------------------------------------------
      LOOP:  cpu time   31.9880: real time   32.1563

 eigenvalue-minimisations  :  1328
 total energy-change (2. order) :-0.9073950E-01  (-0.9072695E-01)
 number of electron      64.9999993 magnetization       7.5001275
 augmentation part        1.4375413 magnetization       4.3138958

 Broyden mixing:
  rms(total) = 0.45969E+01    rms(broyden)= 0.45968E+01
  rms(prec ) = 0.48728E+01
  weight for this iteration     100.00

 Free energy of the ion-electron system (eV)
  ---------------------------------------------------
  alpha Z        PSCENC =        28.20599243
  Ewald energy   TEWEN  =      8338.88239735
  -Hartree energ DENC   =    -12043.57747392
  -exchange      EXHF   =         0.00000000
  -V(xc)+E(xc)   XCENC  =       122.07439166
  PAW double counting   =      2424.84790082    -2511.98109786
  entropy T*S    EENTRO =         0.00000000
  eigenvalues    EBANDS =      -514.90457197
  atomic energy  EATOM  =      4113.45303949
  Solvation  Ediel_sol  =         0.00000000
  ---------------------------------------------------
  free energy    TOTEN  =       -42.99942199 eV

  energy without entropy =      -42.99942199  energy(sigma->0) =      -42.99942199


--------------------------------------------------------------------------------------------------------




--------------------------------------- Iteration      1(   6)  ---------------------------------------


    POTLOK:  cpu time   51.4560: real time   52.0662
    SETDIJ:  cpu time    0.0400: real time    0.0431
     EDDAV:  cpu time   29.1760: real time   29.3306
 BZINTS: Fermi energy: -4.312851; 65.000000 electrons
         Band energy:-822.629441;  BLOECHL correction: -0.022510
       DOS:  cpu time    0.0040: real time    0.0050
    CHARGE:  cpu time    2.1920: real time    2.1941
    MIXING:  cpu time    0.0440: real time    0.0407
    --------------------------------------------
      LOOP:  cpu time   82.9120: real time   83.6797

 eigenvalue-minimisations  :  1296
 total energy-change (2. order) :-0.6159568E+02  (-0.7860138E+02)
 number of electron      64.9999992 magnetization       7.1458377
 augmentation part       10.6063905 magnetization       7.8690322

 Broyden mixing:
  rms(total) = 0.67456E+01    rms(broyden)= 0.67455E+01
  rms(prec ) = 0.69935E+01
  weight for this iteration     100.00

 eigenvalues of (default mixing * dielectric matrix)
  average eigenvalue GAMMA=   0.3776
  0.3776

 Free energy of the ion-electron system (eV)
  ---------------------------------------------------
  alpha Z        PSCENC =        28.20599243
  Ewald energy   TEWEN  =      8338.88239735
  -Hartree energ DENC   =    -11836.02260402
  -exchange      EXHF   =         0.00000000
  -V(xc)+E(xc)   XCENC  =       124.44491984
  PAW double counting   =      2065.94545372    -2116.87485682
  entropy T*S    EENTRO =         0.00000000
  eigenvalues    EBANDS =      -822.62944107
  atomic energy  EATOM  =      4113.45303949
  Solvation  Ediel_sol  =         0.00000000
  ---------------------------------------------------
  free energy    TOTEN  =      -104.59509908 eV

  energy without entropy =     -104.59509908  energy(sigma->0) =     -104.59509908


--------------------------------------------------------------------------------------------------------




--------------------------------------- Iteration      1(   7)  ---------------------------------------


    POTLOK:  cpu time   52.1680: real time   52.2201
    SETDIJ:  cpu time    0.0440: real time    0.0420
     EDDAV:  cpu time   25.6040: real time   25.7321
 BZINTS: Fermi energy: -4.710886; 65.000000 electrons
         Band energy:-643.362758;  BLOECHL correction: -0.019927
       DOS:  cpu time    0.0040: real time    0.0071
    CHARGE:  cpu time    2.1240: real time    2.1754
    MIXING:  cpu time    0.0400: real time    0.0411
    --------------------------------------------
      LOOP:  cpu time   79.9840: real time   80.2177

 eigenvalue-minimisations  :  1120
 total energy-change (2. order) : 0.5163188E+02  (-0.7426625E+01)
 number of electron      64.9999992 magnetization       6.9777902
 augmentation part        9.7045336 magnetization       5.4399352

 Broyden mixing:
  rms(total) = 0.35412E+01    rms(broyden)= 0.35412E+01
  rms(prec ) = 0.37495E+01
  weight for this iteration     100.00

 eigenvalues of (default mixing * dielectric matrix)
  average eigenvalue GAMMA=   0.4564
  0.4564  0.4564

 Free energy of the ion-electron system (eV)
  ---------------------------------------------------
  alpha Z        PSCENC =        28.20599243
  Ewald energy   TEWEN  =      8338.88239735
  -Hartree energ DENC   =    -11930.84212656
  -exchange      EXHF   =         0.00000000
  -V(xc)+E(xc)   XCENC  =       120.45395430
  PAW double counting   =      2241.35159490    -2321.10531634
  entropy T*S    EENTRO =         0.00000000
  eigenvalues    EBANDS =      -643.36275837
  atomic energy  EATOM  =      4113.45303949
  Solvation  Ediel_sol  =         0.00000000
  ---------------------------------------------------
  free energy    TOTEN  =       -52.96322280 eV

  energy without entropy =      -52.96322280  energy(sigma->0) =      -52.96322280


--------------------------------------------------------------------------------------------------------




--------------------------------------- Iteration      1(   8)  ---------------------------------------


    POTLOK:  cpu time   51.9640: real time   52.0604
    SETDIJ:  cpu time    0.0400: real time    0.0422
     EDDAV:  cpu time   28.7560: real time   28.8855
 BZINTS: Fermi energy: -4.763358; 65.000000 electrons
         Band energy:-577.288465;  BLOECHL correction: -0.014742
       DOS:  cpu time    0.0080: real time    0.0064
    CHARGE:  cpu time    2.1560: real time    2.1618
    MIXING:  cpu time    0.0400: real time    0.0418
    --------------------------------------------
      LOOP:  cpu time   82.9640: real time   83.1980

 eigenvalue-minimisations  :  1264
 total energy-change (2. order) : 0.1426870E+02  (-0.1644052E+01)
 number of electron      64.9999991 magnetization       6.8443394
 augmentation part        8.6598717 magnetization       4.2627993

 Broyden mixing:
  rms(total) = 0.23692E+01    rms(broyden)= 0.23692E+01
  rms(prec ) = 0.25022E+01
  weight for this iteration     100.00

 eigenvalues of (default mixing * dielectric matrix)
  average eigenvalue GAMMA=   0.4990
  0.5483  0.5483  0.4005

 Free energy of the ion-electron system (eV)
  ---------------------------------------------------
  alpha Z        PSCENC =        28.20599243
  Ewald energy   TEWEN  =      8338.88239735
  -Hartree energ DENC   =    -11975.15837231
  -exchange      EXHF   =         0.00000000
  -V(xc)+E(xc)   XCENC  =       121.20212176
  PAW double counting   =      2316.27158569    -2404.26282587
  entropy T*S    EENTRO =         0.00000000
  eigenvalues    EBANDS =      -577.28846511
  atomic energy  EATOM  =      4113.45303949
  Solvation  Ediel_sol  =         0.00000000
  ---------------------------------------------------
  free energy    TOTEN  =       -38.69452658 eV

  energy without entropy =      -38.69452658  energy(sigma->0) =      -38.69452658


--------------------------------------------------------------------------------------------------------




--------------------------------------- Iteration      1(   9)  ---------------------------------------


    POTLOK:  cpu time   51.2880: real time   52.4400
    SETDIJ:  cpu time    0.0440: real time    0.0426
     EDDAV:  cpu time   28.1280: real time   28.4168
 BZINTS: Fermi energy: -4.645364; 65.000000 electrons
         Band energy:-544.351515;  BLOECHL correction: -0.011170
       DOS:  cpu time    0.0040: real time    0.0062
    CHARGE:  cpu time    2.1320: real time    2.1383
    MIXING:  cpu time    0.0440: real time    0.0427
    --------------------------------------------
      LOOP:  cpu time   81.6400: real time   83.0865

 eigenvalue-minimisations  :  1248
 total energy-change (2. order) : 0.3891863E+01  (-0.5131798E+00)
 number of electron      64.9999991 magnetization       6.8126126
 augmentation part        7.0354999 magnetization       5.0955128

 Broyden mixing:
  rms(total) = 0.88036E+00    rms(broyden)= 0.87988E+00
  rms(prec ) = 0.91913E+00
  weight for this iteration     100.00

 eigenvalues of (default mixing * dielectric matrix)
  average eigenvalue GAMMA=   0.4195
  0.5547  0.5547  0.3480  0.2204

 Free energy of the ion-electron system (eV)
  ---------------------------------------------------
  alpha Z        PSCENC =        28.20599243
  Ewald energy   TEWEN  =      8338.88239735
  -Hartree energ DENC   =    -12003.25339394
  -exchange      EXHF   =         0.00000000
  -V(xc)+E(xc)   XCENC  =       121.70312317
  PAW double counting   =      2367.13298495    -2456.57529215
  entropy T*S    EENTRO =         0.00000000
  eigenvalues    EBANDS =      -544.35151484
  atomic energy  EATOM  =      4113.45303949
  Solvation  Ediel_sol  =         0.00000000
  ---------------------------------------------------
  free energy    TOTEN  =       -34.80266354 eV

  energy without entropy =      -34.80266354  energy(sigma->0) =      -34.80266354


--------------------------------------------------------------------------------------------------------




--------------------------------------- Iteration      1(  10)  ---------------------------------------


    POTLOK:  cpu time   51.5360: real time   51.6614
    SETDIJ:  cpu time    0.0400: real time    0.0413
     EDDAV:  cpu time   28.7840: real time   28.9222
 BZINTS: Fermi energy: -4.657299; 65.000000 electrons
         Band energy:-543.137920;  BLOECHL correction: -0.011300
       DOS:  cpu time    0.0040: real time    0.0049
    CHARGE:  cpu time    2.0880: real time    2.1288
    MIXING:  cpu time    0.0440: real time    0.0427
    --------------------------------------------
      LOOP:  cpu time   82.4960: real time   82.8013

 eigenvalue-minimisations  :  1264
 total energy-change (2. order) :-0.1032514E-01  (-0.1510521E+00)
 number of electron      64.9999991 magnetization       6.7577121
 augmentation part        6.8985928 magnetization       5.1151292

 Broyden mixing:
  rms(total) = 0.77296E+00    rms(broyden)= 0.77292E+00
  rms(prec ) = 0.80506E+00
  weight for this iteration     100.00

 eigenvalues of (default mixing * dielectric matrix)
  average eigenvalue GAMMA=   0.4832
  0.4196  0.5121  0.5121  0.4863  0.4863

 Free energy of the ion-electron system (eV)
  ---------------------------------------------------
  alpha Z        PSCENC =        28.20599243
  Ewald energy   TEWEN  =      8338.88239735
  -Hartree energ DENC   =    -12004.46834330
  -exchange      EXHF   =         0.00000000
  -V(xc)+E(xc)   XCENC  =       121.71992694
  PAW double counting   =      2369.50125914    -2458.96934096
  entropy T*S    EENTRO =         0.00000000
  eigenvalues    EBANDS =      -543.13791978
  atomic energy  EATOM  =      4113.45303949
  Solvation  Ediel_sol  =         0.00000000
  ---------------------------------------------------
  free energy    TOTEN  =       -34.81298868 eV

  energy without entropy =      -34.81298868  energy(sigma->0) =      -34.81298868


--------------------------------------------------------------------------------------------------------




--------------------------------------- Iteration      1(  11)  ---------------------------------------


    POTLOK:  cpu time   51.6680: real time   51.8971
    SETDIJ:  cpu time    0.0400: real time    0.0416
     EDDAV:  cpu time   31.1320: real time   31.2776
 BZINTS: Fermi energy: -4.641281; 65.000000 electrons
         Band energy:-542.900242;  BLOECHL correction: -0.011400
       DOS:  cpu time    0.0040: real time    0.0066
    CHARGE:  cpu time    2.1480: real time    2.1544
    MIXING:  cpu time    0.0480: real time    0.0485
    --------------------------------------------
      LOOP:  cpu time   85.0400: real time   85.4258

 eigenvalue-minimisations  :  1392
 total energy-change (2. order) :-0.1812745E-01  (-0.3850188E-02)
 number of electron      64.9999991 magnetization       6.1734613
 augmentation part        6.9436181 magnetization       4.5120289

 Broyden mixing:
  rms(total) = 0.78124E+00    rms(broyden)= 0.78124E+00
  rms(prec ) = 0.81637E+00
  weight for this iteration     100.00

 eigenvalues of (default mixing * dielectric matrix)
  average eigenvalue GAMMA=   0.6950
  0.9864  0.9864  0.6453  0.6453  0.4532  0.4532

 Free energy of the ion-electron system (eV)
  ---------------------------------------------------
  alpha Z        PSCENC =        28.20599243
  Ewald energy   TEWEN  =      8338.88239735
  -Hartree energ DENC   =    -12004.71536780
  -exchange      EXHF   =         0.00000000
  -V(xc)+E(xc)   XCENC  =       121.71671746
  PAW double counting   =      2369.20928270    -2458.68293624
  entropy T*S    EENTRO =         0.00000000
  eigenvalues    EBANDS =      -542.90024151
  atomic energy  EATOM  =      4113.45303949
  Solvation  Ediel_sol  =         0.00000000
  ---------------------------------------------------
  free energy    TOTEN  =       -34.83111613 eV

  energy without entropy =      -34.83111613  energy(sigma->0) =      -34.83111613


--------------------------------------------------------------------------------------------------------




--------------------------------------- Iteration      1(  12)  ---------------------------------------


    POTLOK:  cpu time   51.4800: real time   51.9046
    SETDIJ:  cpu time    0.0600: real time    0.0614
     EDDAV:  cpu time   30.5120: real time   31.0619
 BZINTS: Fermi energy: -4.496050; 65.000000 electrons
         Band energy:-538.016650;  BLOECHL correction: -0.011663
       DOS:  cpu time    0.0040: real time    0.0062
    CHARGE:  cpu time    2.1160: real time    2.1294
    MIXING:  cpu time    0.0280: real time    0.0528
    --------------------------------------------
      LOOP:  cpu time   84.2000: real time   85.2163

 eigenvalue-minimisations  :  1376
 total energy-change (2. order) :-0.1605025E+00  (-0.2925998E-01)
 number of electron      64.9999991 magnetization       5.8228745
 augmentation part        7.0630799 magnetization       4.1331688

 Broyden mixing:
  rms(total) = 0.76422E+00    rms(broyden)= 0.76421E+00
  rms(prec ) = 0.80518E+00
  weight for this iteration     100.00

 eigenvalues of (default mixing * dielectric matrix)
  average eigenvalue GAMMA=   0.7417
  1.2746  1.2746  0.6217  0.6217  0.4968  0.4968  0.4055

 Free energy of the ion-electron system (eV)
  ---------------------------------------------------
  alpha Z        PSCENC =        28.20599243
  Ewald energy   TEWEN  =      8338.88239735
  -Hartree energ DENC   =    -12010.55220613
  -exchange      EXHF   =         0.00000000
  -V(xc)+E(xc)   XCENC  =       121.79189025
  PAW double counting   =      2373.87215267    -2462.62823486
  entropy T*S    EENTRO =         0.00000000
  eigenvalues    EBANDS =      -538.01664985
  atomic energy  EATOM  =      4113.45303949
  Solvation  Ediel_sol  =         0.00000000
  ---------------------------------------------------
  free energy    TOTEN  =       -34.99161866 eV

  energy without entropy =      -34.99161866  energy(sigma->0) =      -34.99161866


--------------------------------------------------------------------------------------------------------




--------------------------------------- Iteration      1(  13)  ---------------------------------------


    POTLOK:  cpu time   51.7720: real time   51.9478
    SETDIJ:  cpu time    0.0680: real time    0.0660
     EDDAV:  cpu time   29.2080: real time   29.4283
 BZINTS: Fermi energy: -4.432906; 65.000000 electrons
         Band energy:-535.193835;  BLOECHL correction: -0.010261
       DOS:  cpu time    0.0040: real time    0.0066
    CHARGE:  cpu time    2.1280: real time    2.1513
    MIXING:  cpu time    0.0520: real time    0.0485
    --------------------------------------------
      LOOP:  cpu time   83.2320: real time   83.6486

 eigenvalue-minimisations  :  1296
 total energy-change (2. order) :-0.1424567E-01  (-0.3344416E-01)
 number of electron      64.9999991 magnetization       5.5293269
 augmentation part        6.9461862 magnetization       3.9118258

 Broyden mixing:
  rms(total) = 0.66466E+00    rms(broyden)= 0.66463E+00
  rms(prec ) = 0.70165E+00
  weight for this iteration     100.00

 eigenvalues of (default mixing * dielectric matrix)
  average eigenvalue GAMMA=   0.7511
  1.4900  1.4900  0.6334  0.6334  0.5645  0.5645  0.4487  0.1846

 Free energy of the ion-electron system (eV)
  ---------------------------------------------------
  alpha Z        PSCENC =        28.20599243
  Ewald energy   TEWEN  =      8338.88239735
  -Hartree energ DENC   =    -12013.90954370
  -exchange      EXHF   =         0.00000000
  -V(xc)+E(xc)   XCENC  =       121.81434891
  PAW double counting   =      2377.42309328    -2465.68135675
  entropy T*S    EENTRO =         0.00000000
  eigenvalues    EBANDS =      -535.19383533
  atomic energy  EATOM  =      4113.45303949
  Solvation  Ediel_sol  =         0.00000000
  ---------------------------------------------------
  free energy    TOTEN  =       -35.00586433 eV

  energy without entropy =      -35.00586433  energy(sigma->0) =      -35.00586433


--------------------------------------------------------------------------------------------------------




--------------------------------------- Iteration      1(  14)  ---------------------------------------


    POTLOK:  cpu time   51.4960: real time   52.3285
    SETDIJ:  cpu time    0.0400: real time    0.0408
     EDDAV:  cpu time   26.1320: real time   26.4299
 BZINTS: Fermi energy: -4.404792; 65.000000 electrons
         Band energy:-532.343134;  BLOECHL correction: -0.010395
       DOS:  cpu time    0.0040: real time    0.0068
    CHARGE:  cpu time    2.0920: real time    2.1854
    MIXING:  cpu time    0.0480: real time    0.0461
    --------------------------------------------
      LOOP:  cpu time   79.8120: real time   81.0376

 eigenvalue-minimisations  :  1152
 total energy-change (2. order) : 0.8409652E-01  (-0.2629268E-01)
 number of electron      64.9999991 magnetization       4.9263086
 augmentation part        6.7703789 magnetization       3.4206257

 Broyden mixing:
  rms(total) = 0.45104E+00    rms(broyden)= 0.45099E+00
  rms(prec ) = 0.47551E+00
  weight for this iteration     100.00

 eigenvalues of (default mixing * dielectric matrix)
  average eigenvalue GAMMA=   0.7870
  1.9643  1.1276  0.6433  0.6433  0.7762  0.7762  0.5722  0.4068  0.1733

 Free energy of the ion-electron system (eV)
  ---------------------------------------------------
  alpha Z        PSCENC =        28.20599243
  Ewald energy   TEWEN  =      8338.88239735
  -Hartree energ DENC   =    -12016.97921400
  -exchange      EXHF   =         0.00000000
  -V(xc)+E(xc)   XCENC  =       121.83598146
  PAW double counting   =      2381.13541109    -2469.11224147
  entropy T*S    EENTRO =         0.00000000
  eigenvalues    EBANDS =      -532.34313415
  atomic energy  EATOM  =      4113.45303949
  Solvation  Ediel_sol  =         0.00000000
  ---------------------------------------------------
  free energy    TOTEN  =       -34.92176780 eV

  energy without entropy =      -34.92176780  energy(sigma->0) =      -34.92176780


--------------------------------------------------------------------------------------------------------




--------------------------------------- Iteration      1(  15)  ---------------------------------------


    POTLOK:  cpu time   52.1000: real time   52.1594
    SETDIJ:  cpu time    0.0440: real time    0.0426
     EDDAV:  cpu time   27.5600: real time   27.6988
 BZINTS: Fermi energy: -4.341620; 65.000000 electrons
         Band energy:-526.580924;  BLOECHL correction: -0.002707
       DOS:  cpu time    0.0040: real time    0.0070
    CHARGE:  cpu time    2.1240: real time    2.1347
    MIXING:  cpu time    0.0520: real time    0.0499
    --------------------------------------------
      LOOP:  cpu time   81.8840: real time   82.0924

 eigenvalue-minimisations  :  1216
 total energy-change (2. order) : 0.4186722E-02  (-0.5122483E-01)
 number of electron      64.9999990 magnetization       4.6858653
 augmentation part        6.0923393 magnetization       3.4558265

 Broyden mixing:
  rms(total) = 0.27200E+00    rms(broyden)= 0.27176E+00
  rms(prec ) = 0.29364E+00
  weight for this iteration     100.00

 eigenvalues of (default mixing * dielectric matrix)
  average eigenvalue GAMMA=   0.8056
  2.2782  1.1410  1.1410  0.6443  0.6443  0.6581  0.5907  0.3954  0.3954  0.1672

 Free energy of the ion-electron system (eV)
  ---------------------------------------------------
  alpha Z        PSCENC =        28.20599243
  Ewald energy   TEWEN  =      8338.88239735
  -Hartree energ DENC   =    -12022.68723589
  -exchange      EXHF   =         0.00000000
  -V(xc)+E(xc)   XCENC  =       121.87137205
  PAW double counting   =      2389.03707065    -2477.09929328
  entropy T*S    EENTRO =         0.00000000
  eigenvalues    EBANDS =      -526.58092390
  atomic energy  EATOM  =      4113.45303949
  Solvation  Ediel_sol  =         0.00000000
  ---------------------------------------------------
  free energy    TOTEN  =       -34.91758108 eV

  energy without entropy =      -34.91758108  energy(sigma->0) =      -34.91758108


--------------------------------------------------------------------------------------------------------




--------------------------------------- Iteration      1(  16)  ---------------------------------------


    POTLOK:  cpu time   52.2480: real time   52.3096
    SETDIJ:  cpu time    0.0440: real time    0.0421
     EDDAV:  cpu time   25.5600: real time   26.3281
 BZINTS: Fermi energy: -4.393034; 65.000000 electrons
         Band energy:-530.166698;  BLOECHL correction: -0.004708
       DOS:  cpu time    0.0040: real time    0.0072
    CHARGE:  cpu time    2.0200: real time    2.1921
    MIXING:  cpu time    0.0480: real time    0.0475
    --------------------------------------------
      LOOP:  cpu time   79.9240: real time   80.9266

 eigenvalue-minimisations  :  1152
 total energy-change (2. order) : 0.1140462E-01  (-0.1820620E-01)
 number of electron      64.9999990 magnetization       4.1080670
 augmentation part        6.2262728 magnetization       2.8080203

 Broyden mixing:
  rms(total) = 0.15212E+00    rms(broyden)= 0.15210E+00
  rms(prec ) = 0.16142E+00
  weight for this iteration     100.00

 eigenvalues of (default mixing * dielectric matrix)
  average eigenvalue GAMMA=   0.9055
  2.8222  1.8372  1.0604  0.6455  0.6455  0.7627  0.6187  0.6187  0.4441  0.3395
  0.1660

 Free energy of the ion-electron system (eV)
  ---------------------------------------------------
  alpha Z        PSCENC =        28.20599243
  Ewald energy   TEWEN  =      8338.88239735
  -Hartree energ DENC   =    -12018.76523259
  -exchange      EXHF   =         0.00000000
  -V(xc)+E(xc)   XCENC  =       121.72714954
  PAW double counting   =      2382.39262604    -2470.63545092
  entropy T*S    EENTRO =         0.00000000
  eigenvalues    EBANDS =      -530.16669780
  atomic energy  EATOM  =      4113.45303949
  Solvation  Ediel_sol  =         0.00000000
  ---------------------------------------------------
  free energy    TOTEN  =       -34.90617647 eV

  energy without entropy =      -34.90617647  energy(sigma->0) =      -34.90617647


--------------------------------------------------------------------------------------------------------




--------------------------------------- Iteration      1(  17)  ---------------------------------------


    POTLOK:  cpu time   52.1840: real time   52.3202
    SETDIJ:  cpu time    0.0400: real time    0.0418
     EDDAV:  cpu time   28.9000: real time   29.0091
 BZINTS: Fermi energy: -4.489948; 65.000000 electrons
         Band energy:-538.807363;  BLOECHL correction: -0.007655
       DOS:  cpu time    0.0040: real time    0.0069
    CHARGE:  cpu time    2.1240: real time    2.1367
    MIXING:  cpu time    0.0960: real time    0.0966
    --------------------------------------------
      LOOP:  cpu time   83.3480: real time   83.6114

 eigenvalue-minimisations  :  1280
 total energy-change (2. order) :-0.9002664E-01  (-0.2586292E-01)
 number of electron      64.9999990 magnetization       3.9334327
 augmentation part        6.5712222 magnetization       2.4520039

 Broyden mixing:
  rms(total) = 0.21430E+00    rms(broyden)= 0.21422E+00
  rms(prec ) = 0.23306E+00
  weight for this iteration     100.00

 eigenvalues of (default mixing * dielectric matrix)
  average eigenvalue GAMMA=   0.9208
  3.4457  1.6403  1.0053  1.0053  0.6418  0.6418  0.6697  0.5401  0.5401  0.3938
  0.3602  0.1657

 Free energy of the ion-electron system (eV)
  ---------------------------------------------------
  alpha Z        PSCENC =        28.20599243
  Ewald energy   TEWEN  =      8338.88239735
  -Hartree energ DENC   =    -12010.04254188
  -exchange      EXHF   =         0.00000000
  -V(xc)+E(xc)   XCENC  =       121.47582823
  PAW double counting   =      2370.31424585    -2458.47780190
  entropy T*S    EENTRO =         0.00000000
  eigenvalues    EBANDS =      -538.80736268
  atomic energy  EATOM  =      4113.45303949
  Solvation  Ediel_sol  =         0.00000000
  ---------------------------------------------------
  free energy    TOTEN  =       -34.99620311 eV

  energy without entropy =      -34.99620311  energy(sigma->0) =      -34.99620311


--------------------------------------------------------------------------------------------------------




--------------------------------------- Iteration      1(  18)  ---------------------------------------


    POTLOK:  cpu time   51.8800: real time   52.1607
    SETDIJ:  cpu time    0.0400: real time    0.0408
     EDDAV:  cpu time   25.9440: real time   27.1297
 BZINTS: Fermi energy: -4.474497; 65.000000 electrons
         Band energy:-536.938215;  BLOECHL correction: -0.005744
       DOS:  cpu time    0.0040: real time    0.0115
    CHARGE:  cpu time    1.9720: real time    2.1467
    MIXING:  cpu time    0.0800: real time    0.0820
    --------------------------------------------
      LOOP:  cpu time   79.9200: real time   81.5714

 eigenvalue-minimisations  :  1184
 total energy-change (2. order) : 0.1959213E-01  (-0.1435512E-01)
 number of electron      64.9999990 magnetization       3.5618765
 augmentation part        6.3571098 magnetization       2.1911341

 Broyden mixing:
  rms(total) = 0.63681E-01    rms(broyden)= 0.63609E-01
  rms(prec ) = 0.65961E-01
  weight for this iteration     100.00

 eigenvalues of (default mixing * dielectric matrix)
  average eigenvalue GAMMA=   1.0441
  4.1549  2.4678  1.1250  1.1250  0.6423  0.6423  0.7109  0.7109  0.5365  0.5365
  0.4052  0.3496  0.1657

 Free energy of the ion-electron system (eV)
  ---------------------------------------------------
  alpha Z        PSCENC =        28.20599243
  Ewald energy   TEWEN  =      8338.88239735
  -Hartree energ DENC   =    -12012.23721935
  -exchange      EXHF   =         0.00000000
  -V(xc)+E(xc)   XCENC  =       121.56277121
  PAW double counting   =      2376.79988331    -2464.70526055
  entropy T*S    EENTRO =         0.00000000
  eigenvalues    EBANDS =      -536.93821486
  atomic energy  EATOM  =      4113.45303949
  Solvation  Ediel_sol  =         0.00000000
  ---------------------------------------------------
  free energy    TOTEN  =       -34.97661098 eV

  energy without entropy =      -34.97661098  energy(sigma->0) =      -34.97661098


--------------------------------------------------------------------------------------------------------




--------------------------------------- Iteration      1(  19)  ---------------------------------------


    POTLOK:  cpu time   51.9200: real time   52.3163
    SETDIJ:  cpu time    0.0440: real time    0.0445
     EDDAV:  cpu time   29.9360: real time   30.6393
 BZINTS: Fermi energy: -4.469809; 65.000000 electrons
         Band energy:-535.947786;  BLOECHL correction: -0.003290
       DOS:  cpu time    0.0040: real time    0.0064
    CHARGE:  cpu time    2.1520: real time    2.1535
    MIXING:  cpu time    0.0880: real time    0.0897
    --------------------------------------------
      LOOP:  cpu time   84.1440: real time   85.2496

 eigenvalue-minimisations  :  1360
 total energy-change (2. order) :-0.3612584E-01  (-0.8182931E-02)
 number of electron      64.9999990 magnetization       3.2489778
 augmentation part        6.1256566 magnetization       1.9704144

 Broyden mixing:
  rms(total) = 0.16800E+00    rms(broyden)= 0.16796E+00
  rms(prec ) = 0.18043E+00
  weight for this iteration     100.00

 eigenvalues of (default mixing * dielectric matrix)
  average eigenvalue GAMMA=   1.1750
  5.7596  2.5460  1.3130  1.3130  0.6417  0.6417  0.7939  0.7939  0.5748  0.5748
  0.5634  0.4179  0.3507  0.1657

 Free energy of the ion-electron system (eV)
  ---------------------------------------------------
  alpha Z        PSCENC =        28.20599243
  Ewald energy   TEWEN  =      8338.88239735
  -Hartree energ DENC   =    -12013.30770247
  -exchange      EXHF   =         0.00000000
  -V(xc)+E(xc)   XCENC  =       121.61515710
  PAW double counting   =      2384.11196355    -2472.02579839
  entropy T*S    EENTRO =         0.00000000
  eigenvalues    EBANDS =      -535.94778588
  atomic energy  EATOM  =      4113.45303949
  Solvation  Ediel_sol  =         0.00000000
  ---------------------------------------------------
  free energy    TOTEN  =       -35.01273682 eV

  energy without entropy =      -35.01273682  energy(sigma->0) =      -35.01273682


--------------------------------------------------------------------------------------------------------




--------------------------------------- Iteration      1(  20)  ---------------------------------------


    POTLOK:  cpu time   51.9560: real time   52.1482
    SETDIJ:  cpu time    0.0440: real time    0.0415
     EDDAV:  cpu time   30.8640: real time   31.0952
 BZINTS: Fermi energy: -4.482246; 65.000000 electrons
         Band energy:-537.778716;  BLOECHL correction: -0.004933
       DOS:  cpu time    0.0040: real time    0.0071
    CHARGE:  cpu time    2.1760: real time    2.1726
    MIXING:  cpu time    0.0520: real time    0.0545
    --------------------------------------------
      LOOP:  cpu time   85.0960: real time   85.5191

 eigenvalue-minimisations  :  1376
 total energy-change (2. order) : 0.6997515E-02  (-0.3209441E-02)
 number of electron      64.9999990 magnetization       3.1114751
 augmentation part        6.2755700 magnetization       1.7804850

 Broyden mixing:
  rms(total) = 0.61755E-01    rms(broyden)= 0.61732E-01
  rms(prec ) = 0.64857E-01
  weight for this iteration     100.00

 eigenvalues of (default mixing * dielectric matrix)
  average eigenvalue GAMMA=   1.2239
  6.7474  2.0342  2.0342  1.1046  1.1046  0.6416  0.6416  0.6973  0.6973  0.5909
  0.5909  0.5450  0.4096  0.3534  0.1657

 Free energy of the ion-electron system (eV)
  ---------------------------------------------------
  alpha Z        PSCENC =        28.20599243
  Ewald energy   TEWEN  =      8338.88239735
  -Hartree energ DENC   =    -12011.38664842
  -exchange      EXHF   =         0.00000000
  -V(xc)+E(xc)   XCENC  =       121.56206682
  PAW double counting   =      2383.32654224    -2471.27041324
  entropy T*S    EENTRO =         0.00000000
  eigenvalues    EBANDS =      -537.77871599
  atomic energy  EATOM  =      4113.45303949
  Solvation  Ediel_sol  =         0.00000000
  ---------------------------------------------------
  free energy    TOTEN  =       -35.00573930 eV

  energy without entropy =      -35.00573930  energy(sigma->0) =      -35.00573930


--------------------------------------------------------------------------------------------------------




--------------------------------------- Iteration      1(  21)  ---------------------------------------


    POTLOK:  cpu time   51.5040: real time   51.5828
    SETDIJ:  cpu time    0.0440: real time    0.0413
     EDDAV:  cpu time   32.6000: real time   32.8768
 BZINTS: Fermi energy: -4.471035; 65.000000 electrons
         Band energy:-537.640798;  BLOECHL correction: -0.005077
       DOS:  cpu time    0.0040: real time    0.0062
    CHARGE:  cpu time    2.1320: real time    2.1333
    MIXING:  cpu time    0.0560: real time    0.0536
    --------------------------------------------
      LOOP:  cpu time   86.3400: real time   86.6939

 eigenvalue-minimisations  :  1456
 total energy-change (2. order) :-0.1860805E-03  (-0.1041840E-02)
 number of electron      64.9999990 magnetization       3.0742408
 augmentation part        6.2997986 magnetization       1.7517263

 Broyden mixing:
  rms(total) = 0.39316E-01    rms(broyden)= 0.39313E-01
  rms(prec ) = 0.40683E-01
  weight for this iteration     100.00

 eigenvalues of (default mixing * dielectric matrix)
  average eigenvalue GAMMA=   1.3159
  7.9258  2.3998  1.6987  1.6987  0.6416  0.6416  0.8748  0.8748  0.8508  0.6811
  0.6811  0.5778  0.5778  0.4120  0.3522  0.1657

 Free energy of the ion-electron system (eV)
  ---------------------------------------------------
  alpha Z        PSCENC =        28.20599243
  Ewald energy   TEWEN  =      8338.88239735
  -Hartree energ DENC   =    -12011.67385642
  -exchange      EXHF   =         0.00000000
  -V(xc)+E(xc)   XCENC  =       121.57143941
  PAW double counting   =      2384.11610483    -2471.92024412
  entropy T*S    EENTRO =         0.00000000
  eigenvalues    EBANDS =      -537.64079837
  atomic energy  EATOM  =      4113.45303949
  Solvation  Ediel_sol  =         0.00000000
  ---------------------------------------------------
  free energy    TOTEN  =       -35.00592538 eV

  energy without entropy =      -35.00592538  energy(sigma->0) =      -35.00592538


--------------------------------------------------------------------------------------------------------




--------------------------------------- Iteration      1(  22)  ---------------------------------------


    POTLOK:  cpu time   51.6120: real time   51.7837
    SETDIJ:  cpu time    0.0440: real time    0.0434
     EDDAV:  cpu time   31.3520: real time   31.7283
 BZINTS: Fermi energy: -4.468978; 65.000000 electrons
         Band energy:-537.285367;  BLOECHL correction: -0.005025
       DOS:  cpu time    0.0040: real time    0.0067
    CHARGE:  cpu time    2.1760: real time    2.1842
    MIXING:  cpu time    0.0560: real time    0.0558
    --------------------------------------------
      LOOP:  cpu time   85.2440: real time   85.8021

 eigenvalue-minimisations  :  1408
 total energy-change (2. order) :-0.3658836E-02  (-0.4493520E-03)
 number of electron      64.9999990 magnetization       3.0500341
 augmentation part        6.2683330 magnetization       1.7481606

 Broyden mixing:
  rms(total) = 0.51750E-01    rms(broyden)= 0.51747E-01
  rms(prec ) = 0.55286E-01
  weight for this iteration     100.00

 eigenvalues of (default mixing * dielectric matrix)
  average eigenvalue GAMMA=   1.3440
  8.1674  2.6864  1.8015  1.8015  1.1314  1.1314  0.6416  0.6416  0.7493  0.7493
  0.6279  0.6279  0.5801  0.5801  0.4122  0.3524  0.1657

 Free energy of the ion-electron system (eV)
  ---------------------------------------------------
  alpha Z        PSCENC =        28.20599243
  Ewald energy   TEWEN  =      8338.88239735
  -Hartree energ DENC   =    -12012.02569117
  -exchange      EXHF   =         0.00000000
  -V(xc)+E(xc)   XCENC  =       121.58424206
  PAW double counting   =      2384.87906757    -2472.70326518
  entropy T*S    EENTRO =         0.00000000
  eigenvalues    EBANDS =      -537.28536678
  atomic energy  EATOM  =      4113.45303949
  Solvation  Ediel_sol  =         0.00000000
[...]
     34      -2.0818      0.00000
     35      -1.9095      0.00000
     36      -0.6222      0.00000
     37      -0.2102      0.00000
     38       0.8796      0.00000
     39       1.0145      0.00000
     40       1.2908      0.00000
     41       1.7955      0.00000
     42       2.0403      0.00000
     43       2.4180      0.00000
     44       2.6677      0.00000
     45       2.7759      0.00000
     46       3.4492      0.00000
     47       3.4876      0.00000
     48       3.7041      0.00000

 k-point     5 :      -0.4000    0.2000    0.0000
  band No.  band energies     occupation 
      1     -18.0476      1.00000
      2     -16.3829      1.00000
      3     -16.1764      1.00000
      4     -15.9852      1.00000
      5     -15.7383      1.00000
      6     -15.5123      1.00000
      7     -12.0167      1.00000
      8     -10.5912      1.00000
      9      -8.7172      1.00000
     10      -8.2902      1.00000
     11      -8.0629      1.00000
     12      -7.5434      1.00000
     13      -7.3490      1.00000
     14      -6.7811      1.00000
     15      -6.3580      1.00000
     16      -6.2141      1.00000
     17      -6.1845      1.00000
     18      -5.8667      1.00000
     19      -5.8644      1.00000
     20      -5.6530      1.00000
     21      -5.5234      1.00000
     22      -4.9061      1.00000
     23      -4.7156      1.00000
     24      -4.6810      1.00000
     25      -4.5387      1.00000
     26      -4.2355      1.00000
     27      -4.2000      1.00000
     28      -4.0563      1.00000
     29      -3.9126      1.00000
     30      -3.8207      1.00000
     31      -3.7885      1.00000
     32      -2.4741     -0.02549
     33      -2.3428      0.00000
     34      -2.0984      0.00000
     35      -1.8115      0.00000
     36      -1.0598      0.00000
     37      -0.3392      0.00000
     38       0.4923      0.00000
     39       0.8263      0.00000
     40       1.2960      0.00000
     41       1.4676      0.00000
     42       1.6119      0.00000
     43       2.7739      0.00000
     44       3.0360      0.00000
     45       3.1106      0.00000
     46       3.3568      0.00000
     47       3.4209      0.00000
     48       3.8169      0.00000


--------------------------------------------------------------------------------------------------------


 soft charge-density along one line, spin component           1
         0         1         2         3         4         5         6         7         8         9
 total charge-density along one line

 soft charge-density along one line, spin component           2
         0         1         2         3         4         5         6         7         8         9
 total charge-density along one line

 pseudopotential strength for first ion, spin component:           1
-11.063  -0.190  -0.000  -0.031   0.000   1.598   0.079   0.000
 -0.190 -11.277   0.000   0.000  -0.031   0.079   1.687  -0.000
 -0.000   0.000 -10.968   0.000   0.000   0.000  -0.000   1.559
 -0.031   0.000   0.000 -11.277   0.190   0.013  -0.000  -0.000
  0.000  -0.031   0.000   0.190 -11.063  -0.000   0.013  -0.000
  1.598   0.079   0.000   0.013  -0.000   0.650  -0.033  -0.000
  0.079   1.687  -0.000  -0.000   0.013  -0.033   0.613   0.000
  0.000  -0.000   1.559  -0.000  -0.000  -0.000   0.000   0.667
  0.013  -0.000  -0.000   1.687  -0.079  -0.005   0.000   0.000
 -0.000   0.013  -0.000  -0.079   1.598   0.000  -0.005   0.000
 -0.000  -0.000   0.009  -0.000   0.000  -0.000  -0.000  -0.003
  0.000   0.000  -0.001   0.000  -0.000  -0.000  -0.000   0.000
  0.002   0.005   0.000  -0.000   0.000  -0.001  -0.001  -0.000
 -0.000  -0.000   0.002  -0.000   0.000  -0.000   0.000  -0.000
  0.000  -0.000   0.000   0.005  -0.002   0.000  -0.000  -0.000
 -0.000   0.000  -0.000   0.000  -0.001   0.000  -0.000   0.000
  0.000   0.000   0.002   0.000  -0.000  -0.000  -0.000  -0.001
 -0.001   0.000  -0.000   0.000   0.000   0.000  -0.000   0.000
 pseudopotential strength for first ion, spin component:           2
-10.362   0.084  -0.000   0.014   0.000   1.298  -0.031   0.000
  0.084 -10.316   0.000   0.000   0.014  -0.031   1.282  -0.000
 -0.000   0.000 -10.451   0.000   0.000   0.000  -0.000   1.332
  0.014   0.000   0.000 -10.316  -0.084  -0.005  -0.000  -0.000
  0.000   0.014   0.000  -0.084 -10.362  -0.000  -0.005  -0.000
  1.298  -0.031   0.000  -0.005  -0.000   0.779   0.011  -0.000
 -0.031   1.282  -0.000  -0.000  -0.005   0.011   0.784   0.000
  0.000  -0.000   1.332  -0.000  -0.000  -0.000   0.000   0.767
 -0.005  -0.000  -0.000   1.282   0.031   0.002   0.000   0.000
 -0.000  -0.005  -0.000   0.031   1.298   0.000   0.002   0.000
 -0.000  -0.000   0.002  -0.000   0.000  -0.000  -0.000  -0.001
  0.000   0.000  -0.000   0.000  -0.000  -0.000  -0.000   0.000
 -0.001  -0.001   0.000  -0.000   0.000   0.000   0.001  -0.000
 -0.000  -0.000  -0.000  -0.000  -0.000  -0.000   0.000   0.001
  0.000  -0.000   0.000  -0.001   0.001   0.000  -0.000  -0.000
 -0.000   0.001  -0.000   0.000  -0.000  -0.000  -0.001   0.000
  0.000   0.000   0.002   0.000   0.000  -0.000  -0.000  -0.001
 -0.000   0.000  -0.000   0.001   0.000   0.000  -0.000   0.000
 total augmentation occupancy for first ion, spin component:           1
  1.797  -0.197   0.000  -0.029  -0.000  -0.007   0.086  -0.000   0.015   0.000  -0.000  -0.000   0.015   0.000   0.005  -0.002
 -0.197   1.607  -0.000  -0.000  -0.029   0.083   0.082   0.000   0.000   0.015   0.000   0.000   0.028  -0.000   0.002  -0.005
  0.000  -0.000   1.940  -0.000  -0.000  -0.000   0.000  -0.080   0.000   0.000  -0.016  -0.010   0.000   0.003   0.000  -0.000
 -0.029  -0.000  -0.000   1.607   0.197   0.015  -0.000   0.000   0.082  -0.083   0.000   0.000  -0.002  -0.000   0.028   0.000
 -0.000  -0.029  -0.000   0.197   1.797  -0.000   0.015   0.000  -0.086  -0.007   0.000   0.000   0.005  -0.000  -0.015  -0.001
 -0.007   0.083  -0.000   0.015  -0.000   0.099   0.077   0.000   0.017  -0.000   0.000  -0.000   0.012   0.000   0.011  -0.001
  0.086   0.082   0.000  -0.000   0.015   0.077   0.184   0.000  -0.000   0.017  -0.000   0.000   0.029   0.000  -0.002  -0.003
 -0.000   0.000  -0.080   0.000   0.000   0.000   0.000   0.074   0.000  -0.000   0.034  -0.017   0.000   0.009   0.000   0.000
  0.015   0.000   0.000   0.082  -0.086   0.017  -0.000   0.000   0.184  -0.077   0.000  -0.000   0.002   0.000   0.029  -0.000
  0.000   0.015   0.000  -0.083  -0.007  -0.000   0.017  -0.000  -0.077   0.099  -0.000   0.000   0.011  -0.000  -0.012  -0.002
 -0.000   0.000  -0.016   0.000   0.000   0.000  -0.000   0.034  -0.000  -0.000   0.982  -0.294  -0.000   0.050  -0.000   0.000
 -0.000   0.000  -0.010   0.000   0.000  -0.000   0.000  -0.017  -0.000   0.000  -0.294   0.153   0.000  -0.020   0.000  -0.000
  0.015   0.028   0.000  -0.002   0.005   0.012   0.029   0.000   0.002   0.011   0.000   0.000   0.185  -0.000  -0.000  -0.015
  0.000   0.000   0.003  -0.000  -0.000   0.000   0.000   0.009  -0.000  -0.000   0.050  -0.020  -0.000   0.197  -0.000   0.000
  0.005   0.002   0.000   0.028  -0.015   0.011  -0.002   0.000   0.029  -0.012  -0.000   0.000  -0.000  -0.000   0.185  -0.000
 -0.002  -0.005  -0.000   0.000  -0.001  -0.001  -0.003   0.000  -0.000  -0.002   0.000  -0.000  -0.015   0.000  -0.000   0.002
 -0.000   0.000  -0.003   0.000   0.000  -0.000   0.000  -0.001   0.000   0.000  -0.006   0.004   0.000  -0.018   0.000  -0.000
 -0.001  -0.000  -0.000  -0.005   0.002  -0.002   0.000  -0.000  -0.003   0.001   0.000  -0.000   0.000   0.000  -0.015  -0.000
 total augmentation occupancy for first ion, spin component:           2
  0.093   0.153   0.000   0.025  -0.000  -0.087  -0.076  -0.000  -0.013   0.000   0.000   0.000  -0.012  -0.000  -0.001  -0.000
  0.153   0.240   0.000  -0.000   0.025  -0.074  -0.161  -0.000   0.000  -0.013  -0.000   0.000  -0.020   0.000   0.001  -0.000
  0.000   0.000  -0.007   0.000  -0.000  -0.000  -0.000  -0.038  -0.000   0.000   0.003   0.003  -0.000  -0.001  -0.000  -0.000
  0.025  -0.000   0.000   0.240  -0.153  -0.013  -0.000  -0.000  -0.161   0.074   0.000   0.000  -0.001   0.000  -0.020  -0.000
 -0.000   0.025  -0.000  -0.153   0.093  -0.000  -0.013   0.000   0.076  -0.087  -0.000  -0.000  -0.001   0.000   0.012   0.000
 -0.087  -0.074  -0.000  -0.013  -0.000   0.024   0.032   0.000   0.006  -0.000   0.000   0.000   0.004   0.000   0.000   0.000
 -0.076  -0.161  -0.000  -0.000  -0.013   0.032   0.056   0.000  -0.000   0.006   0.000   0.000   0.007   0.000  -0.001   0.000
 -0.000  -0.000  -0.038  -0.000   0.000   0.000   0.000   0.005   0.000  -0.000   0.000   0.001   0.000   0.000   0.000   0.000
 -0.013   0.000  -0.000  -0.161   0.076   0.006  -0.000   0.000   0.056  -0.032   0.000   0.000   0.001   0.000   0.007   0.000
  0.000  -0.013   0.000   0.074  -0.087  -0.000   0.006  -0.000  -0.032   0.024  -0.000  -0.000   0.000  -0.000  -0.004   0.000
  0.000  -0.000   0.003   0.000  -0.000   0.000   0.000   0.000   0.000  -0.000   0.007   0.029  -0.000  -0.001   0.000   0.000
  0.000   0.000   0.003   0.000  -0.000   0.000   0.000   0.001   0.000  -0.000   0.029  -0.017   0.000   0.002   0.000   0.000
 -0.012  -0.020  -0.000  -0.001  -0.001   0.004   0.007   0.000   0.001   0.000  -0.000  -0.000   0.001   0.000  -0.000   0.001
 -0.000   0.000  -0.001   0.000   0.000   0.000  -0.000   0.000   0.000  -0.000  -0.001   0.002  -0.000   0.001  -0.000  -0.000
 -0.001   0.001  -0.000  -0.020   0.012   0.000  -0.001   0.000   0.007  -0.004   0.000   0.000  -0.000  -0.000   0.001   0.000
 -0.000  -0.000  -0.000  -0.000   0.000   0.000   0.000   0.000   0.000   0.000   0.000   0.000   0.001  -0.000   0.000  -0.000
 -0.000   0.000  -0.000   0.000   0.000   0.000   0.000   0.000  -0.000  -0.000   0.000  -0.000  -0.000   0.001  -0.000   0.000
  0.000   0.000  -0.000  -0.000   0.000   0.000  -0.000   0.000   0.000  -0.000   0.000   0.000  -0.000  -0.000   0.001   0.000


------------------------ aborting loop because EDIFF is reached ----------------------------------------





 total charge     

# of ion       s       p       d       tot
------------------------------------------
    1        0.383   0.436   8.306   9.125
    2        0.383   0.436   8.305   9.124
    3        1.005   1.432   0.000   2.437
    4        1.121   1.187   0.144   2.453
    5        1.380   2.274   0.000   3.653
    6        1.375   2.314   0.000   3.689
    7        1.378   2.285   0.000   3.664
    8        1.378   2.313   0.000   3.691
    9        1.365   2.310   0.000   3.675
   10        1.375   2.310   0.000   3.685
--------------------------------------------------
tot         11.143  17.297  16.755  45.195



 magnetization (x)

# of ion       s       p       d       tot
------------------------------------------
    1       -0.002  -0.000   0.898   0.896
    2       -0.002  -0.000   0.899   0.897
    3        0.003   0.000   0.000   0.003
    4        0.006   0.023   0.008   0.037
    5        0.014   0.099   0.000   0.113
    6        0.013   0.100   0.000   0.113
    7        0.013   0.103   0.000   0.116
    8        0.010   0.107   0.000   0.117
    9        0.010   0.080   0.000   0.090
   10        0.010   0.097   0.000   0.107
--------------------------------------------------
tot          0.076   0.608   1.805   2.489

    CHARGE:  cpu time    2.1680: real time    2.1857
    FORLOC:  cpu time    0.0760: real time    0.0761
    FORNL :  cpu time    6.7040: real time    6.7236
    STRESS:  cpu time   19.9800: real time   20.1209
    FORCOR:  cpu time   51.5360: real time   51.8821
    FORHAR:  cpu time    0.3360: real time    0.3362
    MIXING:  cpu time    0.0400: real time    0.0408
    OFIELD:  cpu time    0.0000: real time    0.0001

  FORCE on cell =-STRESS in cart. coord.  units (eV):
  Direction    XX          YY          ZZ          XY          YZ          ZX
  --------------------------------------------------------------------------------------
  Alpha Z    41.09558    41.09558    41.09558
  Ewald   14280.28350 14280.28063-16627.08723    -0.00225    -0.00063    -0.00114
  Hartree 15034.56090 15034.56189-14424.35272    -0.00048     0.00006     0.00010
  E(xc)    -272.50241  -272.50243  -272.22306     0.00003     0.00000     0.00001
  Local  -30226.93529-30226.93489 30093.09540     0.00230     0.00037     0.00069
  n-local   444.44323   445.60864   450.10513     0.52388     0.29198     0.18027
  augment    -7.09704    -7.09692   -12.61024     0.00003     0.00004     0.00004
  Kinetic   710.27028   700.42806   751.96186    -5.03327    -0.50753    -0.75646
  Fock        0.00000     0.00000     0.00000     0.00000     0.00000     0.00000
  -------------------------------------------------------------------------------------
  Total      -0.22034    -0.22034    -0.01527     0.00000     0.00000    -0.00000
  in kB      -0.53089    -0.53089    -0.03680     0.00000     0.00000    -0.00000
  external pressure =       -0.37 kB  Pullay stress =        0.00 kB


 VOLUME and BASIS-vectors are now :
 -----------------------------------------------------------------------------
  energy-cutoff  :      520.00
  volume of cell :      664.96
      direct lattice vectors                 reciprocal lattice vectors
     5.875384296  0.000000080 -0.000000000     0.170201634 -0.098265951  0.000000000
     2.937691805  5.088231896 -0.000000000    -0.000000003  0.196531925  0.000000000
    -0.000000000 -0.000000000 22.242975885     0.000000000  0.000000000  0.044958013

  length of vectors
     5.875384296  5.875383985 22.242975885     0.196531914  0.196531925  0.044958013


 FORCES acting on ions
    electron-ion (+dipol)            ewald-force                    non-local-force                 convergence-correction
 -----------------------------------------------------------------------------------------------
   -.128E-03 -.701E-04 0.908E+01   0.893E-03 0.528E-03 -.846E+01   0.691E-18 0.716E-18 -.631E+00   0.422E-06 -.521E-06 -.206E-01
   0.110E-03 0.124E-03 0.106E+02   -.900E-03 -.533E-03 -.998E+01   0.671E-18 -.132E-16 -.613E+00   0.310E-06 -.496E-06 -.204E-01
   -.377E-04 -.412E-04 0.317E+03   -.271E-03 -.151E-03 -.310E+03   0.211E-16 0.213E-16 -.657E+01   -.356E-07 -.229E-07 0.170E-01
   0.164E-04 0.397E-04 -.310E+03   0.216E-03 0.121E-03 0.308E+03   0.770E-17 -.280E-17 0.247E+01   -.471E-07 -.287E-07 -.233E-01
   -.343E+02 0.110E+00 -.608E+03   0.303E+02 -.114E+00 0.612E+03   0.398E+01 0.526E-02 -.368E+01   -.250E-02 -.285E-02 -.473E-01
   0.172E+02 0.296E+02 -.608E+03   -.153E+02 -.262E+02 0.612E+03   -.199E+01 -.345E+01 -.368E+01   -.122E-02 0.359E-02 -.473E-01
   0.171E+02 -.298E+02 -.608E+03   -.151E+02 0.263E+02 0.612E+03   -.200E+01 0.345E+01 -.368E+01   0.372E-02 -.740E-03 -.473E-01
   0.115E+01 -.101E+00 0.601E+03   0.241E+01 0.111E+00 -.605E+03   -.355E+01 -.710E-02 0.388E+01   0.513E-02 -.237E-02 0.347E-01
   -.661E+00 -.942E+00 0.601E+03   -.111E+01 -.214E+01 -.605E+03   0.177E+01 0.308E+01 0.388E+01   -.462E-02 -.326E-02 0.347E-01
   -.484E+00 0.105E+01 0.601E+03   -.130E+01 0.203E+01 -.605E+03   0.178E+01 -.307E+01 0.388E+01   -.512E-03 0.563E-02 0.347E-01
 -----------------------------------------------------------------------------------------------
   -.115E-03 0.504E-04 0.483E+01   0.178E-14 -.142E-13 -.114E-12   0.444E-15 0.444E-15 -.475E+01   0.682E-06 -.105E-05 -.850E-01


 POSITION                                       TOTAL-FORCE (eV/Angst)
 -----------------------------------------------------------------------------------
      2.93769      1.69608     11.08122         0.000000      0.000000     -0.038889
      5.87539      3.39216     11.07860         0.000000      0.000000     -0.029199
     -0.00000     -0.00000      9.97982         0.000000      0.000000     -0.012486
     -0.00000     -0.00000     12.27332        -0.000000     -0.000000      0.200651
      3.62248     -0.00043     12.55575         0.009348     -0.000049     -0.016263
      1.12609      1.95129     12.55575        -0.004717     -0.008071     -0.016263
      4.06452      3.13737     12.55575        -0.004631      0.008120     -0.016263
      2.02769      0.00040      9.52365         0.017243     -0.000278     -0.023762
      1.92419      3.33200      9.52365        -0.008863     -0.014794     -0.023762
      4.86119      1.75583      9.52365        -0.008381      0.015072     -0.023762
 -----------------------------------------------------------------------------------
    total drift:                               -0.000114      0.000049     -0.011529


--------------------------------------------------------------------------------------------------------



  FREE ENERGIE OF THE ION-ELECTRON SYSTEM (eV)
  ---------------------------------------------------
  free  energy   TOTEN  =       -42.75702637 eV

  energy  without entropy=      -42.75702637  energy(sigma->0) =      -42.75702637

 d Force = 0.1382251E-04[ 0.110E-04, 0.166E-04]  d Energy = 0.3407801E-03-0.327E-03
 d Force =-0.3345393E+00[-0.335E+00,-0.335E+00]  d Ewald  =-0.1235196E+01 0.901E+00


--------------------------------------------------------------------------------------------------------


    POTLOK:  cpu time   51.9080: real time   52.1068


--------------------------------------------------------------------------------------------------------




--------------------------------------------------------------------------------------------------------


  
 reached required accuracy - stopping structural energy minimisation
     LOOP+:  cpu time  430.1640: real time  432.2924
    4ORBIT:  cpu time    0.0000: real time    0.0000



 total charge     

# of ion       s       p       d       tot
------------------------------------------
    1        0.383   0.436   8.306   9.125
    2        0.383   0.436   8.305   9.124
    3        1.005   1.432   0.000   2.437
    4        1.121   1.187   0.144   2.453
    5        1.380   2.274   0.000   3.653
    6        1.375   2.314   0.000   3.689
    7        1.378   2.285   0.000   3.664
    8        1.378   2.313   0.000   3.691
    9        1.365   2.310   0.000   3.675
   10        1.375   2.310   0.000   3.685
--------------------------------------------------
tot         11.143  17.297  16.755  45.195



 magnetization (x)

# of ion       s       p       d       tot
------------------------------------------
    1       -0.002  -0.000   0.898   0.896
    2       -0.002  -0.000   0.899   0.897
    3        0.003   0.000   0.000   0.003
    4        0.006   0.023   0.008   0.037
    5        0.014   0.099   0.000   0.113
    6        0.013   0.100   0.000   0.113
    7        0.013   0.103   0.000   0.116
    8        0.010   0.107   0.000   0.117
    9        0.010   0.080   0.000   0.090
   10        0.010   0.097   0.000   0.107
--------------------------------------------------
tot          0.076   0.608   1.805   2.489

 BZINTS: Fermi energy: -2.652558; 65.000000 electrons
         Band energy:-522.444395;  BLOECHL correction: -0.014783

 total amount of memory used by VASP MPI-rank0   131314. kBytes
=======================================================================

   base      :      30000. kBytes
   nonlr-proj:       8829. kBytes
   fftplans  :      11247. kBytes
   grid      :      68332. kBytes
   one-center:        311. kBytes
   wavefun   :      12595. kBytes

  
  
 General timing and accounting informations for this job:
 ========================================================
  
                  Total CPU time used (sec):    21986.332
                            User time (sec):    21417.620
                          System time (sec):      568.712
                         Elapsed time (sec):    22158.128
  
                   Maximum memory used (kb):      388848.
                   Average memory used (kb):           0.
  
                          Minor page faults:     22363370
                          Major page faults:            5
                 Voluntary context switches:         1056
