PROCAR lm decomposed
# of k-points:    5         # of bands:   48         # of ions:   10

 k-point     1 :    0.00000000 0.00000000 0.00000000     weight = 0.04000000

band     1 # energy  -18.54903021 # occ.  1.00000000

ion      s     py     pz     px    dxy    dyz    dz2    dxz  x2-y2    tot
    1  0.009  0.000  0.000  0.000  0.000  0.000  0.000  0.000  0.000  0.009
    2  0.009  0.000  0.000  0.000  0.000  0.000  0.000  0.000  0.000  0.009
    3  0.193  0.000  0.000  0.000  0.000  0.000  0.000  0.000  0.000  0.193
    4  0.031  0.000  0.003  0.000  0.000  0.000  0.000  0.000  0.000  0.034
    5  0.018  0.000  0.000  0.000  0.000  0.000  0.000  0.000  0.000  0.019
    6  0.018  0.000  0.000  0.000  0.000  0.000  0.000  0.000  0.000  0.019
    7  0.018  0.000  0.000  0.000  0.000  0.000  0.000  0.000  0.000  0.019
    8  0.104  0.000  0.001  0.006  0.000  0.000  0.000  0.000  0.000  0.112
    9  0.104  0.005  0.001  0.002  0.000  0.000  0.000  0.000  0.000  0.112
   10  0.104  0.005  0.001  0.002  0.000  0.000  0.000  0.000  0.000  0.112
tot    0.609  0.009  0.008  0.009  0.000  0.000  0.000  0.000  0.000  0.636

band     2 # energy  -17.02352954 # occ.  1.00000000

ion      s     py     pz     px    dxy    dyz    dz2    dxz  x2-y2    tot
    1  0.006  0.000  0.007  0.000  0.000  0.000  0.000  0.000  0.000  0.013
    2  0.006  0.000  0.007  0.000  0.000  0.000  0.000  0.000  0.000  0.013
    3  0.025  0.000  0.003  0.000  0.000  0.000  0.000  0.000  0.000  0.028
    4  0.082  0.000  0.001  0.000  0.000  0.000  0.002  0.000  0.000  0.085
    5  0.153  0.000  0.000  0.001  0.000  0.000  0.000  0.000  0.000  0.155
    6  0.153  0.001  0.000  0.000  0.000  0.000  0.000  0.000  0.000  0.155
    7  0.153  0.001  0.000  0.000  0.000  0.000  0.000  0.000  0.000  0.155
    8  0.023  0.000  0.000  0.001  0.000  0.000  0.000  0.000  0.000  0.024
    9  0.023  0.001  0.000  0.000  0.000  0.000  0.000  0.000  0.000  0.024
   10  0.023  0.001  0.000  0.000  0.000  0.000  0.000  0.000  0.000  0.024
tot    0.647  0.004  0.019  0.004  0.000  0.000  0.002  0.000  0.000  0.675

band     3 # energy  -15.76396134 # occ.  1.00000000

ion      s     py     pz     px    dxy    dyz    dz2    dxz  x2-y2    tot
    1  0.000  0.002  0.000  0.001  0.001  0.002  0.000  0.001  0.000  0.008
    2  0.000  0.002  0.000  0.001  0.001  0.002  0.000  0.001  0.000  0.008
    3  0.000  0.000  0.000  0.048  0.000  0.000  0.000  0.000  0.000  0.048
    4  0.000  0.000  0.000  0.001  0.000  0.000  0.000  0.000  0.000  0.001
    5  0.001  0.000  0.000  0.000  0.000  0.000  0.000  0.000  0.000  0.001
    6  0.000  0.000  0.000  0.000  0.000  0.000  0.000  0.000  0.000  0.000
    7  0.000  0.000  0.000  0.000  0.000  0.000  0.000  0.000  0.000  0.000
    8  0.421  0.000  0.002  0.008  0.000  0.000  0.000  0.000  0.000  0.431
    9  0.113  0.002  0.001  0.000  0.000  0.000  0.000  0.000  0.000  0.116
   10  0.098  0.002  0.001  0.000  0.000  0.000  0.000  0.000  0.000  0.100
tot    0.633  0.008  0.004  0.059  0.003  0.005  0.000  0.001  0.001  0.713

band     4 # energy  -15.76391497 # occ.  1.00000000

ion      s     py     pz     px    dxy    dyz    dz2    dxz  x2-y2    tot
    1  0.000  0.001  0.000  0.002  0.000  0.001  0.000  0.002  0.001  0.008
    2  0.000  0.001  0.000  0.002  0.000  0.001  0.000  0.002  0.001  0.008
    3  0.000  0.048  0.000  0.000  0.000  0.000  0.000  0.000  0.000  0.048
    4  0.000  0.001  0.000  0.000  0.000  0.000  0.000  0.000  0.000  0.001
    5  0.000  0.000  0.000  0.000  0.000  0.000  0.000  0.000  0.000  0.000
    6  0.001  0.000  0.000  0.000  0.000  0.000  0.000  0.000  0.000  0.001
    7  0.001  0.000  0.000  0.000  0.000  0.000  0.000  0.000  0.000  0.001
    8  0.000  0.000  0.000  0.000  0.000  0.000  0.000  0.000  0.000  0.000
    9  0.308  0.004  0.002  0.002  0.000  0.000  0.000  0.000  0.000  0.315
   10  0.323  0.004  0.002  0.002  0.000  0.000  0.000  0.000  0.000  0.331
tot    0.633  0.059  0.004  0.008  0.001  0.001  0.000  0.005  0.003  0.713

band     5 # energy  -15.30383718 # occ.  1.00000000

ion      s     py     pz     px    dxy    dyz    dz2    dxz  x2-y2    tot
    1  0.000  0.005  0.000  0.002  0.001  0.004  0.000  0.002  0.002  0.015
    2  0.000  0.006  0.000  0.000  0.002  0.005  0.000  0.000  0.001  0.015
    3  0.000  0.000  0.000  0.000  0.000  0.000  0.000  0.000  0.000  0.000
    4  0.000  0.001  0.000  0.027  0.000  0.000  0.000  0.000  0.004  0.032
    5  0.432  0.000  0.002  0.003  0.000  0.000  0.000  0.000  0.000  0.436
    6  0.181  0.001  0.001  0.000  0.000  0.000  0.000  0.000  0.000  0.183
    7  0.054  0.000  0.000  0.000  0.000  0.000  0.000  0.000  0.000  0.054
    8  0.002  0.000  0.000  0.000  0.000  0.000  0.000  0.000  0.000  0.002
    9  0.001  0.000  0.000  0.000  0.000  0.000  0.000  0.000  0.000  0.001
   10  0.000  0.000  0.000  0.000  0.000  0.000  0.000  0.000  0.000  0.000
tot    0.670  0.013  0.003  0.032  0.003  0.009  0.000  0.003  0.007  0.739

band     6 # energy  -15.30379374 # occ.  1.00000000

ion      s     py     pz     px    dxy    dyz    dz2    dxz  x2-y2    tot
    1  0.000  0.002  0.000  0.005  0.002  0.002  0.000  0.004  0.001  0.015
    2  0.000  0.000  0.000  0.006  0.001  0.000  0.000  0.005  0.002  0.015
    3  0.000  0.000  0.000  0.000  0.000  0.000  0.000  0.000  0.000  0.000
    4  0.000  0.027  0.000  0.001  0.004  0.000  0.000  0.000  0.000  0.032
    5  0.012  0.000  0.000  0.000  0.000  0.000  0.000  0.000  0.000  0.013
    6  0.264  0.001  0.001  0.000  0.000  0.000  0.000  0.000  0.000  0.266
    7  0.391  0.002  0.002  0.001  0.000  0.000  0.000  0.000  0.000  0.395
    8  0.000  0.000  0.000  0.000  0.000  0.000  0.000  0.000  0.000  0.000
    9  0.001  0.000  0.000  0.000  0.000  0.000  0.000  0.000  0.000  0.001
   10  0.002  0.000  0.000  0.000  0.000  0.000  0.000  0.000  0.000  0.002
tot    0.670  0.032  0.003  0.013  0.007  0.003  0.000  0.009  0.003  0.739

band     7 # energy  -12.88900870 # occ.  1.00000000

ion      s     py     pz     px    dxy    dyz    dz2    dxz  x2-y2    tot
    1  0.017  0.000  0.001  0.000  0.000  0.000  0.001  0.000  0.000  0.019
    2  0.017  0.000  0.001  0.000  0.000  0.000  0.001  0.000  0.000  0.019
    3  0.195  0.000  0.009  0.000  0.000  0.000  0.000  0.000  0.000  0.204
    4  0.109  0.000  0.013  0.000  0.000  0.000  0.002  0.000  0.000  0.124
    5  0.009  0.000  0.000  0.006  0.000  0.000  0.000  0.000  0.000  0.014
    6  0.008  0.004  0.000  0.001  0.000  0.000  0.000  0.000  0.000  0.014
    7  0.008  0.004  0.000  0.001  0.000  0.000  0.000  0.000  0.000  0.014
    8  0.063  0.000  0.000  0.020  0.000  0.000  0.000  0.000  0.000  0.083
    9  0.063  0.015  0.000  0.005  0.000  0.000  0.000  0.000  0.000  0.083
   10  0.063  0.015  0.000  0.005  0.000  0.000  0.000  0.000  0.000  0.083
tot    0.554  0.039  0.024  0.039  0.000  0.000  0.004  0.000  0.000  0.660

band     8 # energy  -10.63459792 # occ.  1.00000000

ion      s     py     pz     px    dxy    dyz    dz2    dxz  x2-y2    tot
    1  0.000  0.000  0.010  0.000  0.000  0.000  0.000  0.000  0.000  0.010
    2  0.000  0.000  0.010  0.000  0.000  0.000  0.001  0.000  0.000  0.010
    3  0.065  0.000  0.036  0.000  0.000  0.000  0.000  0.000  0.000  0.101
    4  0.294  0.000  0.000  0.000  0.000  0.000  0.000  0.000  0.000  0.294
    5  0.024  0.000  0.000  0.028  0.000  0.000  0.000  0.000  0.000  0.052
    6  0.024  0.021  0.000  0.007  0.000  0.000  0.000  0.000  0.000  0.052
    7  0.024  0.021  0.000  0.007  0.000  0.000  0.000  0.000  0.000  0.052
    8  0.012  0.000  0.000  0.022  0.000  0.000  0.000  0.000  0.000  0.034
    9  0.012  0.017  0.000  0.006  0.000  0.000  0.000  0.000  0.000  0.034
   10  0.012  0.017  0.000  0.006  0.000  0.000  0.000  0.000  0.000  0.034
tot    0.465  0.075  0.057  0.075  0.000  0.000  0.001  0.000  0.000  0.674

band     9 # energy   -8.83659051 # occ.  1.00000000

ion      s     py     pz     px    dxy    dyz    dz2    dxz  x2-y2    tot
    1  0.000  0.000  0.000  0.004  0.000  0.015  0.000  0.025  0.001  0.045
    2  0.000  0.004  0.000  0.000  0.001  0.015  0.000  0.025  0.000  0.045
    3  0.000  0.070  0.000  0.041  0.000  0.000  0.000  0.000  0.000  0.111
    4  0.000  0.011  0.000  0.007  0.000  0.000  0.000  0.000  0.000  0.018
    5  0.002  0.004  0.001  0.007  0.000  0.000  0.000  0.000  0.000  0.013
    6  0.005  0.015  0.002  0.003  0.000  0.000  0.000  0.000  0.000  0.026
    7  0.001  0.000  0.000  0.008  0.000  0.000  0.000  0.000  0.000  0.009
    8  0.010  0.023  0.001  0.046  0.000  0.000  0.000  0.000  0.000  0.080
    9  0.026  0.100  0.002  0.024  0.000  0.000  0.000  0.000  0.000  0.152
   10  0.004  0.001  0.000  0.049  0.000  0.000  0.000  0.000  0.000  0.054
tot    0.047  0.229  0.006  0.189  0.001  0.030  0.000  0.051  0.001  0.553

band    10 # energy   -8.83656299 # occ.  1.00000000

ion      s     py     pz     px    dxy    dyz    dz2    dxz  x2-y2    tot
    1  0.000  0.004  0.000  0.000  0.001  0.025  0.000  0.015  0.000  0.045
    2  0.000  0.000  0.000  0.004  0.000  0.025  0.000  0.015  0.001  0.045
    3  0.000  0.041  0.000  0.070  0.000  0.000  0.000  0.000  0.000  0.111
    4  0.000  0.007  0.000  0.011  0.000  0.000  0.000  0.000  0.000  0.018
    5  0.003  0.002  0.001  0.012  0.000  0.000  0.000  0.000  0.000  0.019
    6  0.000  0.001  0.000  0.006  0.000  0.000  0.000  0.000  0.000  0.007
    7  0.004  0.015  0.002  0.001  0.000  0.000  0.000  0.000  0.000  0.023
    8  0.017  0.013  0.001  0.080  0.000  0.000  0.000  0.000  0.000  0.111
    9  0.000  0.003  0.000  0.035  0.000  0.000  0.000  0.000  0.000  0.038
   10  0.022  0.103  0.002  0.010  0.000  0.000  0.000  0.000  0.000  0.136
tot    0.047  0.189  0.006  0.229  0.001  0.051  0.000  0.030  0.001  0.553

band    11 # energy   -8.72466920 # occ.  1.00000000

ion      s     py     pz     px    dxy    dyz    dz2    dxz  x2-y2    tot
    1  0.041  0.000  0.000  0.000  0.000  0.000  0.009  0.000  0.000  0.050
    2  0.041  0.000  0.000  0.000  0.000  0.000  0.009  0.000  0.000  0.051
    3  0.002  0.000  0.069  0.000  0.000  0.000  0.000  0.000  0.000  0.071
    4  0.023  0.000  0.065  0.000  0.000  0.000  0.002  0.000  0.000  0.090
    5  0.001  0.000  0.030  0.012  0.000  0.000  0.000  0.000  0.000  0.044
    6  0.001  0.009  0.030  0.003  0.000  0.000  0.000  0.000  0.000  0.044
    7  0.001  0.009  0.030  0.003  0.000  0.000  0.000  0.000  0.000  0.044
    8  0.004  0.000  0.033  0.005  0.000  0.000  0.000  0.000  0.000  0.042
    9  0.004  0.004  0.033  0.001  0.000  0.000  0.000  0.000  0.000  0.042
   10  0.004  0.004  0.033  0.001  0.000  0.000  0.000  0.000  0.000  0.042
tot    0.123  0.026  0.324  0.026  0.000  0.000  0.021  0.000  0.000  0.520

band    12 # energy   -8.27165495 # occ.  1.00000000

ion      s     py     pz     px    dxy    dyz    dz2    dxz  x2-y2    tot
    1  0.000  0.016  0.000  0.001  0.005  0.019  0.000  0.003  0.004  0.049
    2  0.000  0.008  0.000  0.009  0.000  0.001  0.000  0.021  0.009  0.048
    3  0.000  0.004  0.000  0.012  0.000  0.000  0.000  0.000  0.000  0.016
    4  0.000  0.020  0.000  0.068  0.000  0.000  0.000  0.001  0.000  0.089
    5  0.002  0.009  0.003  0.108  0.000  0.000  0.000  0.000  0.000  0.122
    6  0.002  0.108  0.003  0.005  0.000  0.000  0.000  0.000  0.000  0.118
    7  0.000  0.011  0.000  0.029  0.000  0.000  0.000  0.000  0.000  0.040
    8  0.000  0.002  0.004  0.023  0.000  0.000  0.000  0.000  0.000  0.029
    9  0.000  0.022  0.004  0.001  0.000  0.000  0.000  0.000  0.000  0.028
   10  0.000  0.002  0.000  0.005  0.000  0.000  0.000  0.000  0.000  0.007
tot    0.004  0.203  0.014  0.260  0.006  0.020  0.000  0.024  0.014  0.545

band    13 # energy   -8.27163062 # occ.  1.00000000

ion      s     py     pz     px    dxy    dyz    dz2    dxz  x2-y2    tot
    1  0.000  0.001  0.000  0.016  0.004  0.003  0.000  0.019  0.005  0.049
    2  0.000  0.009  0.000  0.008  0.009  0.021  0.000  0.001  0.000  0.048
    3  0.000  0.012  0.000  0.004  0.000  0.000  0.000  0.000  0.000  0.016
    4  0.000  0.068  0.000  0.020  0.000  0.001  0.000  0.000  0.000  0.089
    5  0.001  0.031  0.001  0.033  0.000  0.000  0.000  0.000  0.000  0.065
    6  0.001  0.007  0.001  0.060  0.000  0.000  0.000  0.000  0.000  0.069
    7  0.002  0.104  0.004  0.036  0.000  0.000  0.000  0.000  0.000  0.147
    8  0.000  0.005  0.001  0.007  0.000  0.000  0.000  0.000  0.000  0.014
    9  0.000  0.002  0.001  0.011  0.000  0.000  0.000  0.000  0.000  0.015
   10  0.000  0.022  0.005  0.008  0.000  0.000  0.000  0.000  0.000  0.035
tot    0.004  0.260  0.014  0.203  0.014  0.024  0.000  0.020  0.006  0.545

band    14 # energy   -8.23774017 # occ.  1.00000000

ion      s     py     pz     px    dxy    dyz    dz2    dxz  x2-y2    tot
    1  0.078  0.000  0.005  0.000  0.000  0.000  0.025  0.000  0.000  0.108
    2  0.078  0.000  0.005  0.000  0.000  0.000  0.025  0.000  0.000  0.108
    3  0.000  0.000  0.000  0.000  0.000  0.000  0.000  0.000  0.000  0.000
    4  0.000  0.000  0.000  0.000  0.000  0.000  0.000  0.000  0.000  0.000
    5  0.000  0.095  0.000  0.000  0.000  0.000  0.000  0.000  0.000  0.095
    6  0.000  0.024  0.000  0.071  0.000  0.000  0.000  0.000  0.000  0.095
    7  0.000  0.024  0.000  0.071  0.000  0.000  0.000  0.000  0.000  0.095
    8  0.000  0.022  0.000  0.000  0.000  0.000  0.000  0.000  0.000  0.022
    9  0.000  0.005  0.000  0.016  0.000  0.000  0.000  0.000  0.000  0.022
   10  0.000  0.005  0.000  0.016  0.000  0.000  0.000  0.000  0.000  0.022
tot    0.156  0.175  0.010  0.175  0.000  0.000  0.050  0.000  0.000  0.566

band    15 # energy   -6.62673134 # occ.  1.00000000

ion      s     py     pz     px    dxy    dyz    dz2    dxz  x2-y2    tot
    1  0.005  0.000  0.038  0.000  0.000  0.000  0.003  0.000  0.000  0.046
    2  0.005  0.000  0.038  0.000  0.000  0.000  0.003  0.000  0.000  0.046
    3  0.000  0.000  0.000  0.000  0.000  0.000  0.000  0.000  0.000  0.000
    4  0.000  0.000  0.000  0.000  0.000  0.000  0.000  0.000  0.000  0.000
    5  0.000  0.035  0.000  0.000  0.000  0.000  0.000  0.000  0.000  0.035
    6  0.000  0.009  0.000  0.027  0.000  0.000  0.000  0.000  0.000  0.035
    7  0.000  0.009  0.000  0.027  0.000  0.000  0.000  0.000  0.000  0.035
    8  0.000  0.108  0.000  0.000  0.000  0.000  0.000  0.000  0.000  0.108
    9  0.000  0.027  0.000  0.081  0.000  0.000  0.000  0.000  0.000  0.108
   10  0.000  0.027  0.000  0.081  0.000  0.000  0.000  0.000  0.000  0.108
tot    0.010  0.216  0.076  0.216  0.000  0.000  0.006  0.000  0.000  0.524

band    16 # energy   -6.51054982 # occ.  1.00000000

ion      s     py     pz     px    dxy    dyz    dz2    dxz  x2-y2    tot
    1  0.000  0.001  0.000  0.000  0.000  0.005  0.000  0.180  0.137  0.323
    2  0.000  0.000  0.000  0.000  0.014  0.006  0.000  0.179  0.122  0.322
    3  0.000  0.000  0.000  0.000  0.000  0.000  0.000  0.000  0.000  0.000
    4  0.000  0.000  0.000  0.001  0.000  0.000  0.000  0.000  0.001  0.003
    5  0.001  0.001  0.019  0.005  0.000  0.000  0.000  0.000  0.000  0.026
    6  0.000  0.005  0.002  0.030  0.000  0.000  0.000  0.000  0.000  0.038
    7  0.000  0.001  0.008  0.024  0.000  0.000  0.000  0.000  0.000  0.034
    8  0.001  0.001  0.020  0.006  0.000  0.000  0.000  0.000  0.000  0.029
    9  0.000  0.003  0.002  0.024  0.000  0.000  0.000  0.000  0.000  0.030
   10  0.001  0.001  0.009  0.019  0.000  0.000  0.000  0.000  0.000  0.029
tot    0.004  0.014  0.061  0.109  0.015  0.011  0.000  0.359  0.261  0.833

band    17 # energy   -6.51053293 # occ.  1.00000000

ion      s     py     pz     px    dxy    dyz    dz2    dxz  x2-y2    tot
    1  0.000  0.000  0.000  0.001  0.137  0.180  0.000  0.005  0.000  0.323
    2  0.000  0.000  0.000  0.000  0.122  0.179  0.000  0.006  0.014  0.322
    3  0.000  0.000  0.000  0.000  0.000  0.000  0.000  0.000  0.000  0.000
    4  0.000  0.001  0.000  0.000  0.001  0.000  0.000  0.000  0.000  0.003
    5  0.000  0.038  0.001  0.000  0.000  0.000  0.000  0.000  0.000  0.039
    6  0.001  0.008  0.017  0.001  0.000  0.000  0.000  0.000  0.000  0.027
    7  0.001  0.012  0.011  0.007  0.000  0.000  0.000  0.000  0.000  0.031
    8  0.000  0.029  0.001  0.000  0.000  0.000  0.000  0.000  0.000  0.030
    9  0.001  0.009  0.019  0.000  0.000  0.000  0.000  0.000  0.000  0.029
   10  0.001  0.011  0.012  0.004  0.000  0.000  0.000  0.000  0.000  0.029
tot    0.004  0.109  0.061  0.014  0.261  0.359  0.000  0.011  0.015  0.833

band    18 # energy   -6.22500609 # occ.  1.00000000

ion      s     py     pz     px    dxy    dyz    dz2    dxz  x2-y2    tot
    1  0.000  0.000  0.000  0.001  0.084  0.098  0.000  0.028  0.045  0.256
    2  0.000  0.000  0.000  0.001  0.116  0.101  0.000  0.025  0.013  0.257
    3  0.000  0.000  0.000  0.001  0.000  0.000  0.000  0.000  0.000  0.002
    4  0.000  0.000  0.000  0.001  0.000  0.001  0.000  0.002  0.000  0.003
    5  0.007  0.000  0.060  0.000  0.000  0.000  0.000  0.000  0.000  0.067
    6  0.006  0.000  0.054  0.000  0.000  0.000  0.000  0.000  0.000  0.060
    7  0.000  0.000  0.000  0.001  0.000  0.000  0.000  0.000  0.000  0.001
    8  0.006  0.001  0.055  0.000  0.000  0.000  0.000  0.000  0.000  0.062
    9  0.005  0.001  0.049  0.000  0.000  0.000  0.000  0.000  0.000  0.055
   10  0.000  0.001  0.000  0.002  0.000  0.000  0.000  0.000  0.000  0.003
tot    0.024  0.004  0.218  0.007  0.201  0.200  0.000  0.055  0.058  0.766

band    19 # energy   -6.22499079 # occ.  1.00000000

ion      s     py     pz     px    dxy    dyz    dz2    dxz  x2-y2    tot
    1  0.000  0.001  0.000  0.000  0.045  0.028  0.000  0.098  0.084  0.256
    2  0.000  0.001  0.000  0.000  0.013  0.025  0.000  0.101  0.116  0.257
    3  0.000  0.001  0.000  0.000  0.000  0.000  0.000  0.000  0.000  0.002
    4  0.000  0.001  0.000  0.000  0.000  0.002  0.000  0.001  0.000  0.003
    5  0.002  0.001  0.016  0.000  0.000  0.000  0.000  0.000  0.000  0.018
    6  0.002  0.000  0.022  0.000  0.000  0.000  0.000  0.000  0.000  0.025
    7  0.008  0.000  0.076  0.000  0.000  0.000  0.000  0.000  0.000  0.084
    8  0.002  0.002  0.015  0.000  0.000  0.000  0.000  0.000  0.000  0.018
    9  0.002  0.000  0.020  0.002  0.000  0.000  0.000  0.000  0.000  0.024
   10  0.007  0.000  0.069  0.000  0.000  0.000  0.000  0.000  0.000  0.077
tot    0.024  0.007  0.218  0.004  0.058  0.055  0.000  0.200  0.201  0.766

band    20 # energy   -5.73692714 # occ.  1.00000000

ion      s     py     pz     px    dxy    dyz    dz2    dxz  x2-y2    tot
    1  0.004  0.000  0.002  0.000  0.000  0.000  0.166  0.000  0.000  0.172
    2  0.004  0.000  0.003  0.000  0.000  0.000  0.164  0.000  0.000  0.170
    3  0.008  0.000  0.081  0.000  0.000  0.000  0.000  0.000  0.000  0.089
    4  0.001  0.000  0.016  0.000  0.000  0.000  0.008  0.000  0.000  0.025
    5  0.000  0.000  0.051  0.008  0.000  0.000  0.000  0.000  0.000  0.059
    6  0.000  0.006  0.051  0.002  0.000  0.000  0.000  0.000  0.000  0.059
    7  0.000  0.006  0.051  0.002  0.000  0.000  0.000  0.000  0.000  0.059
    8  0.000  0.000  0.006  0.007  0.000  0.000  0.000  0.000  0.000  0.013
    9  0.000  0.005  0.006  0.002  0.000  0.000  0.000  0.000  0.000  0.013
   10  0.000  0.005  0.006  0.002  0.000  0.000  0.000  0.000  0.000  0.013
tot    0.017  0.022  0.273  0.022  0.000  0.000  0.338  0.000  0.000  0.672

band    21 # energy   -5.23574618 # occ.  1.00000000

ion      s     py     pz     px    dxy    dyz    dz2    dxz  x2-y2    tot
    1  0.000  0.009  0.000  0.002  0.017  0.008  0.000  0.070  0.035  0.140
    2  0.000  0.010  0.000  0.000  0.034  0.031  0.000  0.047  0.016  0.138
    3  0.000  0.001  0.000  0.028  0.000  0.000  0.000  0.000  0.000  0.029
    4  0.000  0.000  0.000  0.007  0.000  0.000  0.000  0.000  0.001  0.008
    5  0.003  0.000  0.073  0.012  0.000  0.000  0.000  0.000  0.000  0.088
    6  0.001  0.003  0.032  0.002  0.000  0.000  0.000  0.000  0.000  0.039
    7  0.000  0.001  0.008  0.001  0.000  0.000  0.000  0.000  0.000  0.010
    8  0.010  0.001  0.093  0.026  0.000  0.000  0.000  0.000  0.000  0.129
    9  0.004  0.001  0.041  0.021  0.000  0.000  0.000  0.000  0.000  0.068
   10  0.001  0.000  0.011  0.020  0.000  0.000  0.000  0.000  0.000  0.033
tot    0.019  0.026  0.257  0.119  0.050  0.039  0.000  0.117  0.052  0.680

band    22 # energy   -5.23573085 # occ.  1.00000000

ion      s     py     pz     px    dxy    dyz    dz2    dxz  x2-y2    tot
    1  0.000  0.002  0.000  0.009  0.035  0.070  0.000  0.008  0.017  0.140
    2  0.000  0.000  0.000  0.010  0.016  0.047  0.000  0.031  0.034  0.138
    3  0.000  0.028  0.000  0.001  0.000  0.000  0.000  0.000  0.000  0.029
    4  0.000  0.007  0.000  0.000  0.001  0.000  0.000  0.000  0.000  0.008
    5  0.000  0.000  0.003  0.000  0.000  0.000  0.000  0.000  0.000  0.003
    6  0.002  0.006  0.044  0.001  0.000  0.000  0.000  0.000  0.000  0.053
    7  0.003  0.009  0.067  0.002  0.000  0.000  0.000  0.000  0.000  0.081
    8  0.000  0.019  0.003  0.001  0.000  0.000  0.000  0.000  0.000  0.024
    9  0.006  0.024  0.055  0.000  0.000  0.000  0.000  0.000  0.000  0.085
   10  0.009  0.025  0.085  0.001  0.000  0.000  0.000  0.000  0.000  0.120
tot    0.019  0.119  0.257  0.026  0.052  0.117  0.000  0.039  0.050  0.680

band    23 # energy   -5.12032864 # occ.  1.00000000

ion      s     py     pz     px    dxy    dyz    dz2    dxz  x2-y2    tot
    1  0.000  0.000  0.008  0.000  0.000  0.000  0.115  0.000  0.000  0.123
    2  0.000  0.000  0.008  0.000  0.000  0.000  0.119  0.000  0.000  0.127
    3  0.000  0.000  0.002  0.000  0.000  0.000  0.000  0.000  0.000  0.002
    4  0.005  0.000  0.047  0.000  0.000  0.000  0.000  0.000  0.000  0.053
    5  0.000  0.000  0.041  0.002  0.000  0.000  0.000  0.000  0.000  0.043
    6  0.000  0.002  0.041  0.001  0.000  0.000  0.000  0.000  0.000  0.043
    7  0.000  0.002  0.041  0.001  0.000  0.000  0.000  0.000  0.000  0.043
    8  0.000  0.000  0.061  0.001  0.000  0.000  0.000  0.000  0.000  0.063
    9  0.000  0.001  0.061  0.000  0.000  0.000  0.000  0.000  0.000  0.063
   10  0.000  0.001  0.061  0.000  0.000  0.000  0.000  0.000  0.000  0.063
tot    0.007  0.005  0.370  0.005  0.000  0.000  0.234  0.000  0.000  0.621

band    24 # energy   -4.80154851 # occ.  1.00000000

ion      s     py     pz     px    dxy    dyz    dz2    dxz  x2-y2    tot
    1  0.000  0.000  0.000  0.006  0.201  0.100  0.000  0.039  0.019  0.366
    2  0.000  0.001  0.000  0.005  0.179  0.135  0.000  0.005  0.043  0.368
    3  0.000  0.000  0.000  0.000  0.000  0.000  0.000  0.000  0.000  0.000
    4  0.000  0.001  0.000  0.000  0.000  0.000  0.000  0.000  0.000  0.002
    5  0.000  0.002  0.003  0.000  0.000  0.000  0.000  0.000  0.000  0.005
    6  0.001  0.000  0.023  0.000  0.000  0.000  0.000  0.000  0.000  0.024
    7  0.000  0.000  0.009  0.001  0.000  0.000  0.000  0.000  0.000  0.011
    8  0.000  0.015  0.004  0.000  0.000  0.000  0.000  0.000  0.000  0.019
    9  0.001  0.002  0.029  0.000  0.000  0.000  0.000  0.000  0.000  0.031
   10  0.000  0.005  0.012  0.006  0.000  0.000  0.000  0.000  0.000  0.023
tot    0.002  0.027  0.080  0.018  0.380  0.235  0.000  0.045  0.062  0.849

band    25 # energy   -4.80154245 # occ.  1.00000000

ion      s     py     pz     px    dxy    dyz    dz2    dxz  x2-y2    tot
    1  0.000  0.006  0.000  0.000  0.019  0.039  0.000  0.100  0.201  0.366
    2  0.000  0.005  0.000  0.001  0.043  0.005  0.000  0.135  0.179  0.368
    3  0.000  0.000  0.000  0.000  0.000  0.000  0.000  0.000  0.000  0.000
    4  0.000  0.000  0.000  0.001  0.000  0.000  0.000  0.000  0.000  0.002
    5  0.001  0.000  0.021  0.000  0.000  0.000  0.000  0.000  0.000  0.021
    6  0.000  0.001  0.001  0.002  0.000  0.000  0.000  0.000  0.000  0.003
    7  0.000  0.000  0.014  0.001  0.000  0.000  0.000  0.000  0.000  0.016
    8  0.001  0.002  0.026  0.001  0.000  0.000  0.000  0.000  0.000  0.030
    9  0.000  0.004  0.001  0.013  0.000  0.000  0.000  0.000  0.000  0.017
   10  0.000  0.000  0.018  0.007  0.000  0.000  0.000  0.000  0.000  0.026
tot    0.002  0.018  0.080  0.027  0.062  0.045  0.000  0.235  0.380  0.849

band    26 # energy   -4.65244412 # occ.  1.00000000

ion      s     py     pz     px    dxy    dyz    dz2    dxz  x2-y2    tot
    1  0.011  0.000  0.000  0.000  0.000  0.000  0.451  0.000  0.000  0.463
    2  0.011  0.000  0.000  0.000  0.000  0.000  0.448  0.000  0.000  0.459
    3  0.000  0.000  0.000  0.000  0.000  0.000  0.000  0.000  0.000  0.000
    4  0.000  0.000  0.000  0.000  0.000  0.000  0.000  0.000  0.000  0.000
    5  0.000  0.003  0.000  0.000  0.000  0.000  0.000  0.000  0.000  0.003
    6  0.000  0.001  0.000  0.002  0.000  0.000  0.000  0.000  0.000  0.003
    7  0.000  0.001  0.000  0.002  0.000  0.000  0.000  0.000  0.000  0.003
    8  0.000  0.004  0.000  0.000  0.000  0.000  0.000  0.000  0.000  0.004
    9  0.000  0.001  0.000  0.003  0.000  0.000  0.000  0.000  0.000  0.004
   10  0.000  0.001  0.000  0.003  0.000  0.000  0.000  0.000  0.000  0.004
tot    0.022  0.010  0.000  0.010  0.000  0.000  0.899  0.000  0.000  0.941

band    27 # energy   -4.60587723 # occ.  1.00000000

ion      s     py     pz     px    dxy    dyz    dz2    dxz  x2-y2    tot
    1  0.000  0.001  0.000  0.000  0.239  0.131  0.000  0.026  0.004  0.401
    2  0.000  0.001  0.000  0.000  0.242  0.149  0.000  0.006  0.001  0.400
    3  0.000  0.000  0.000  0.002  0.000  0.000  0.000  0.000  0.000  0.003
    4  0.000  0.000  0.000  0.022  0.000  0.000  0.000  0.000  0.001  0.023
    5  0.005  0.000  0.022  0.023  0.000  0.000  0.000  0.000  0.000  0.050
    6  0.001  0.002  0.004  0.002  0.000  0.000  0.000  0.000  0.000  0.008
    7  0.002  0.006  0.008  0.003  0.000  0.000  0.000  0.000  0.000  0.018
    8  0.001  0.000  0.002  0.001  0.000  0.000  0.000  0.000  0.000  0.003
    9  0.000  0.000  0.000  0.000  0.000  0.000  0.000  0.000  0.000  0.001
   10  0.000  0.001  0.001  0.000  0.000  0.000  0.000  0.000  0.000  0.002
tot    0.008  0.011  0.036  0.053  0.481  0.280  0.000  0.032  0.007  0.907

band    28 # energy   -4.60587395 # occ.  1.00000000

ion      s     py     pz     px    dxy    dyz    dz2    dxz  x2-y2    tot
    1  0.000  0.000  0.000  0.001  0.004  0.026  0.000  0.131  0.239  0.401
    2  0.000  0.000  0.000  0.001  0.001  0.006  0.000  0.149  0.242  0.400
    3  0.000  0.002  0.000  0.000  0.000  0.000  0.000  0.000  0.000  0.003
    4  0.000  0.022  0.000  0.000  0.001  0.000  0.000  0.000  0.000  0.023
    5  0.000  0.000  0.000  0.000  0.000  0.000  0.000  0.000  0.000  0.001
    6  0.004  0.015  0.018  0.004  0.000  0.000  0.000  0.000  0.000  0.042
    7  0.003  0.012  0.014  0.003  0.000  0.000  0.000  0.000  0.000  0.033
    8  0.000  0.000  0.000  0.000  0.000  0.000  0.000  0.000  0.000  0.000
    9  0.000  0.000  0.002  0.000  0.000  0.000  0.000  0.000  0.000  0.003
   10  0.000  0.000  0.001  0.000  0.000  0.000  0.000  0.000  0.000  0.002
tot    0.008  0.053  0.036  0.011  0.007  0.032  0.000  0.280  0.481  0.907

band    29 # energy   -4.15416680 # occ.  1.00000000

ion      s     py     pz     px    dxy    dyz    dz2    dxz  x2-y2    tot
    1  0.014  0.000  0.000  0.000  0.000  0.000  0.171  0.000  0.000  0.186
    2  0.014  0.000  0.000  0.000  0.000  0.000  0.172  0.000  0.000  0.187
    3  0.001  0.000  0.070  0.000  0.000  0.000  0.000  0.000  0.000  0.071
    4  0.002  0.000  0.066  0.000  0.000  0.000  0.006  0.000  0.000  0.074
    5  0.002  0.000  0.013  0.008  0.000  0.000  0.000  0.000  0.000  0.023
    6  0.002  0.006  0.013  0.002  0.000  0.000  0.000  0.000  0.000  0.023
    7  0.002  0.006  0.013  0.002  0.000  0.000  0.000  0.000  0.000  0.023
    8  0.001  0.000  0.037  0.006  0.000  0.000  0.000  0.000  0.000  0.044
    9  0.001  0.004  0.037  0.001  0.000  0.000  0.000  0.000  0.000  0.044
   10  0.001  0.004  0.037  0.001  0.000  0.000  0.000  0.000  0.000  0.044
tot    0.040  0.021  0.287  0.021  0.000  0.000  0.349  0.000  0.000  0.718

band    30 # energy   -3.89703329 # occ.  1.00000000

ion      s     py     pz     px    dxy    dyz    dz2    dxz  x2-y2    tot
    1  0.000  0.000  0.000  0.017  0.021  0.001  0.000  0.004  0.010  0.053
    2  0.000  0.003  0.000  0.015  0.031  0.004  0.000  0.001  0.000  0.054
    3  0.000  0.000  0.000  0.004  0.000  0.000  0.000  0.000  0.000  0.005
    4  0.000  0.001  0.000  0.009  0.000  0.000  0.000  0.001  0.004  0.015
    5  0.002  0.006  0.002  0.038  0.000  0.000  0.000  0.000  0.000  0.049
    6  0.000  0.009  0.000  0.068  0.000  0.000  0.000  0.000  0.000  0.077
    7  0.001  0.001  0.001  0.058  0.000  0.000  0.000  0.000  0.000  0.062
    8  0.002  0.010  0.037  0.056  0.000  0.000  0.000  0.000  0.000  0.106
    9  0.000  0.016  0.002  0.113  0.000  0.000  0.000  0.000  0.000  0.131
   10  0.001  0.001  0.021  0.095  0.000  0.000  0.000  0.000  0.000  0.118
tot    0.006  0.048  0.065  0.473  0.052  0.005  0.000  0.005  0.015  0.669

band    31 # energy   -3.89700927 # occ.  1.00000000

ion      s     py     pz     px    dxy    dyz    dz2    dxz  x2-y2    tot
    1  0.000  0.017  0.000  0.000  0.010  0.004  0.000  0.001  0.021  0.053
    2  0.000  0.015  0.000  0.003  0.000  0.001  0.000  0.004  0.031  0.054
    3  0.000  0.004  0.000  0.000  0.000  0.000  0.000  0.000  0.000  0.005
    4  0.000  0.009  0.000  0.001  0.004  0.001  0.000  0.000  0.000  0.015
    5  0.000  0.073  0.000  0.003  0.000  0.000  0.000  0.000  0.000  0.076
    6  0.002  0.042  0.002  0.002  0.000  0.000  0.000  0.000  0.000  0.048
    7  0.001  0.050  0.001  0.011  0.000  0.000  0.000  0.000  0.000  0.063
    8  0.000  0.122  0.003  0.005  0.000  0.000  0.000  0.000  0.000  0.131
    9  0.002  0.063  0.038  0.002  0.000  0.000  0.000  0.000  0.000  0.105