<?xml version="1.0" encoding="ISO-8859-1"?>
<modeling>
 <generator>
  <i name="program" type="string">vasp </i>
  <i name="version" type="string">5.4.4.18Apr17-6-g9f103f2a35  </i>
  <i name="subversion" type="string">(build May  1 2020 15:48:39) complex            parallel </i>
  <i name="platform" type="string">LinuxGNU </i>
  <i name="date" type="string">2020 06 21 </i>
  <i name="time" type="string">23:31:46 </i>
 </generator>
 <incar>
  <i type="int" name="ISTART">     1</i>
  <i type="string" name="PREC">accurate</i>
  <i type="string" name="ALGO"> Normal</i>
  <i type="int" name="ISPIN">     2</i>
  <i name="AMIN">      0.01000000</i>
  <i type="int" name="NELM">   400</i>
  <i type="int" name="IBRION">     2</i>
  <i name="EDIFF">      0.00010000</i>
  <i type="int" name="NSW">    99</i>
  <i type="int" name="ISIF">     3</i>
  <i name="ENCUT">    520.00000000</i>
  <v name="MAGMOM">      1.26000000      1.26000000      0.60000000      0.60000000      0.60000000      0.60000000      0.60000000      0.60000000      0.60000000      0.60000000</v>
  <i type="string" name="LREAL"> Auto</i>
  <i type="int" name="ISMEAR">    -5</i>
  <i name="SIGMA">      0.05000000</i>
  <i type="logical" name="LWAVE"> F  </i>
  <i type="int" name="LORBIT">    11</i>
  <v type="int" name="KPOINT_BSE">    -1     0     0     0</v>
  <i type="int" name="NELM">   400</i>
  <i type="string" name="GGA"> Bo</i>
  <i name="PARAM1">      0.18333333</i>
  <i name="PARAM2">      0.22000000</i>
  <i type="logical" name="LUSE_VDW"> T  </i>
  <i name="AGGAC">      0.00000000</i>
 </incar>
 <structure name="primitive_cell" >
  <crystal>
   <varray name="basis" >
    <v>       6.90777700      -0.00000000       0.00000000 </v>
    <v>       3.45388800       5.98231000       0.00000000 </v>
    <v>       0.00000000       0.00000000      23.44458800 </v>
   </varray>
   <i name="volume">    968.83501932 </i>
   <varray name="rec_basis" >
    <v>       0.14476437      -0.08357974       0.00000000 </v>
    <v>       0.00000000       0.16715951      -0.00000000 </v>
    <v>      -0.00000000       0.00000000       0.04265377 </v>
   </varray>
  </crystal>
  <varray name="positions" >
   <v>       0.33333300       0.33333300       0.49992500 </v>
   <v>       0.00042000       0.37322400      -0.42624800 </v>
   <v>      -0.37364300       0.00042000      -0.42624800 </v>
   <v>       0.37322400      -0.37364300      -0.42624800 </v>
   <v>       0.37364300      -0.00042000       0.42624800 </v>
   <v>      -0.37322400       0.37364300       0.42624800 </v>
   <v>      -0.00042000      -0.37322400       0.42624800 </v>
   <v>      -0.33333300      -0.33333300      -0.49992500 </v>
   <v>       0.00000000       0.00000000       0.44821600 </v>
   <v>       0.00000000       0.00000000      -0.44821600 </v>
  </varray>
 </structure>
 <varray name="primitive_index" >
  <v type="int" >        1 </v>
  <v type="int" >        6 </v>
  <v type="int" >        5 </v>
  <v type="int" >        7 </v>
  <v type="int" >        8 </v>
  <v type="int" >       10 </v>
  <v type="int" >        9 </v>
  <v type="int" >        2 </v>
  <v type="int" >        3 </v>
  <v type="int" >        4 </v>
 </varray>
 <kpoints>
  <generation param="Gamma">
   <v type="int" name="divisions">       5        5        1 </v>
   <v name="usershift">      0.00000000       0.00000000       0.00000000 </v>
   <v name="genvec1">      0.20000000       0.00000000       0.00000000 </v>
   <v name="genvec2">      0.00000000       0.20000000       0.00000000 </v>
   <v name="genvec3">      0.00000000       0.00000000       1.00000000 </v>
   <v name="shift">      0.00000000       0.00000000       0.00000000 </v>
  </generation>
  <varray name="kpointlist" >
   <v>       0.00000000       0.00000000       0.00000000 </v>
   <v>       0.20000000       0.00000000       0.00000000 </v>
   <v>       0.40000000       0.00000000       0.00000000 </v>
   <v>       0.40000000       0.20000000       0.00000000 </v>
   <v>      -0.40000000       0.20000000       0.00000000 </v>
  </varray>
  <varray name="weights" >
   <v>       0.04000000 </v>
   <v>       0.24000000 </v>
   <v>       0.24000000 </v>
   <v>       0.24000000 </v>
   <v>       0.24000000 </v>
  </varray>
  <varray name="tetrahedronlist"  type="int" >
   <v type="int" >        6        1        1        2        2 </v>
   <v type="int" >       12        1        2        2        2 </v>
   <v type="int" >       12        2        2        3        4 </v>
   <v type="int" >       12        2        2        2        4 </v>
   <v type="int" >       12        2        3        3        4 </v>
   <v type="int" >       12        2        3        4        4 </v>
   <v type="int" >        6        2        2        4        4 </v>
   <v type="int" >       12        3        3        3        5 </v>
   <v type="int" >       12        3        3        4        5 </v>
   <v type="int" >       12        3        4        4        5 </v>
   <v type="int" >        6        3        3        5        5 </v>
   <v type="int" >       12        3        4        5        5 </v>
   <v type="int" >        6        4        4        5        5 </v>
   <v type="int" >       12        4        5        5        5 </v>
   <v type="int" >        6        5        5        5        5 </v>
  </varray>
  <i name="volumeweight">      0.00666667 </i>
 </kpoints>
 <parameters>
  <separator name="general" >
   <i type="string" name="SYSTEM">unknown system</i>
   <i type="logical" name="LCOMPAT"> F  </i>
  </separator>
  <separator name="electronic" >
   <i type="string" name="PREC">accura</i>
   <i name="ENMAX">    520.00000000</i>
   <i name="ENAUG">    544.56500000</i>
   <i name="EDIFF">      0.00010000</i>
   <i type="int" name="IALGO">    38</i>
   <i type="int" name="IWAVPR">    11</i>
   <i type="int" name="NBANDS">    48</i>
   <i name="NELECT">     65.00000000</i>
   <i type="int" name="TURBO">     0</i>
   <i type="int" name="IRESTART">     0</i>
   <i type="int" name="NREBOOT">     0</i>
   <i type="int" name="NMIN">     0</i>
   <i name="EREF">      0.00000000</i>
   <separator name="electronic smearing" >
    <i type="int" name="ISMEAR">    -5</i>
    <i name="SIGMA">      0.05000000</i>
    <i name="KSPACING">      0.50000000</i>
    <i type="logical" name="KGAMMA"> T  </i>
   </separator>
   <separator name="electronic projectors" >
    <i type="logical" name="LREAL"> T  </i>
    <v name="ROPT">     -0.00025000     -0.00025000     -0.00025000     -0.00025000</v>
    <i type="int" name="LMAXPAW">  -100</i>
    <i type="int" name="LMAXMIX">     2</i>
    <i type="logical" name="NLSPLINE"> F  </i>
   </separator>
   <separator name="electronic startup" >
    <i type="int" name="ISTART">     0</i>
    <i type="int" name="ICHARG">     2</i>
    <i type="int" name="INIWAV">     1</i>
   </separator>
   <separator name="electronic spin" >
    <i type="int" name="ISPIN">     2</i>
    <i type="logical" name="LNONCOLLINEAR"> F  </i>
    <v name="MAGMOM">      1.26000000      1.26000000      0.60000000      0.60000000      0.60000000      0.60000000      0.60000000      0.60000000      0.60000000      0.60000000</v>
    <i name="NUPDOWN">     -1.00000000</i>
    <i type="logical" name="LSORBIT"> F  </i>
    <v name="SAXIS">      0.00000000      0.00000000      1.00000000</v>
    <i type="logical" name="LSPIRAL"> F  </i>
    <v name="QSPIRAL">      0.00000000      0.00000000      0.00000000</v>
    <i type="logical" name="LZEROZ"> F  </i>
   </separator>
   <separator name="electronic exchange-correlation" >
    <i type="logical" name="LASPH"> F  </i>
    <i type="logical" name="LMETAGGA"> F  </i>
   </separator>
   <separator name="electronic convergence" >
    <i type="int" name="NELM">   400</i>
    <i type="int" name="NELMDL">     0</i>
    <i type="int" name="NELMIN">     2</i>
    <i name="ENINI">    520.00000000</i>
    <separator name="electronic convergence detail" >
     <i type="logical" name="LDIAG"> T  </i>
     <i type="logical" name="LSUBROT"> F  </i>
     <i name="WEIMIN">      0.00100000</i>
     <i name="EBREAK">      0.00000052</i>
     <i name="DEPER">      0.30000000</i>
     <i type="int" name="NRMM">     4</i>
     <i name="TIME">      0.40000000</i>
    </separator>
   </separator>
   <separator name="electronic mixer" >
    <i name="AMIX">      0.40000000</i>
    <i name="BMIX">      1.00000000</i>
    <i name="AMIN">      0.01000000</i>
    <i name="AMIX_MAG">      1.60000000</i>
    <i name="BMIX_MAG">      1.00000000</i>
    <separator name="electronic mixer details" >
     <i type="int" name="IMIX">     4</i>
     <i type="logical" name="MIXFIRST"> F  </i>
     <i type="int" name="MAXMIX">   -45</i>
     <i name="WC">    100.00000000</i>
     <i type="int" name="INIMIX">     1</i>
     <i type="int" name="MIXPRE">     1</i>
     <i type="int" name="MREMOVE">     5</i>
    </separator>
   </separator>
   <separator name="electronic dipolcorrection" >
    <i type="logical" name="LDIPOL"> F  </i>
    <i type="logical" name="LMONO"> F  </i>
    <i type="int" name="IDIPOL">     0</i>
    <i name="EPSILON">      1.00000000</i>
    <v name="DIPOL">   -100.00000000   -100.00000000   -100.00000000</v>
    <i name="EFIELD">      0.00000000</i>
   </separator>
  </separator>
  <separator name="grids" >
   <i type="int" name="NGX">    54</i>
   <i type="int" name="NGY">    54</i>
   <i type="int" name="NGZ">   180</i>
   <i type="int" name="NGXF">   108</i>
   <i type="int" name="NGYF">   108</i>
   <i type="int" name="NGZF">   360</i>
   <i type="logical" name="ADDGRID"> F  </i>
  </separator>
  <separator name="ionic" >
   <i type="int" name="NSW">    99</i>
   <i type="int" name="IBRION">     2</i>
   <i type="int" name="MDALGO">     0</i>
   <i type="int" name="ISIF">     3</i>
   <i name="PSTRESS">      0.00000000</i>
   <i name="EDIFFG">      0.00100000</i>
   <i type="int" name="NFREE">     1</i>
   <i name="POTIM">      0.50000000</i>
   <i name="SMASS">     -3.00000000</i>
   <i name="SCALEE">      1.00000000</i>
  </separator>
  <separator name="ionic md" >
   <i name="TEBEG">      0.00010000</i>
   <i name="TEEND">      0.00010000</i>
   <i type="int" name="NBLOCK">     1</i>
   <i type="int" name="KBLOCK">    99</i>
   <i type="int" name="NPACO">   256</i>
   <i name="APACO">     16.00000000</i>
  </separator>
  <separator name="symmetry" >
   <i type="int" name="ISYM">     2</i>
   <i name="SYMPREC">      0.00001000</i>
  </separator>
  <separator name="dos" >
   <i type="int" name="LORBIT">    11</i>
   <v name="RWIGS">     -1.00000000     -1.00000000     -1.00000000     -1.00000000</v>
   <i type="int" name="NEDOS">   301</i>
   <i name="EMIN">     10.00000000</i>
   <i name="EMAX">    -10.00000000</i>
   <i name="EFERMI">      0.00000000</i>
  </separator>
  <separator name="writing" >
   <i type="int" name="NWRITE">     2</i>
   <i type="logical" name="LWAVE"> F  </i>
   <i type="logical" name="LDOWNSAMPLE"> F  </i>
   <i type="logical" name="LCHARG"> T  </i>
   <i type="logical" name="LPARD"> F  </i>
   <i type="logical" name="LVTOT"> F  </i>
   <i type="logical" name="LVHAR"> F  </i>
   <i type="logical" name="LELF"> F  </i>
   <i type="logical" name="LOPTICS"> F  </i>
   <v name="STM">      0.00000000      0.00000000      0.00000000      0.00000000      0.00000000      0.00000000      0.00000000</v>
  </separator>
  <separator name="performance" >
   <i type="int" name="NPAR">    16</i>
   <i type="int" name="NSIM">     4</i>
   <i type="int" name="NBLK">    -1</i>
   <i type="logical" name="LPLANE"> T  </i>
   <i type="logical" name="LSCALAPACK"> T  </i>
   <i type="logical" name="LSCAAWARE"> F  </i>
   <i type="logical" name="LSCALU"> F  </i>
   <i type="logical" name="LASYNC"> F  </i>
   <i type="logical" name="LORBITALREAL"> F  </i>
  </separator>
  <separator name="miscellaneous" >
   <i type="int" name="IDIOT">     3</i>
   <i type="int" name="ISPECIAL">     0</i>
   <i type="logical" name="LMUSIC"> F  </i>
   <v name="POMASS">     58.69000000     30.97400000     72.61000000     32.06600000</v>
   <v name="DARWINR">      0.00000000      0.00000000      0.00000000      0.00000000</v>
   <v name="DARWINV">      1.00000000      1.00000000      1.00000000      1.00000000</v>
   <i type="logical" name="LCORR"> T  </i>
  </separator>
  <i type="logical" name="GGA_COMPAT"> T  </i>
  <i type="logical" name="LBERRY"> F  </i>
  <i type="int" name="ICORELEVEL">     0</i>
  <i type="logical" name="LDAU"> F  </i>
  <i type="int" name="I_CONSTRAINED_M">     0</i>
  <separator name="electronic exchange-correlation" >
   <i type="string" name="GGA">BO</i>
   <i type="int" name="VOSKOWN">     0</i>
   <i type="logical" name="LHFCALC"> F  </i>
   <i type="string" name="PRECFOCK"></i>
   <i type="logical" name="LSYMGRAD"> F  </i>
   <i type="logical" name="LHFONE"> F  </i>
   <i type="logical" name="LRHFCALC"> F  </i>
   <i type="logical" name="LTHOMAS"> F  </i>
   <i type="logical" name="LMODELHF"> F  </i>
   <i name="ENCUT4O">     -1.00000000</i>
   <i type="int" name="EXXOEP">     0</i>
   <i type="int" name="FOURORBIT">     0</i>
   <i name="AEXX">      0.00000000</i>
   <i name="HFALPHA">      0.00000000</i>
   <i name="MCALPHA">      0.00000000</i>
   <i name="ALDAX">      1.00000000</i>
   <i name="AGGAX">      1.00000000</i>
   <i name="ALDAC">      1.00000000</i>
   <i name="AGGAC">      0.00000000</i>
   <i type="int" name="NKREDX">     1</i>
   <i type="int" name="NKREDY">     1</i>
   <i type="int" name="NKREDZ">     1</i>
   <i type="logical" name="SHIFTRED"> F  </i>
   <i type="logical" name="ODDONLY"> F  </i>
   <i type="logical" name="EVENONLY"> F  </i>
   <i type="int" name="LMAXFOCK">     0</i>
   <i type="int" name="NMAXFOCKAE">     0</i>
   <i type="logical" name="LFOCKAEDFT"> F  </i>
   <i name="HFSCREEN">      0.00000000</i>
   <i name="HFSCREENC">      0.00000000</i>
   <i type="int" name="NBANDSGWLOW">     0</i>
  </separator>
  <separator name="vdW DFT" >
   <i type="logical" name="LUSE_VDW"> T  </i>
   <i name="Zab_VDW">     -0.84910000</i>
   <i name="PARAM1">      0.18333333</i>
   <i name="PARAM2">      0.22000000</i>
   <i name="PARAM3">      0.00000000</i>
  </separator>
  <separator name="model GW" >
   <i type="int" name="MODEL_GW">     0</i>
   <i name="MODEL_EPS0">     58.13010116</i>
   <i name="MODEL_ALPHA">      1.00000000</i>
  </separator>
  <separator name="linear response parameters" >
   <i type="logical" name="LEPSILON"> F  </i>
   <i type="logical" name="LRPA"> F  </i>
   <i type="logical" name="LNABLA"> F  </i>
   <i type="logical" name="LVEL"> F  </i>
   <i type="int" name="KINTER">     0</i>
   <i name="CSHIFT">      0.10000000</i>
   <i name="OMEGAMAX">     -1.00000000</i>
   <i name="DEG_THRESHOLD">      0.00200000</i>
   <i name="RTIME">     -0.10000000</i>
   <i name="WPLASMAI">      0.00000000</i>
   <v name="DFIELD">      0.00000000      0.00000000      0.00000000</v>
   <v name="WPLASMA">      0.00000000      0.00000000      0.00000000      0.00000000      0.00000000      0.00000000      0.00000000      0.00000000      0.00000000</v>
  </separator>
  <separator name="orbital magnetization" >
   <i type="logical" name="NUCIND"> F  </i>
   <v name="MAGPOS">      0.00000000      0.00000000      0.00000000</v>
   <i type="logical" name="LNICSALL"> T  </i>
   <i type="logical" name="ORBITALMAG"> F  </i>
   <i type="logical" name="LMAGBLOCH"> F  </i>
   <i type="logical" name="LCHIMAG"> F  </i>
   <i type="logical" name="LGAUGE"> T  </i>
   <i type="int" name="MAGATOM">     0</i>
   <v name="MAGDIPOL">      0.00000000      0.00000000      0.00000000</v>
   <v name="AVECCONST">      0.00000000      0.00000000      0.00000000</v>
  </separator>
  <separator name="response functions" >
   <i type="logical" name="LADDER"> F  </i>
   <i type="logical" name="LRPAFORCE"> F  </i>
   <i type="logical" name="LFXC"> F  </i>
   <i type="logical" name="LHARTREE"> T  </i>
   <i type="int" name="IBSE">     0</i>
   <v type="int" name="KPOINT">    -1     0     0     0</v>
   <i type="logical" name="LTCTE"> F  </i>
   <i type="logical" name="LTETE"> F  </i>
   <i type="logical" name="LTRIPLET"> F  </i>
   <i type="logical" name="LFXCEPS"> F  </i>
   <i type="logical" name="LFXHEG"> F  </i>
   <i type="int" name="NATURALO">     2</i>
   <i type="logical" name="L2ORDER"> F  </i>
   <i type="logical" name="LMP2LT"> F  </i>
   <i type="logical" name="LUSEW"> F  </i>
   <i name="ENCUTGW">     -2.00000000</i>
   <i name="ENCUTGWSOFT">     -2.00000000</i>
   <i name="ENCUTLF">     -1.00000000</i>
   <i type="int" name="LMAXMP2">    -1</i>
   <i name="SCISSOR">      0.00000000</i>
   <i type="int" name="NOMEGA">     0</i>
   <i type="int" name="NOMEGAR">     0</i>
   <i type="int" name="NBANDSGW">    -1</i>
   <i type="int" name="NBANDSO">    -1</i>
   <i type="int" name="NBANDSV">    -1</i>
   <i type="int" name="NELM">   400</i>
   <i type="int" name="NELMHF">     1</i>
   <i type="int" name="DIM">     3</i>
   <i type="int" name="ANTIRES">     0</i>
   <i name="OMEGAMAX">    -30.00000000</i>
   <i name="OMEGAMIN">    -30.00000000</i>
   <i name="OMEGATL">   -200.00000000</i>
   <i type="int" name="OMEGAGRID">   140</i>
   <i name="CSHIFT">     -0.10000000</i>
   <i type="logical" name="SELFENERGY"> F  </i>
   <i type="logical" name="LSPECTRAL"> F  </i>
   <i type="logical" name="LSPECTRALGW"> F  </i>
   <i type="logical" name="LSINGLES"> F  </i>
   <i type="logical" name="LFERMIGW"> F  </i>
   <i type="logical" name="ODDONLYGW"> F  </i>
   <i type="logical" name="EVENONLYGW"> F  </i>
   <i type="int" name="NKREDLFX">     1</i>
   <i type="int" name="NKREDLFY">     1</i>
   <i type="int" name="NKREDLFZ">     1</i>
   <i type="int" name="MAXMEM">  2800</i>
   <i type="int" name="TELESCOPE">     0</i>
   <i type="int" name="TAUPAR">     1</i>
   <i type="int" name="OMEGAPAR">    -1</i>
   <i name="LAMBDA">      1.00000000</i>
  </separator>
  <separator name="External order field" >
   <i name="OFIELD_KAPPA">      0.00000000</i>
   <v name="OFIELD_K">      0.00000000      0.00000000      0.00000000</v>
   <i name="OFIELD_Q6_NEAR">      0.00000000</i>
   <i name="OFIELD_Q6_FAR">      0.00000000</i>
   <i name="OFIELD_A">      0.00000000</i>
  </separator>
 </parameters>
 <atominfo>
  <atoms>      10 </atoms>
  <types>       4 </types>
  <array name="atoms" >
   <dimension dim="1">ion</dimension>
   <field type="string">element</field>
   <field type="int">atomtype</field>
   <set>
    <rc><c>Ni</c><c>   1</c></rc>
    <rc><c>Ni</c><c>   1</c></rc>
    <rc><c>P </c><c>   2</c></rc>
    <rc><c>Ge</c><c>   3</c></rc>
    <rc><c>S </c><c>   4</c></rc>
    <rc><c>S </c><c>   4</c></rc>
    <rc><c>S </c><c>   4</c></rc>
    <rc><c>S </c><c>   4</c></rc>
    <rc><c>S </c><c>   4</c></rc>
    <rc><c>S </c><c>   4</c></rc>
   </set>
  </array>
  <array name="atomtypes" >
   <dimension dim="1">type</dimension>
   <field type="int">atomspertype</field>
   <field type="string">element</field>
   <field>mass</field>
   <field>valence</field>
   <field type="string">pseudopotential</field>
   <set>
    <rc><c>   2</c><c>Ni</c><c>     58.69000000</c><c>     10.00000000</c><c> PAW_PBE Ni 06Sep2000                   </c></rc>
    <rc><c>   1</c><c>P </c><c>     30.97400000</c><c>      5.00000000</c><c>  PAW_PBE P 17Jan2003                   </c></rc>
    <rc><c>   1</c><c>Ge</c><c>     72.61000000</c><c>      4.00000000</c><c> PAW_PBE Ge 05Jan2001                   </c></rc>
    <rc><c>   6</c><c>S </c><c>     32.06600000</c><c>      6.00000000</c><c>  PAW_PBE S 17Jan2003                   </c></rc>
   </set>
  </array>
 </atominfo>
 <structure name="initialpos" >
  <crystal>
   <varray name="basis" >
    <v>       6.90777700      -0.00000000       0.00000000 </v>
    <v>       3.45388800       5.98231000       0.00000000 </v>
    <v>       0.00000000       0.00000000      23.44458800 </v>
   </varray>
   <i name="volume">    968.83501932 </i>
   <varray name="rec_basis" >
    <v>       0.14476437      -0.08357974       0.00000000 </v>
    <v>       0.00000000       0.16715951      -0.00000000 </v>
    <v>      -0.00000000       0.00000000       0.04265377 </v>
   </varray>
  </crystal>
  <varray name="positions" >
   <v>       0.33333300       0.33333300       0.49992500 </v>
   <v>       0.66666700       0.66666700       0.50007500 </v>
   <v>       0.00000000       0.00000000       0.44821600 </v>
   <v>       0.00000000       0.00000000       0.55178400 </v>
   <v>       0.62635700       0.00042000       0.57375200 </v>
   <v>       0.00042000       0.37322400       0.57375200 </v>
   <v>       0.37322400       0.62635700       0.57375200 </v>
   <v>       0.37364300       0.99958000       0.42624800 </v>
   <v>       0.99958000       0.62677600       0.42624800 </v>
   <v>       0.62677600       0.37364300       0.42624800 </v>
  </varray>
  <varray name="selective"  type="logical" >
   <v type="logical" >  T  T  T </v>
   <v type="logical" >  T  T  T </v>
   <v type="logical" >  T  T  T </v>
   <v type="logical" >  F  F  F </v>
   <v type="logical" >  T  T  T </v>
   <v type="logical" >  T  T  T </v>
   <v type="logical" >  T  T  T </v>
   <v type="logical" >  T  T  T </v>
   <v type="logical" >  T  T  T </v>
   <v type="logical" >  T  T  T </v>
  </varray>
  <nose>
   <v>      -3.00000000       0.00000000       0.00010000       0.00010000 </v>
  </nose>
 </structure>
 <calculation>
  <scstep>
   <time name="dav">   22.34   22.43</time>
   <time name="total">   74.49   75.55</time>
   <energy>
    <i name="alphaZ">     28.20599243 </i>
    <i name="ewald">   8338.88239735 </i>
    <i name="hartreedc"> -12043.57747392 </i>
    <i name="XCdc">    122.07439166 </i>
    <i name="pawpsdc">   2424.84790082 </i>
    <i name="pawaedc">  -2511.98109786 </i>
    <i name="eentropy">      0.00000000 </i>
    <i name="bandstr">    -46.35916636 </i>
    <i name="atom">   4113.45303949 </i>
    <i name="e_fr_energy">    425.54598361 </i>
    <i name="e_wo_entrp">    425.54598361 </i>
    <i name="e_0_energy">    425.54598361 </i>
   </energy>
  </scstep>
  <scstep>
   <time name="dav">   32.27   32.94</time>
   <time name="total">   32.27   32.94</time>
   <energy>
    <i name="e_fr_energy">     36.16746276 </i>
    <i name="e_wo_entrp">     36.16746276 </i>
    <i name="e_0_energy">     36.16746276 </i>
   </energy>
  </scstep>
  <scstep>
   <time name="dav">   27.09   27.47</time>
   <time name="total">   27.10   27.47</time>
   <energy>
    <i name="e_fr_energy">    -39.87613998 </i>
    <i name="e_wo_entrp">    -39.87613998 </i>
    <i name="e_0_energy">    -39.87613998 </i>
   </energy>
  </scstep>
  <scstep>
   <time name="dav">   26.54   26.88</time>
   <time name="total">   26.55   26.88</time>
   <energy>
    <i name="e_fr_energy">    -42.90868250 </i>
    <i name="e_wo_entrp">    -42.90868250 </i>
    <i name="e_0_energy">    -42.90868250 </i>
   </energy>
  </scstep>
  <scstep>
   <time name="dav">   29.82   29.98</time>
   <time name="total">   31.99   32.16</time>
   <energy>
    <i name="e_fr_energy">    -42.99942199 </i>
    <i name="e_wo_entrp">    -42.99942199 </i>
    <i name="e_0_energy">    -42.99942199 </i>
   </energy>
  </scstep>
  <scstep>
   <time name="dav">   29.18   29.33</time>
   <time name="total">   82.91   83.68</time>
   <energy>
    <i name="e_fr_energy">   -104.59509908 </i>
    <i name="e_wo_entrp">   -104.59509908 </i>
    <i name="e_0_energy">   -104.59509908 </i>
   </energy>
  </scstep>
  <scstep>
   <time name="dav">   25.60   25.73</time>
   <time name="total">   79.98   80.22</time>
   <energy>
    <i name="e_fr_energy">    -52.96322280 </i>
    <i name="e_wo_entrp">    -52.96322280 </i>
    <i name="e_0_energy">    -52.96322280 </i>
   </energy>
  </scstep>
  <scstep>
   <time name="dav">   28.76   28.89</time>
   <time name="total">   82.96   83.20</time>
   <energy>
    <i name="e_fr_energy">    -38.69452658 </i>
    <i name="e_wo_entrp">    -38.69452658 </i>
    <i name="e_0_energy">    -38.69452658 </i>
   </energy>
  </scstep>
  <scstep>
   <time name="dav">   28.13   28.42</time>
   <time name="total">   81.64   83.09</time>
   <energy>
    <i name="e_fr_energy">    -34.80266354 </i>
    <i name="e_wo_entrp">    -34.80266354 </i>
    <i name="e_0_energy">    -34.80266354 </i>
   </energy>
  </scstep>
  <scstep>
   <time name="dav">   28.78   28.92</time>
   <time name="total">   82.50   82.80</time>
   <energy>
    <i name="e_fr_energy">    -34.81298868 </i>
    <i name="e_wo_entrp">    -34.81298868 </i>
    <i name="e_0_energy">    -34.81298868 </i>
   </energy>
  </scstep>
  <scstep>
   <time name="dav">   31.13   31.28</time>
   <time name="total">   85.04   85.43</time>
   <energy>
    <i name="e_fr_energy">    -34.83111613 </i>
    <i name="e_wo_entrp">    -34.83111613 </i>
    <i name="e_0_energy">    -34.83111613 </i>
   </energy>
  </scstep>
  <scstep>
   <time name="dav">   30.51   31.06</time>
   <time name="total">   84.20   85.22</time>
   <energy>
    <i name="e_fr_energy">    -34.99161866 </i>
    <i name="e_wo_entrp">    -34.99161866 </i>
    <i name="e_0_energy">    -34.99161866 </i>
   </energy>
  </scstep>
  <scstep>
   <time name="dav">   29.21   29.43</time>
   <time name="total">   83.23   83.65</time>
   <energy>
    <i name="e_fr_energy">    -35.00586433 </i>
    <i name="e_wo_entrp">    -35.00586433 </i>
    <i name="e_0_energy">    -35.00586433 </i>
   </energy>
  </scstep>
  <scstep>
   <time name="dav">   26.13   26.43</time>
   <time name="total">   79.81   81.04</time>
   <energy>
    <i name="e_fr_energy">    -34.92176780 </i>
    <i name="e_wo_entrp">    -34.92176780 </i>
    <i name="e_0_energy">    -34.92176780 </i>
   </energy>
  </scstep>
  <scstep>
   <time name="dav">   27.56   27.70</time>
   <time name="total">   81.88   82.09</time>
   <energy>
    <i name="e_fr_energy">    -34.91758108 </i>
    <i name="e_wo_entrp">    -34.91758108 </i>
    <i name="e_0_energy">    -34.91758108 </i>
   </energy>
  </scstep>
  <scstep>
   <time name="dav">   25.56   26.33</time>
   <time name="total">   79.92   80.93</time>
   <energy>
    <i name="e_fr_energy">    -34.90617647 </i>
    <i name="e_wo_entrp">    -34.90617647 </i>
    <i name="e_0_energy">    -34.90617647 </i>
   </energy>
  </scstep>
  <scstep>
   <time name="dav">   28.90   29.01</time>
   <time name="total">   83.35   83.61</time>
   <energy>
    <i name="e_fr_energy">    -34.99620311 </i>
    <i name="e_wo_entrp">    -34.99620311 </i>
    <i name="e_0_energy">    -34.99620311 </i>
   </energy>
  </scstep>
  <scstep>
   <time name="dav">   25.94   27.13</time>
   <time name="total">   79.92   81.57</time>
   <energy>
    <i name="e_fr_energy">    -34.97661098 </i>
    <i name="e_wo_entrp">    -34.97661098 </i>
    <i name="e_0_energy">    -34.97661098 </i>
   </energy>
  </scstep>
  <scstep>
   <time name="dav">   29.94   30.64</time>
   <time name="total">   84.14   85.25</time>
   <energy>
    <i name="e_fr_energy">    -35.01273682 </i>
    <i name="e_wo_entrp">    -35.01273682 </i>
    <i name="e_0_energy">    -35.01273682 </i>
   </energy>
  </scstep>
  <scstep>
   <time name="dav">   30.86   31.10</time>
   <time name="total">   85.10   85.52</time>
   <energy>
    <i name="e_fr_energy">    -35.00573930 </i>
    <i name="e_wo_entrp">    -35.00573930 </i>
    <i name="e_0_energy">    -35.00573930 </i>
   </energy>
  </scstep>
  <scstep>
   <time name="dav">   32.60   32.88</time>
   <time name="total">   86.34   86.69</time>
   <energy>
    <i name="e_fr_energy">    -35.00592538 </i>
    <i name="e_wo_entrp">    -35.00592538 </i>
    <i name="e_0_energy">    -35.00592538 </i>
   </energy>
  </scstep>
  <scstep>
   <time name="dav">   31.35   31.73</time>
   <time name="total">   85.24   85.80</time>
   <energy>
    <i name="e_fr_energy">    -35.00958422 </i>
    <i name="e_wo_entrp">    -35.00958422 </i>
    <i name="e_0_energy">    -35.00958422 </i>
   </energy>
  </scstep>
  <scstep>
   <time name="dav">   28.30   29.20</time>
   <time name="total">   82.19   83.24</time>
   <energy>
    <i name="e_fr_energy">    -35.00938379 </i>
    <i name="e_wo_entrp">    -35.00938379 </i>
    <i name="e_0_energy">    -35.00938379 </i>
   </energy>
  </scstep>
  <scstep>
   <time name="dav">   31.07   31.35</time>
   <time name="total">   85.30   85.83</time>
   <energy>
    <i name="e_fr_energy">    -35.01007120 </i>
    <i name="e_wo_entrp">    -35.01007120 </i>
    <i name="e_0_energy">    -35.01007120 </i>
   </energy>
  </scstep>
  <scstep>
   <time name="dav">   26.22   26.43</time>
   <time name="total">   80.59   80.95</time>
   <energy>
    <i name="e_fr_energy">    -35.01075814 </i>
    <i name="e_wo_entrp">    -35.01075814 </i>
    <i name="e_0_energy">    -35.01075814 </i>
   </energy>
  </scstep>
  <scstep>
   <time name="dav">   25.52   25.66</time>
   <time name="total">   79.53   79.98</time>
   <energy>
    <i name="e_fr_energy">    -35.01094041 </i>
    <i name="e_wo_entrp">    -35.01094041 </i>
    <i name="e_0_energy">    -35.01094041 </i>
   </energy>
  </scstep>
  <scstep>
   <time name="dav">   21.02   21.79</time>
   <time name="total">   72.58   73.69</time>
   <energy>
    <i name="alphaZ">     28.20599243 </i>
    <i name="ewald">   8338.88239735 </i>
    <i name="hartreedc"> -12011.15515271 </i>
    <i name="XCdc">    121.57809187 </i>
    <i name="pawpsdc">   2383.11276964 </i>
    <i name="pawaedc">  -2470.97440498 </i>
    <i name="eentropy">      0.00000000 </i>
    <i name="bandstr">   -538.11370155 </i>
    <i name="atom">   4113.45303949 </i>
    <i name="e_fr_energy">    -35.01096845 </i>
    <i name="e_wo_entrp">    -35.01096845 </i>
    <i name="e_0_energy">    -35.01096845 </i>
   </energy>
  </scstep>
  <structure>
   <crystal>
    <varray name="basis" >
     <v>       6.90777700      -0.00000000       0.00000000 </v>
     <v>       3.45388800       5.98231000       0.00000000 </v>
     <v>       0.00000000       0.00000000      23.44458800 </v>
    </varray>
    <i name="volume">    968.83501932 </i>
    <varray name="rec_basis" >
     <v>       0.14476437      -0.08357974       0.00000000 </v>
     <v>       0.00000000       0.16715951      -0.00000000 </v>
     <v>      -0.00000000       0.00000000       0.04265377 </v>
    </varray>
   </crystal>
   <varray name="positions" >
    <v>       0.33333300       0.33333300       0.49992500 </v>
    <v>       0.66666700       0.66666700       0.50007500 </v>
    <v>       0.00000000       0.00000000       0.44821600 </v>
    <v>       0.00000000       0.00000000       0.55178400 </v>
    <v>       0.62635700       0.00042000       0.57375200 </v>
    <v>       0.00042000       0.37322400       0.57375200 </v>
    <v>       0.37322400       0.62635700       0.57375200 </v>
    <v>       0.37364300       0.99958000       0.42624800 </v>
    <v>       0.99958000       0.62677600       0.42624800 </v>
    <v>       0.62677600       0.37364300       0.42624800 </v>
   </varray>
  </structure>
  <varray name="forces" >
   <v>      -0.00000000      -0.00000000       0.04374964 </v>
   <v>      -0.00000000      -0.00000000       0.02364344 </v>
   <v>      -0.00000000      -0.00000000      -0.79362642 </v>
   <v>      -0.00000000      -0.00000000       0.54028078 </v>
   <v>       0.98112249      -0.00403206      -1.61812588 </v>
   <v>      -0.49405304      -0.84766092      -1.61812588 </v>
   <v>      -0.48706945       0.85169298      -1.61812588 </v>
   <v>      -1.29962298       0.00145267       1.68011006 </v>
   <v>       0.65106945       1.12478012       1.68011006 </v>
   <v>       0.64855354      -1.12623279       1.68011006 </v>
  </varray>
  <varray name="stress" >
   <v>     -47.75306602       0.00000468       0.00000000 </v>
   <v>       0.00000330     -47.75306019      -0.00000000 </v>
   <v>      -0.00000000       0.00000000     -26.23761522 </v>
  </varray>
  <energy>
   <i name="e_fr_energy">    -35.01096845 </i>
   <i name="e_wo_entrp">    -35.01096845 </i>
   <i name="e_0_energy">      0.00000000 </i>
  </energy>
  <time name="totalsc"> 2149.67 2168.48</time>
 </calculation>
 <calculation>
  <scstep>
   <time name="dav">   30.52   30.61</time>
   <time name="total">   85.83   86.13</time>
   <energy>
    <i name="alphaZ">     41.23128502 </i>
    <i name="ewald">  10974.30604016 </i>
    <i name="hartreedc"> -15081.43872801 </i>
    <i name="XCdc">    147.20473338 </i>
    <i name="pawpsdc">   2382.95593425 </i>
    <i name="pawaedc">  -2470.81593697 </i>
    <i name="eentropy">      0.00000000 </i>
    <i name="bandstr">   -265.77894895 </i>
    <i name="atom">   4113.45303949 </i>
    <i name="e_fr_energy">   -158.88258163 </i>
    <i name="e_wo_entrp">   -158.88258163 </i>
    <i name="e_0_energy">   -158.88258163 </i>
   </energy>
  </scstep>
  <scstep>
   <time name="dav">   34.76   35.34</time>
   <time name="total">   90.32   90.96</time>
   <energy>
    <i name="e_fr_energy">   -360.04120481 </i>
    <i name="e_wo_entrp">   -360.04120481 </i>
    <i name="e_0_energy">   -360.04120481 </i>
   </energy>
  </scstep>
  <scstep>
   <time name="dav">   28.66   28.90</time>
   <time name="total">   83.90   84.37</time>
   <energy>
    <i name="e_fr_energy">    -77.28355793 </i>
    <i name="e_wo_entrp">    -77.28355793 </i>
    <i name="e_0_energy">    -77.28355793 </i>
   </energy>
  </scstep>
  <scstep>
   <time name="dav">   32.21   32.55</time>
   <time name="total">   87.60   88.20</time>
   <energy>
    <i name="e_fr_energy">    -52.25051971 </i>
    <i name="e_wo_entrp">    -52.25051971 </i>
    <i name="e_0_energy">    -52.25051971 </i>
   </energy>
  </scstep>
  <scstep>
   <time name="dav">   32.75   33.03</time>
   <time name="total">   88.02   88.66</time>
   <energy>
    <i name="e_fr_energy">    -42.60806899 </i>
    <i name="e_wo_entrp">    -42.60806899 </i>
    <i name="e_0_energy">    -42.60806899 </i>
   </energy>
  </scstep>
  <scstep>
   <time name="dav">   33.83   34.19</time>
   <time name="total">   88.83   89.86</time>
   <energy>
    <i name="e_fr_energy">    -42.64570147 </i>
    <i name="e_wo_entrp">    -42.64570147 </i>
    <i name="e_0_energy">    -42.64570147 </i>
   </energy>
  </scstep>
  <scstep>
   <time name="dav">   34.34   34.94</time>
   <time name="total">   89.57   90.67</time>
   <energy>
    <i name="e_fr_energy">    -42.94084840 </i>
    <i name="e_wo_entrp">    -42.94084840 </i>
    <i name="e_0_energy">    -42.94084840 </i>
   </energy>
  </scstep>
  <scstep>
   <time name="dav">   32.88   33.19</time>
   <time name="total">   88.23   88.66</time>
   <energy>
    <i name="e_fr_energy">    -42.45317617 </i>
    <i name="e_wo_entrp">    -42.45317617 </i>
    <i name="e_0_energy">    -42.45317617 </i>
   </energy>
  </scstep>
  <scstep>
   <time name="dav">   29.41   29.72</time>
   <time name="total">   84.61   85.34</time>
   <energy>
    <i name="e_fr_energy">    -42.34345385 </i>
    <i name="e_wo_entrp">    -42.34345385 </i>
    <i name="e_0_energy">    -42.34345385 </i>
   </energy>
  </scstep>
  <scstep>
   <time name="dav">   29.47   30.12</time>
   <time name="total">   84.99   85.73</time>
   <energy>
    <i name="e_fr_energy">    -42.37256494 </i>
    <i name="e_wo_entrp">    -42.37256494 </i>
    <i name="e_0_energy">    -42.37256494 </i>
   </energy>
  </scstep>
  <scstep>
   <time name="dav">   28.57   29.83</time>
   <time name="total">   83.56   85.47</time>
   <energy>
    <i name="e_fr_energy">    -42.34677819 </i>
    <i name="e_wo_entrp">    -42.34677819 </i>
    <i name="e_0_energy">    -42.34677819 </i>
   </energy>
  </scstep>
  <scstep>
   <time name="dav">   29.14   29.35</time>
   <time name="total">   83.42   84.97</time>
   <energy>
    <i name="e_fr_energy">    -42.38443711 </i>
    <i name="e_wo_entrp">    -42.38443711 </i>
    <i name="e_0_energy">    -42.38443711 </i>
   </energy>
  </scstep>
  <scstep>
   <time name="dav">   28.30   28.39</time>
   <time name="total">   83.84   83.97</time>
   <energy>
    <i name="e_fr_energy">    -42.38422682 </i>
    <i name="e_wo_entrp">    -42.38422682 </i>
    <i name="e_0_energy">    -42.38422682 </i>
   </energy>
  </scstep>
  <scstep>
   <time name="dav">   28.62   28.78</time>
   <time name="total">   83.66   83.93</time>
   <energy>
    <i name="e_fr_energy">    -42.36623523 </i>
    <i name="e_wo_entrp">    -42.36623523 </i>
    <i name="e_0_energy">    -42.36623523 </i>
   </energy>
  </scstep>
  <scstep>
   <time name="dav">   31.87   32.03</time>
   <time name="total">   87.27   87.64</time>
   <energy>
    <i name="e_fr_energy">    -42.34930035 </i>
    <i name="e_wo_entrp">    -42.34930035 </i>
    <i name="e_0_energy">    -42.34930035 </i>
   </energy>
  </scstep>
  <scstep>
   <time name="dav">   26.70   27.36</time>
   <time name="total">   81.93   82.87</time>
   <energy>
    <i name="e_fr_energy">    -42.35152389 </i>
    <i name="e_wo_entrp">    -42.35152389 </i>
    <i name="e_0_energy">    -42.35152389 </i>
   </energy>
  </scstep>
  <scstep>
   <time name="dav">   27.24   27.38</time>
   <time name="total">   82.73   83.08</time>
   <energy>
    <i name="e_fr_energy">    -42.35624024 </i>
    <i name="e_wo_entrp">    -42.35624024 </i>
    <i name="e_0_energy">    -42.35624024 </i>
   </energy>
  </scstep>
  <scstep>
   <time name="dav">   26.49   26.82</time>
   <time name="total">   81.88   82.37</time>
   <energy>
    <i name="e_fr_energy">    -42.35945580 </i>
    <i name="e_wo_entrp">    -42.35945580 </i>
    <i name="e_0_energy">    -42.35945580 </i>
   </energy>
  </scstep>
  <scstep>
   <time name="dav">   22.38   22.51</time>
   <time name="total">   78.07   78.33</time>
   <energy>
    <i name="e_fr_energy">    -42.36131381 </i>
    <i name="e_wo_entrp">    -42.36131381 </i>
    <i name="e_0_energy">    -42.36131381 </i>
   </energy>
  </scstep>
  <scstep>
   <time name="dav">   23.96   24.12</time>
   <time name="total">   79.41   79.71</time>
   <energy>
    <i name="e_fr_energy">    -42.36334090 </i>
    <i name="e_wo_entrp">    -42.36334090 </i>
    <i name="e_0_energy">    -42.36334090 </i>
   </energy>
  </scstep>
  <scstep>
   <time name="dav">   24.04   24.19</time>
   <time name="total">   78.96   79.73</time>
   <energy>
    <i name="e_fr_energy">    -42.36632206 </i>
    <i name="e_wo_entrp">    -42.36632206 </i>
    <i name="e_0_energy">    -42.36632206 </i>
   </energy>
  </scstep>
  <scstep>
   <time name="dav">   23.13   23.23</time>
   <time name="total">   78.71   78.97</time>
   <energy>
    <i name="e_fr_energy">    -42.36860192 </i>
    <i name="e_wo_entrp">    -42.36860192 </i>
    <i name="e_0_energy">    -42.36860192 </i>
   </energy>
  </scstep>
  <scstep>
   <time name="dav">   24.24   24.84</time>
   <time name="total">   79.82   80.69</time>
   <energy>
    <i name="e_fr_energy">    -42.37159213 </i>
    <i name="e_wo_entrp">    -42.37159213 </i>
    <i name="e_0_energy">    -42.37159213 </i>
   </energy>
  </scstep>
  <scstep>
   <time name="dav">   24.02   24.71</time>
   <time name="total">   77.88   80.40</time>
   <energy>
    <i name="e_fr_energy">    -42.37456607 </i>
    <i name="e_wo_entrp">    -42.37456607 </i>
    <i name="e_0_energy">    -42.37456607 </i>
   </energy>
  </scstep>
  <scstep>
   <time name="dav">   21.39   21.59</time>
   <time name="total">   76.00   77.35</time>
   <energy>
    <i name="e_fr_energy">    -42.37550528 </i>
    <i name="e_wo_entrp">    -42.37550528 </i>
    <i name="e_0_energy">    -42.37550528 </i>
   </energy>
  </scstep>
  <scstep>
   <time name="dav">   20.42   21.38</time>
   <time name="total">   74.60   77.55</time>
   <energy>
    <i name="e_fr_energy">    -42.37445441 </i>
    <i name="e_wo_entrp">    -42.37445441 </i>
    <i name="e_0_energy">    -42.37445441 </i>
   </energy>
  </scstep>
  <scstep>
   <time name="dav">   21.18   21.35</time>
   <time name="total">   76.60   76.91</time>
   <energy>
    <i name="e_fr_energy">    -42.37467601 </i>
    <i name="e_wo_entrp">    -42.37467601 </i>
    <i name="e_0_energy">    -42.37467601 </i>
   </energy>
  </scstep>
  <scstep>
   <time name="dav">   20.72   20.79</time>
   <time name="total">   75.94   76.20</time>
   <energy>
    <i name="e_fr_energy">    -42.37631799 </i>
    <i name="e_wo_entrp">    -42.37631799 </i>
    <i name="e_0_energy">    -42.37631799 </i>
   </energy>
  </scstep>
  <scstep>
   <time name="dav">   28.08   28.45</time>
   <time name="total">   83.88   84.33</time>
   <energy>
    <i name="e_fr_energy">    -42.38432456 </i>
    <i name="e_wo_entrp">    -42.38432456 </i>
    <i name="e_0_energy">    -42.38432456 </i>
   </energy>
  </scstep>
  <scstep>
   <time name="dav">   24.36   25.02</time>
   <time name="total">   78.91   80.63</time>
   <energy>
    <i name="e_fr_energy">    -42.38998086 </i>
    <i name="e_wo_entrp">    -42.38998086 </i>
    <i name="e_0_energy">    -42.38998086 </i>
   </energy>
  </scstep>
  <scstep>
   <time name="dav">   27.06   27.43</time>
   <time name="total">   82.18   83.23</time>
   <energy>
    <i name="e_fr_energy">    -42.40027999 </i>
    <i name="e_wo_entrp">    -42.40027999 </i>
    <i name="e_0_energy">    -42.40027999 </i>
   </energy>
  </scstep>
  <scstep>
   <time name="dav">   25.42   25.60</time>
   <time name="total">   80.64   81.21</time>
   <energy>
    <i name="e_fr_energy">    -42.40287670 </i>
    <i name="e_wo_entrp">    -42.40287670 </i>
    <i name="e_0_energy">    -42.40287670 </i>
   </energy>
  </scstep>
  <scstep>
   <time name="dav">   25.02   25.13</time>
   <time name="total">   79.65   80.96</time>
   <energy>
    <i name="e_fr_energy">    -42.40938186 </i>
    <i name="e_wo_entrp">    -42.40938186 </i>
    <i name="e_0_energy">    -42.40938186 </i>
   </energy>
  </scstep>
  <scstep>
   <time name="dav">   29.96   30.06</time>
   <time name="total">   85.00   85.65</time>
   <energy>
    <i name="e_fr_energy">    -42.42066890 </i>
    <i name="e_wo_entrp">    -42.42066890 </i>
    <i name="e_0_energy">    -42.42066890 </i>
   </energy>
  </scstep>
  <scstep>
   <time name="dav">   29.25   29.37</time>
   <time name="total">   85.05   85.40</time>
   <energy>
    <i name="e_fr_energy">    -42.43047884 </i>
    <i name="e_wo_entrp">    -42.43047884 </i>
    <i name="e_0_energy">    -42.43047884 </i>
   </energy>
  </scstep>
  <scstep>
   <time name="dav">   29.60   29.70</time>
   <time name="total">   85.07   85.32</time>
   <energy>
    <i name="e_fr_energy">    -42.43207740 </i>
    <i name="e_wo_entrp">    -42.43207740 </i>
    <i name="e_0_energy">    -42.43207740 </i>
   </energy>
  </scstep>
  <scstep>
   <time name="dav">   18.93   19.06</time>
   <time name="total">   74.51   74.85</time>
   <energy>
    <i name="e_fr_energy">    -42.43236191 </i>
    <i name="e_wo_entrp">    -42.43236191 </i>
    <i name="e_0_energy">    -42.43236191 </i>
   </energy>
  </scstep>
  <scstep>
   <time name="dav">   23.03   23.48</time>
   <time name="total">   76.21   76.88</time>
   <energy>
    <i name="alphaZ">     41.23128502 </i>
    <i name="ewald">  10974.30604016 </i>
    <i name="hartreedc"> -14690.15682773 </i>
    <i name="XCdc">    129.38626606 </i>
    <i name="pawpsdc">   2531.30731031 </i>
    <i name="pawaedc">  -2622.48504338 </i>
    <i name="eentropy">      0.00000000 </i>
    <i name="bandstr">   -519.47451846 </i>
    <i name="atom">   4113.45303949 </i>
    <i name="e_fr_energy">    -42.43244853 </i>
    <i name="e_wo_entrp">    -42.43244853 </i>
    <i name="e_0_energy">    -42.43244853 </i>
   </energy>
  </scstep>
  <structure>
   <crystal>
    <varray name="basis" >
     <v>       5.94547806       0.00000009       0.00000000 </v>
     <v>       2.97273866       5.14893487      -0.00000000 </v>
     <v>      -0.00000000       0.00000000      21.65011304 </v>
    </varray>
    <i name="volume">    662.77229080 </i>
    <varray name="rec_basis" >
     <v>       0.16819506      -0.09710745       0.00000000 </v>
     <v>      -0.00000000       0.19421493      -0.00000000 </v>
     <v>      -0.00000000       0.00000000       0.04618914 </v>
    </varray>
   </crystal>
   <varray name="positions" >
    <v>       0.33333300       0.33333300       0.50001502 </v>
    <v>       0.66666700       0.66666700       0.50012365 </v>
    <v>      -0.00000000      -0.00000000       0.44658293 </v>
    <v>       0.00000000       0.00000000       0.55178400 </v>
    <v>       0.63322524       0.00038748       0.57042233 </v>
    <v>       0.00038748       0.36638828       0.57042233 </v>
    <v>       0.36638828       0.63322524       0.57042233 </v>
    <v>       0.36456081       0.99959171       0.42970521 </v>
    <v>       0.99959171       0.63584647       0.42970521 </v>
    <v>       0.63584647       0.36456081       0.42970521 </v>
   </varray>
  </structure>
  <varray name="forces" >
   <v>       0.00000000      -0.00000000       0.19592011 </v>
   <v>       0.00000000       0.00000000       0.19688849 </v>
   <v>       0.00000000       0.00000000      -0.54885208 </v>
   <v>       0.00000000      -0.00000000       0.28992378 </v>
   <v>      -0.61785640      -0.00538089      -0.23101061 </v>
   <v>       0.30426819       0.53776976      -0.23101061 </v>
   <v>       0.31358822      -0.53238888      -0.23101061 </v>
   <v>      -0.89853856       0.01103244       0.18638384 </v>
   <v>       0.45882361       0.77264097       0.18638384 </v>
   <v>       0.43971495      -0.78367341       0.18638384 </v>
  </varray>
  <varray name="stress" >
   <v>     -10.01460629       0.00000083       0.00000000 </v>
   <v>       0.00000031     -10.01460546      -0.00000000 </v>
   <v>      -0.00000000       0.00000000      -4.02450097 </v>
  </varray>
  <energy>
   <i name="e_fr_energy">    -42.43244853 </i>
   <i name="e_wo_entrp">    -42.43244853 </i>
   <i name="e_0_energy">      0.00000000 </i>
  </energy>
  <time name="totalsc"> 3265.47 3296.69</time>
 </calculation>
 <calculation>
  <scstep>
   <time name="dav">   28.61   28.98</time>
   <time name="total">   84.24   84.70</time>
   <energy>
    <i name="alphaZ">     42.61620727 </i>
    <i name="ewald">  11243.60064274 </i>
    <i name="hartreedc"> -14993.17694592 </i>
    <i name="XCdc">    131.59702321 </i>
    <i name="pawpsdc">   2530.66511487 </i>
    <i name="pawaedc">  -2621.87274950 </i>
    <i name="eentropy">      0.00000000 </i>
    <i name="bandstr">   -489.99770668 </i>
    <i name="atom">   4113.45303949 </i>
    <i name="e_fr_energy">    -43.11537451 </i>
    <i name="e_wo_entrp">    -43.11537451 </i>
    <i name="e_0_energy">    -43.11537451 </i>
   </energy>
  </scstep>
  <scstep>
   <time name="dav">   27.88   27.99</time>
   <time name="total">   83.10   83.65</time>
   <energy>
    <i name="e_fr_energy">    -44.55527557 </i>
    <i name="e_wo_entrp">    -44.55527557 </i>
    <i name="e_0_energy">    -44.55527557 </i>
   </energy>
  </scstep>
  <scstep>
   <time name="dav">   25.34   26.19</time>
   <time name="total">   80.27   81.81</time>
   <energy>
    <i name="e_fr_energy">    -42.45888605 </i>
    <i name="e_wo_entrp">    -42.45888605 </i>
    <i name="e_0_energy">    -42.45888605 </i>
   </energy>
  </scstep>
  <scstep>
   <time name="dav">   30.46   31.19</time>
   <time name="total">   85.04   87.06</time>
   <energy>
    <i name="e_fr_energy">    -42.53064577 </i>
    <i name="e_wo_entrp">    -42.53064577 </i>
    <i name="e_0_energy">    -42.53064577 </i>
   </energy>
  </scstep>
  <scstep>
   <time name="dav">   27.27   28.37</time>
   <time name="total">   81.50   84.28</time>
   <energy>
    <i name="e_fr_energy">    -42.48414999 </i>
    <i name="e_wo_entrp">    -42.48414999 </i>
    <i name="e_0_energy">    -42.48414999 </i>
   </energy>
  </scstep>
  <scstep>
   <time name="dav">   29.73   29.82</time>
   <time name="total">   84.94   85.82</time>
   <energy>
    <i name="e_fr_energy">    -42.47601190 </i>
    <i name="e_wo_entrp">    -42.47601190 </i>
    <i name="e_0_energy">    -42.47601190 </i>
   </energy>
  </scstep>
  <scstep>
   <time name="dav">   30.74   30.89</time>
   <time name="total">   86.68   86.99</time>
   <energy>
    <i name="e_fr_energy">    -42.47536961 </i>
    <i name="e_wo_entrp">    -42.47536961 </i>
    <i name="e_0_energy">    -42.47536961 </i>
   </energy>
  </scstep>
  <scstep>
   <time name="dav">   27.82   28.11</time>
   <time name="total">   83.71   84.14</time>
   <energy>
    <i name="e_fr_energy">    -42.47558927 </i>
    <i name="e_wo_entrp">    -42.47558927 </i>
    <i name="e_0_energy">    -42.47558927 </i>
   </energy>
  </scstep>
  <scstep>
   <time name="dav">   23.50   23.62</time>
   <time name="total">   76.74   77.06</time>
   <energy>
    <i name="alphaZ">     42.61620727 </i>
    <i name="ewald">  11243.60064274 </i>
    <i name="hartreedc"> -14965.13807826 </i>
    <i name="XCdc">    130.27996594 </i>
    <i name="pawpsdc">   2552.17444847 </i>
    <i name="pawaedc">  -2643.89507471 </i>
    <i name="eentropy">      0.00000000 </i>
    <i name="bandstr">   -515.56664239 </i>
    <i name="atom">   4113.45303949 </i>
    <i name="e_fr_energy">    -42.47549144 </i>
    <i name="e_wo_entrp">    -42.47549144 </i>
    <i name="e_0_energy">    -42.47549144 </i>
   </energy>
  </scstep>
  <structure>
   <crystal>
    <varray name="basis" >
     <v>       5.86774877       0.00000010       0.00000000 </v>
     <v>       2.93387402       5.08161935      -0.00000000 </v>
     <v>      -0.00000000       0.00000000      21.50516509 </v>
    </varray>
    <i name="volume">    641.23381627 </i>
    <varray name="rec_basis" >
     <v>       0.17042311      -0.09839382       0.00000000 </v>
     <v>      -0.00000000       0.19678767      -0.00000000 </v>
     <v>      -0.00000000       0.00000000       0.04650046 </v>
    </varray>
   </crystal>
   <varray name="positions" >
    <v>       0.33333300       0.33333300       0.50002290 </v>
    <v>       0.66666700       0.66666700       0.50012791 </v>
    <v>      -0.00000000      -0.00000000       0.44644009 </v>
    <v>       0.00000000       0.00000000       0.55178400 </v>
    <v>       0.63386981       0.00038443       0.57013109 </v>
    <v>       0.00038443       0.36574676       0.57013109 </v>
    <v>       0.36574676       0.63386981       0.57013109 </v>
    <v>       0.36370847       0.99959281       0.43000762 </v>
    <v>       0.99959281       0.63669772       0.43000762 </v>
    <v>       0.63669772       0.36370847       0.43000762 </v>
   </varray>
  </structure>
  <varray name="forces" >
   <v>      -0.00000000       0.00000000       0.20242500 </v>
   <v>      -0.00000000       0.00000000       0.20824745 </v>
   <v>      -0.00000000       0.00000000      -0.53263329 </v>
   <v>      -0.00000000       0.00000000       0.24053799 </v>
   <v>      -0.96969200      -0.00899472       0.02390702 </v>
   <v>       0.47705629       0.84427523       0.02390702 </v>
   <v>       0.49263570      -0.83528051       0.02390702 </v>
   <v>      -0.74023986       0.00792528      -0.06343274 </v>
   <v>       0.37698339       0.63710386      -0.06343274 </v>
   <v>       0.36325648      -0.64502914      -0.06343274 </v>
  </varray>
  <varray name="stress" >
   <v>       2.11212739      -0.00000077      -0.00000000 </v>
   <v>       0.00000054       2.11212723      -0.00000000 </v>
   <v>      -0.00000000       0.00000000       2.75037661 </v>
  </varray>
  <energy>
   <i name="e_fr_energy">    -42.47549144 </i>
   <i name="e_wo_entrp">    -42.47549144 </i>
   <i name="e_0_energy">      0.00000000 </i>
  </energy>
  <time name="totalsc">  885.10  894.94</time>
 </calculation>
 <calculation>
  <scstep>
   <time name="dav">   26.44   26.88</time>
   <time name="total">   81.72   82.35</time>
   <energy>
    <i name="alphaZ">     42.36714110 </i>
    <i name="ewald">  11195.29295825 </i>
    <i name="hartreedc"> -14910.61264705 </i>
    <i name="XCdc">    129.89016781 </i>
    <i name="pawpsdc">   2552.57005854 </i>
    <i name="pawaedc">  -2644.28613220 </i>
    <i name="eentropy">      0.00000000 </i>
    <i name="bandstr">   -521.17421564 </i>
    <i name="atom">   4113.45303949 </i>
    <i name="e_fr_energy">    -42.49962970 </i>
    <i name="e_wo_entrp">    -42.49962970 </i>
    <i name="e_0_energy">    -42.49962970 </i>
   </energy>
  </scstep>
  <scstep>
   <time name="dav">   24.40   24.93</time>
   <time name="total">   79.62   80.63</time>
   <energy>
    <i name="e_fr_energy">    -42.54449128 </i>
    <i name="e_wo_entrp">    -42.54449128 </i>
    <i name="e_0_energy">    -42.54449128 </i>
   </energy>
  </scstep>
  <scstep>
   <time name="dav">   23.56   24.08</time>
   <time name="total">   79.01   79.85</time>
   <energy>
    <i name="e_fr_energy">    -42.48208062 </i>
    <i name="e_wo_entrp">    -42.48208062 </i>
    <i name="e_0_energy">    -42.48208062 </i>
   </energy>
  </scstep>
  <scstep>
   <time name="dav">   27.86   29.17</time>
   <time name="total">   83.23   84.70</time>
   <energy>
    <i name="e_fr_energy">    -42.48004231 </i>
    <i name="e_wo_entrp">    -42.48004231 </i>
    <i name="e_0_energy">    -42.48004231 </i>
   </energy>
  </scstep>
  <scstep>
   <time name="dav">   27.82   28.02</time>
   <time name="total">   82.43   83.78</time>
   <energy>
    <i name="e_fr_energy">    -42.47969882 </i>
    <i name="e_wo_entrp">    -42.47969882 </i>
    <i name="e_0_energy">    -42.47969882 </i>
   </energy>
  </scstep>
  <scstep>
   <time name="dav">   24.97   25.42</time>
   <time name="total">   80.21   81.10</time>
   <energy>
    <i name="e_fr_energy">    -42.48189571 </i>
    <i name="e_wo_entrp">    -42.48189571 </i>
    <i name="e_0_energy">    -42.48189571 </i>
   </energy>
  </scstep>
  <scstep>
   <time name="dav">   20.37   20.44</time>
   <time name="total">   73.42   73.90</time>
   <energy>
    <i name="alphaZ">     42.36714110 </i>
    <i name="ewald">  11195.29295825 </i>
    <i name="hartreedc"> -14914.92381306 </i>
    <i name="XCdc">    130.11608920 </i>
    <i name="pawpsdc">   2549.49442975 </i>
    <i name="pawaedc">  -2641.14861991 </i>
    <i name="eentropy">      0.00000000 </i>
    <i name="bandstr">   -517.13304998 </i>
    <i name="atom">   4113.45303949 </i>
    <i name="e_fr_energy">    -42.48182516 </i>
    <i name="e_wo_entrp">    -42.48182516 </i>
    <i name="e_0_energy">    -42.48182516 </i>
   </energy>
  </scstep>
  <structure>
   <crystal>
    <varray name="basis" >
     <v>       5.88147251       0.00000010       0.00000000 </v>
     <v>       2.94073589       5.09350446      -0.00000000 </v>
     <v>      -0.00000000       0.00000000      21.53075684 </v>
    </varray>
    <i name="volume">    645.00347482 </i>
    <varray name="rec_basis" >
     <v>       0.17002545      -0.09816423       0.00000000 </v>
     <v>      -0.00000000       0.19632848      -0.00000000 </v>
     <v>      -0.00000000       0.00000000       0.04644519 </v>
    </varray>
   </crystal>
   <varray name="positions" >
    <v>       0.33333300       0.33333300       0.50002150 </v>
    <v>       0.66666700       0.66666700       0.50012715 </v>
    <v>      -0.00000000      -0.00000000       0.44646548 </v>
    <v>       0.00000000       0.00000000       0.55178400 </v>
    <v>       0.63375450       0.00038498       0.57018286 </v>
    <v>       0.00038498       0.36586152       0.57018286 </v>
    <v>       0.36586152       0.63375450       0.57018286 </v>
    <v>       0.36386095       0.99959262       0.42995386 </v>
    <v>       0.99959262       0.63654543       0.42995386 </v>
    <v>       0.63654543       0.36386095       0.42995386 </v>
   </varray>
  </structure>
  <varray name="forces" >
   <v>      -0.00000000      -0.00000000       0.20100330 </v>
   <v>      -0.00000000      -0.00000000       0.20639068 </v>
   <v>      -0.00000000      -0.00000000      -0.52783972 </v>
   <v>      -0.00000000      -0.00000000       0.24865831 </v>
   <v>      -0.90733194      -0.00943173      -0.02426152 </v>
   <v>       0.44549781       0.79048834      -0.02426152 </v>
   <v>       0.46183413      -0.78105661      -0.02426152 </v>
   <v>      -0.76859222       0.00908291      -0.01847600 </v>
   <v>       0.39216211       0.66107891      -0.01847600 </v>
   <v>       0.37643011      -0.67016182      -0.01847600 </v>
  </varray>
  <varray name="stress" >
   <v>      -0.25204613       0.00000178      -0.00000000 </v>
   <v>      -0.00000175      -0.25204611       0.00000000 </v>
   <v>      -0.00000000       0.00000000       1.45523683 </v>
  </varray>
  <energy>
   <i name="e_fr_energy">    -42.48182516 </i>
   <i name="e_wo_entrp">    -42.48182516 </i>
   <i name="e_0_energy">      0.00000000 </i>
  </energy>
  <time name="totalsc">  698.17  706.23</time>
 </calculation>
 <calculation>
  <scstep>
   <time name="dav">   23.09   23.50</time>
   <time name="total">   78.56   79.19</time>
   <energy>
    <i name="alphaZ">     42.58441658 </i>
    <i name="ewald">  11304.35107950 </i>
    <i name="hartreedc"> -15025.62317707 </i>
    <i name="XCdc">    130.49673542 </i>
    <i name="pawpsdc">   2548.92850183 </i>
    <i name="pawaedc">  -2640.53990955 </i>
    <i name="eentropy">      0.00000000 </i>
    <i name="bandstr">   -516.23362160 </i>
    <i name="atom">   4113.45303949 </i>
    <i name="e_fr_energy">    -42.58293540 </i>
    <i name="e_wo_entrp">    -42.58293540 </i>
    <i name="e_0_energy">    -42.58293540 </i>
   </energy>
  </scstep>
  <scstep>
   <time name="dav">   29.21   29.29</time>
   <time name="total">   84.92   85.19</time>
   <energy>
    <i name="e_fr_energy">    -42.65783289 </i>
    <i name="e_wo_entrp">    -42.65783289 </i>
    <i name="e_0_energy">    -42.65783289 </i>
   </energy>
  </scstep>
  <scstep>
   <time name="dav">   27.68   27.89</time>
   <time name="total">   83.36   83.86</time>
   <energy>
    <i name="e_fr_energy">    -42.64733028 </i>
    <i name="e_wo_entrp">    -42.64733028 </i>
    <i name="e_0_energy">    -42.64733028 </i>
   </energy>
  </scstep>
  <scstep>
   <time name="dav">   26.60   26.84</time>
   <time name="total">   81.81   82.31</time>
   <energy>
    <i name="e_fr_energy">    -42.63954985 </i>
    <i name="e_wo_entrp">    -42.63954985 </i>
    <i name="e_0_energy">    -42.63954985 </i>
   </energy>
  </scstep>
  <scstep>
   <time name="dav">   31.82   32.19</time>
   <time name="total">   86.42   88.09</time>
   <energy>
    <i name="e_fr_energy">    -42.63997211 </i>
    <i name="e_wo_entrp">    -42.63997211 </i>
    <i name="e_0_energy">    -42.63997211 </i>
   </energy>
  </scstep>
  <scstep>
   <time name="dav">   34.20   34.30</time>
   <time name="total">   89.78   89.94</time>
   <energy>
    <i name="e_fr_energy">    -42.63946436 </i>
    <i name="e_wo_entrp">    -42.63946436 </i>
    <i name="e_0_energy">    -42.63946436 </i>
   </energy>
  </scstep>
  <scstep>
   <time name="dav">   24.42   25.28</time>
   <time name="total">   79.58   80.64</time>
   <energy>
    <i name="e_fr_energy">    -42.63918990 </i>
    <i name="e_wo_entrp">    -42.63918990 </i>
    <i name="e_0_energy">    -42.63918990 </i>
   </energy>
  </scstep>
  <scstep>
   <time name="dav">   20.98   21.04</time>
   <time name="total">   74.57   74.83</time>
   <energy>
    <i name="alphaZ">     42.58441658 </i>
    <i name="ewald">  11304.35107950 </i>
    <i name="hartreedc"> -15023.52094108 </i>
    <i name="XCdc">    130.32029239 </i>
    <i name="pawpsdc">   2551.94864602 </i>
    <i name="pawaedc">  -2643.60893671 </i>
    <i name="eentropy">      0.00000000 </i>
    <i name="bandstr">   -518.16683932 </i>
    <i name="atom">   4113.45303949 </i>
    <i name="e_fr_energy">    -42.63924314 </i>
    <i name="e_wo_entrp">    -42.63924314 </i>
    <i name="e_0_energy">    -42.63924314 </i>
   </energy>
  </scstep>
  <structure>
   <crystal>
    <varray name="basis" >
     <v>       5.86246240       0.00000012      -0.00000000 </v>
     <v>       2.93123082       5.07704123      -0.00000000 </v>
     <v>      -0.00000000      -0.00000000      21.56004962 </v>
    </varray>
    <i name="volume">    641.71251885 </i>
    <varray name="rec_basis" >
     <v>       0.17057679      -0.09848254       0.00000000 </v>
     <v>      -0.00000000       0.19696512      -0.00000000 </v>
     <v>       0.00000000       0.00000000       0.04638208 </v>
    </varray>
   </crystal>
   <varray name="positions" >
    <v>       0.33333300       0.33333300       0.50047979 </v>
    <v>       0.66666700       0.66666700       0.50059679 </v>
    <v>      -0.00000000      -0.00000000       0.44523212 </v>
    <v>       0.00000000       0.00000000       0.55178400 </v>
    <v>       0.62641683       0.00029371       0.57005656 </v>
    <v>       0.00029371       0.37329046       0.57005656 </v>
    <v>       0.37329046       0.62641683       0.57005656 </v>
    <v>       0.35721962       0.99968006       0.42998586 </v>
    <v>       0.99968006       0.64309932       0.42998586 </v>
    <v>       0.64309932       0.35721962       0.42998586 </v>
   </varray>
  </structure>
  <varray name="forces" >
   <v>       0.00000000      -0.00000000       0.18045595 </v>
   <v>       0.00000000      -0.00000000       0.17977836 </v>
   <v>       0.00000000      -0.00000000       0.24526877 </v>
   <v>       0.00000000      -0.00000000       0.15307926 </v>
   <v>      -0.39622599      -0.00647693      -0.06970885 </v>
   <v>       0.19250379       0.34638023      -0.06970885 </v>
   <v>       0.20372220      -0.33990330      -0.06970885 </v>
   <v>      -0.38001912       0.00600519      -0.18315193 </v>
   <v>       0.19521019       0.32610361      -0.18315193 </v>
   <v>       0.18480893      -0.33210879      -0.18315193 </v>
  </varray>
  <varray name="stress" >
   <v>       1.04119174      -0.00000058      -0.00000000 </v>
   <v>       0.00000047       1.04119165       0.00000000 </v>
   <v>       0.00000000       0.00000000       0.91446207 </v>
  </varray>
  <energy>
   <i name="e_fr_energy">    -42.63924314 </i>
   <i name="e_wo_entrp">    -42.63924314 </i>
   <i name="e_0_energy">      0.00000000 </i>
  </energy>
  <time name="totalsc">  798.19  803.85</time>
 </calculation>
 <calculation>
  <scstep>
   <time name="dav">   23.31   23.45</time>
   <time name="total">   78.65   78.97</time>
   <energy>
    <i name="alphaZ">     42.75366309 </i>
    <i name="ewald">  11390.19853014 </i>
    <i name="hartreedc"> -15110.34406032 </i>
    <i name="XCdc">    130.63704923 </i>
    <i name="pawpsdc">   2551.99107936 </i>
    <i name="pawaedc">  -2643.64910514 </i>
    <i name="eentropy">      0.00000000 </i>
    <i name="bandstr">   -517.67663598 </i>
    <i name="atom">   4113.45303949 </i>
    <i name="e_fr_energy">    -42.63644013 </i>
    <i name="e_wo_entrp">    -42.63644013 </i>
    <i name="e_0_energy">    -42.63644013 </i>
   </energy>
  </scstep>
  <scstep>
   <time name="dav">   30.14   30.34</time>
   <time name="total">   85.28   85.78</time>
   <energy>
    <i name="e_fr_energy">    -42.68168138 </i>
    <i name="e_wo_entrp">    -42.68168138 </i>
    <i name="e_0_energy">    -42.68168138 </i>
   </energy>
  </scstep>
  <scstep>
   <time name="dav">   26.68   26.84</time>
   <time name="total">   81.70   82.52</time>
   <energy>
    <i name="e_fr_energy">    -42.67250255 </i>
    <i name="e_wo_entrp">    -42.67250255 </i>
    <i name="e_0_energy">    -42.67250255 </i>
   </energy>
  </scstep>
  <scstep>
   <time name="dav">   27.87   28.11</time>
   <time name="total">   81.67   84.02</time>
   <energy>
    <i name="e_fr_energy">    -42.66956706 </i>
    <i name="e_wo_entrp">    -42.66956706 </i>
    <i name="e_0_energy">    -42.66956706 </i>
   </energy>
  </scstep>
  <scstep>
   <time name="dav">   31.42   31.81</time>
   <time name="total">   86.52   87.83</time>
   <energy>
    <i name="e_fr_energy">    -42.66939969 </i>
    <i name="e_wo_entrp">    -42.66939969 </i>
    <i name="e_0_energy">    -42.66939969 </i>
   </energy>
  </scstep>
  <scstep>
   <time name="dav">   28.02   28.51</time>
   <time name="total">   82.18   84.31</time>
   <energy>
    <i name="e_fr_energy">    -42.66978007 </i>
    <i name="e_wo_entrp">    -42.66978007 </i>
    <i name="e_0_energy">    -42.66978007 </i>
   </energy>
  </scstep>
  <scstep>
   <time name="dav">   26.30   26.37</time>
   <time name="total">   81.05   82.07</time>
   <energy>
    <i name="e_fr_energy">    -42.66942739 </i>
    <i name="e_wo_entrp">    -42.66942739 </i>
    <i name="e_0_energy">    -42.66942739 </i>
   </energy>
  </scstep>
  <scstep>
   <time name="dav">   18.24   18.31</time>
   <time name="total">   71.61   71.87</time>
   <energy>
    <i name="alphaZ">     42.75366309 </i>
    <i name="ewald">  11390.19853014 </i>
    <i name="hartreedc"> -15109.15969883 </i>
    <i name="XCdc">    130.50848983 </i>
    <i name="pawpsdc">   2555.73753837 </i>
    <i name="pawaedc">  -2647.44789317 </i>
    <i name="eentropy">      0.00000000 </i>
    <i name="bandstr">   -518.71316599 </i>
    <i name="atom">   4113.45303949 </i>
    <i name="e_fr_energy">    -42.66949707 </i>
    <i name="e_wo_entrp">    -42.66949707 </i>
    <i name="e_0_energy">    -42.66949707 </i>
   </energy>
  </scstep>
  <structure>
   <crystal>
    <varray name="basis" >
     <v>       5.84777974       0.00000014      -0.00000000 </v>
     <v>       2.92388948       5.06432569      -0.00000000 </v>
     <v>      -0.00000000      -0.00000000      21.58267420 </v>
    </varray>
    <i name="volume">    639.17220776 </i>
    <varray name="rec_basis" >
     <v>       0.17100508      -0.09872982       0.00000000 </v>
     <v>      -0.00000000       0.19745966      -0.00000000 </v>
     <v>       0.00000000       0.00000000       0.04633346 </v>
    </varray>
   </crystal>
   <varray name="positions" >
    <v>       0.33333300       0.33333300       0.50083328 </v>
    <v>       0.66666700       0.66666700       0.50095903 </v>
    <v>      -0.00000000      -0.00000000       0.44428082 </v>
    <v>       0.00000000       0.00000000       0.55178400 </v>
    <v>       0.62073112       0.00022299       0.56995914 </v>
    <v>       0.00022299       0.37904689       0.56995914 </v>
    <v>       0.37904689       0.62073112       0.56995914 </v>
    <v>       0.35207349       0.99974782       0.43001053 </v>
    <v>       0.99974782       0.64817770       0.43001053 </v>
    <v>       0.64817770       0.35207349       0.43001053 </v>
   </varray>
  </structure>
  <varray name="forces" >
   <v>       0.00000000      -0.00000000       0.15392995 </v>
   <v>       0.00000000      -0.00000000       0.14879034 </v>
   <v>      -0.00000000      -0.00000000       0.81010338 </v>
   <v>       0.00000000       0.00000000       0.08602620 </v>
   <v>      -0.07608966      -0.00436741      -0.08620538 </v>
   <v>       0.03426254       0.06807928      -0.08620538 </v>
   <v>       0.04182712      -0.06371187      -0.08620538 </v>
   <v>       0.01564679       0.00452276      -0.31341125 </v>
   <v>      -0.00390657      -0.01581189      -0.31341125 </v>
   <v>      -0.01174022       0.01128913      -0.31341125 </v>
  </varray>
  <varray name="stress" >
   <v>       3.18067931      -0.00000096      -0.00000000 </v>
   <v>       0.00000062       3.18067906       0.00000000 </v>
   <v>       0.00000000       0.00000000       0.53875511 </v>
  </varray>
  <energy>
   <i name="e_fr_energy">    -42.66949707 </i>
   <i name="e_wo_entrp">    -42.66949707 </i>
   <i name="e_0_energy">      0.00000000 </i>
  </energy>
  <time name="totalsc">  787.74  797.84</time>
 </calculation>
 <calculation>
  <scstep>
   <time name="dav">   26.49   26.66</time>
   <time name="total">   82.02   82.50</time>
   <energy>
    <i name="alphaZ">     42.72530314 </i>
    <i name="ewald">  11375.75853325 </i>
    <i name="hartreedc"> -15094.66791104 </i>
    <i name="XCdc">    130.45544861 </i>
    <i name="pawpsdc">   2555.77675922 </i>
    <i name="pawaedc">  -2647.48605661 </i>
    <i name="eentropy">      0.00000000 </i>
    <i name="bandstr">   -518.68459385 </i>
    <i name="atom">   4113.45303949 </i>
    <i name="e_fr_energy">    -42.66947779 </i>
    <i name="e_wo_entrp">    -42.66947779 </i>
    <i name="e_0_energy">    -42.66947779 </i>
   </energy>
  </scstep>
  <scstep>
   <time name="dav">   28.96   29.54</time>
   <time name="total">   84.50   85.39</time>
   <energy>
    <i name="e_fr_energy">    -42.67050899 </i>
    <i name="e_wo_entrp">    -42.67050899 </i>
    <i name="e_0_energy">    -42.67050899 </i>
   </energy>
  </scstep>
  <scstep>
   <time name="dav">   25.19   25.45</time>
   <time name="total">   79.80   81.45</time>
   <energy>
    <i name="e_fr_energy">    -42.67039412 </i>
    <i name="e_wo_entrp">    -42.67039412 </i>
    <i name="e_0_energy">    -42.67039412 </i>
   </energy>
  </scstep>
  <scstep>
   <time name="dav">   21.32   21.46</time>
   <time name="total">   74.39   75.01</time>
   <energy>
    <i name="alphaZ">     42.72530314 </i>
    <i name="ewald">  11375.75853325 </i>
    <i name="hartreedc"> -15095.02850131 </i>
    <i name="XCdc">    130.47533121 </i>
    <i name="pawpsdc">   2555.46289858 </i>
    <i name="pawaedc">  -2647.16912659 </i>
    <i name="eentropy">      0.00000000 </i>
    <i name="bandstr">   -518.34785044 </i>
    <i name="atom">   4113.45303949 </i>
    <i name="e_fr_energy">    -42.67037268 </i>
    <i name="e_wo_entrp">    -42.67037268 </i>
    <i name="e_0_energy">    -42.67037268 </i>
   </energy>
  </scstep>
  <structure>
   <crystal>
    <varray name="basis" >
     <v>       5.85023248       0.00000014      -0.00000000 </v>
     <v>       2.92511585       5.06644981      -0.00000000 </v>
     <v>      -0.00000000      -0.00000000      21.57889478 </v>
    </varray>
    <i name="volume">    639.59647366 </i>
    <varray name="rec_basis" >
     <v>       0.17093338      -0.09868842       0.00000000 </v>
     <v>      -0.00000000       0.19737687      -0.00000000 </v>
     <v>       0.00000000       0.00000000       0.04634158 </v>
    </varray>
   </crystal>
   <varray name="positions" >
    <v>       0.33333300       0.33333300       0.50077429 </v>
    <v>       0.66666700       0.66666700       0.50089858 </v>
    <v>      -0.00000000      -0.00000000       0.44443956 </v>
    <v>       0.00000000       0.00000000       0.55178400 </v>
    <v>       0.62168330       0.00023483       0.56997540 </v>
    <v>       0.00023483       0.37808287       0.56997540 </v>
    <v>       0.37808287       0.62168330       0.56997540 </v>
    <v>       0.35293530       0.99973647       0.43000641 </v>
    <v>       0.99973647       0.64732723       0.43000641 </v>
    <v>       0.64732723       0.35293530       0.43000641 </v>
   </varray>
  </structure>
  <varray name="forces" >
   <v>      -0.00000000       0.00000000       0.15585461 </v>
   <v>      -0.00000000       0.00000000       0.15323154 </v>
   <v>      -0.00000000       0.00000000       0.71419938 </v>
   <v>      -0.00000000       0.00000000       0.09663844 </v>
   <v>      -0.13047642      -0.00483419      -0.08060315 </v>
   <v>       0.06105168       0.11541299      -0.08060315 </v>
   <v>       0.06942475      -0.11057880      -0.08060315 </v>
   <v>      -0.06022240       0.00537495      -0.29270484 </v>
   <v>       0.03476604       0.04946665      -0.29270484 </v>
   <v>       0.02545636      -0.05484160      -0.29270484 </v>
  </varray>
  <varray name="stress" >
   <v>       3.44903588      -0.00000009      -0.00000000 </v>
   <v>      -0.00000028       3.44903561       0.00000000 </v>
   <v>       0.00000000      -0.00000000       0.89286331 </v>
  </varray>
  <energy>
   <i name="e_fr_energy">    -42.67037268 </i>
   <i name="e_wo_entrp">    -42.67037268 </i>
   <i name="e_0_energy">      0.00000000 </i>
  </energy>
  <time name="totalsc">  458.93  464.25</time>
 </calculation>
 <calculation>
  <scstep>
   <time name="dav">   30.42   30.45</time>
   <time name="total">   86.20   86.27</time>
   <energy>
    <i name="alphaZ">     42.05739062 </i>
    <i name="ewald">  11223.34699173 </i>
    <i name="hartreedc"> -14927.50062614 </i>
    <i name="XCdc">    129.46817555 </i>
    <i name="pawpsdc">   2555.30883603 </i>
    <i name="pawaedc">  -2647.01370283 </i>
    <i name="eentropy">      0.00000000 </i>
    <i name="bandstr">   -531.94841491 </i>
    <i name="atom">   4113.45303949 </i>
    <i name="e_fr_energy">    -42.82831047 </i>
    <i name="e_wo_entrp">    -42.82831047 </i>
    <i name="e_0_energy">    -42.82831047 </i>
   </energy>
  </scstep>
  <scstep>
   <time name="dav">   28.03   28.23</time>
   <time name="total">   83.42   83.67</time>
   <energy>
    <i name="e_fr_energy">    -43.15796726 </i>
    <i name="e_wo_entrp">    -43.15796726 </i>
    <i name="e_0_energy">    -43.15796726 </i>
   </energy>
  </scstep>
  <scstep>
   <time name="dav">   27.03   27.19</time>
   <time name="total">   82.01   82.53</time>
   <energy>
    <i name="e_fr_energy">    -42.71180259 </i>
    <i name="e_wo_entrp">    -42.71180259 </i>
    <i name="e_0_energy">    -42.71180259 </i>
   </energy>
  </scstep>
  <scstep>
   <time name="dav">   32.32   32.54</time>
   <time name="total">   87.34   87.90</time>
   <energy>
    <i name="e_fr_energy">    -42.73804058 </i>
    <i name="e_wo_entrp">    -42.73804058 </i>
    <i name="e_0_energy">    -42.73804058 </i>
   </energy>
  </scstep>
  <scstep>
   <time name="dav">   30.31   30.54</time>
   <time name="total">   85.90   86.36</time>
   <energy>
    <i name="e_fr_energy">    -42.70663039 </i>
    <i name="e_wo_entrp">    -42.70663039 </i>
    <i name="e_0_energy">    -42.70663039 </i>
   </energy>
  </scstep>
  <scstep>
   <time name="dav">   27.64   27.81</time>
   <time name="total">   83.16   83.50</time>
   <energy>
    <i name="e_fr_energy">    -42.70229053 </i>
    <i name="e_wo_entrp">    -42.70229053 </i>
    <i name="e_0_energy">    -42.70229053 </i>
   </energy>
  </scstep>
  <scstep>
   <time name="dav">   30.17   30.45</time>
   <time name="total">   85.29   85.82</time>
   <energy>
    <i name="e_fr_energy">    -42.70123733 </i>
    <i name="e_wo_entrp">    -42.70123733 </i>
    <i name="e_0_energy">    -42.70123733 </i>
   </energy>
  </scstep>
  <scstep>
   <time name="dav">   23.18   23.94</time>
   <time name="total">   78.51   79.59</time>
   <energy>
    <i name="e_fr_energy">    -42.70152673 </i>
    <i name="e_wo_entrp">    -42.70152673 </i>
    <i name="e_0_energy">    -42.70152673 </i>
   </energy>
  </scstep>
  <scstep>
   <time name="dav">   20.99   21.15</time>
   <time name="total">   76.42   76.84</time>
   <energy>
    <i name="e_fr_energy">    -42.70164465 </i>
    <i name="e_wo_entrp">    -42.70164465 </i>
    <i name="e_0_energy">    -42.70164465 </i>
   </energy>
  </scstep>
  <scstep>
   <time name="dav">   19.42   20.33</time>
   <time name="total">   72.23   73.52</time>
   <energy>
    <i name="alphaZ">     42.05739062 </i>
    <i name="ewald">  11223.34699173 </i>
    <i name="hartreedc"> -14940.02178443 </i>
    <i name="XCdc">    130.10945076 </i>
    <i name="pawpsdc">   2544.83019594 </i>
    <i name="pawaedc">  -2636.32991002 </i>
    <i name="eentropy">      0.00000000 </i>
    <i name="bandstr">   -520.14699199 </i>
    <i name="atom">   4113.45303949 </i>
    <i name="e_fr_energy">    -42.70161789 </i>
    <i name="e_wo_entrp">    -42.70161789 </i>
    <i name="e_0_energy">    -42.70161789 </i>
   </energy>
  </scstep>
  <structure>
   <crystal>
    <varray name="basis" >
     <v>       5.88965140       0.00000014      -0.00000000 </v>
     <v>       2.94482530       5.10058760      -0.00000000 </v>
     <v>      -0.00000000      -0.00000000      21.62913218 </v>
    </varray>
    <i name="volume">    649.75389160 </i>
    <varray name="rec_basis" >
     <v>       0.16978934      -0.09802791       0.00000000 </v>
     <v>      -0.00000000       0.19605585       0.00000000 </v>
     <v>       0.00000000       0.00000000       0.04623394 </v>
    </varray>
   </crystal>
   <varray name="positions" >
    <v>       0.33333300       0.33333300       0.50129428 </v>
    <v>       0.66666700       0.66666700       0.50141487 </v>
    <v>      -0.00000000      -0.00000000       0.44593871 </v>
    <v>       0.00000000       0.00000000       0.55178400 </v>
    <v>       0.61851911       0.00015781       0.56973583 </v>
    <v>       0.00015781       0.38132409       0.56973583 </v>
    <v>       0.38132409       0.61851911       0.56973583 </v>
    <v>       0.35056410       0.99981836       0.42926649 </v>
    <v>       0.99981836       0.64961654       0.42926649 </v>
    <v>       0.64961654       0.35056410       0.42926649 </v>
   </varray>
  </structure>
  <varray name="forces" >
   <v>       0.00000000      -0.00000000       0.05082222 </v>
   <v>       0.00000000      -0.00000000       0.05520260 </v>
   <v>       0.00000000      -0.00000000       0.21760650 </v>
   <v>       0.00000000      -0.00000000       0.46648102 </v>
   <v>       0.12311575      -0.00260936      -0.15453457 </v>
   <v>      -0.06381764      -0.10531668      -0.15453457 </v>
   <v>      -0.05929810       0.10792604      -0.15453457 </v>
   <v>      -0.17357436       0.00232948      -0.10883621 </v>
   <v>       0.08880456       0.14915506      -0.10883621 </v>
   <v>       0.08476980      -0.15148454      -0.10883621 </v>
  </varray>
  <varray name="stress" >
   <v>      -3.06477487      -0.00000034       0.00000000 </v>
   <v>       0.00000068      -3.06477463      -0.00000000 </v>
   <v>       0.00000000      -0.00000000       0.12478224 </v>
  </varray>
  <energy>
   <i name="e_fr_energy">    -42.70161789 </i>
   <i name="e_wo_entrp">    -42.70161789 </i>
   <i name="e_0_energy">      0.00000000 </i>
  </energy>
  <time name="totalsc">  959.18  965.10</time>
 </calculation>
 <calculation>
  <scstep>
   <time name="dav">   26.67   26.77</time>
   <time name="total">   81.89   82.29</time>
   <energy>
    <i name="alphaZ">     42.06578902 </i>
    <i name="ewald">  11225.26634065 </i>
    <i name="hartreedc"> -14942.18460803 </i>
    <i name="XCdc">    130.12139823 </i>
    <i name="pawpsdc">   2544.69673100 </i>
    <i name="pawaedc">  -2636.19883932 </i>
    <i name="eentropy">      0.00000000 </i>
    <i name="bandstr">   -519.92131817 </i>
    <i name="atom">   4113.45303949 </i>
    <i name="e_fr_energy">    -42.70146712 </i>
    <i name="e_wo_entrp">    -42.70146712 </i>
    <i name="e_0_energy">    -42.70146712 </i>
   </energy>
  </scstep>
  <scstep>
   <time name="dav">   22.82   22.99</time>
   <time name="total">   78.08   78.47</time>
   <energy>
    <i name="e_fr_energy">    -42.70191919 </i>
    <i name="e_wo_entrp">    -42.70191919 </i>
    <i name="e_0_energy">    -42.70191919 </i>
   </energy>
  </scstep>
  <scstep>
   <time name="dav">   20.04   21.22</time>
   <time name="total">   75.41   77.06</time>
   <energy>
    <i name="e_fr_energy">    -42.70155228 </i>
    <i name="e_wo_entrp">    -42.70155228 </i>
    <i name="e_0_energy">    -42.70155228 </i>
   </energy>
  </scstep>
  <scstep>
   <time name="dav">   19.50   19.73</time>
   <time name="total">   72.67   73.05</time>
   <energy>
    <i name="alphaZ">     42.06578902 </i>
    <i name="ewald">  11225.26634065 </i>
    <i name="hartreedc"> -14942.13376391 </i>
    <i name="XCdc">    130.11487933 </i>
    <i name="pawpsdc">   2544.86637344 </i>
    <i name="pawaedc">  -2636.36993944 </i>
    <i name="eentropy">      0.00000000 </i>
    <i name="bandstr">   -519.96423108 </i>
    <i name="atom">   4113.45303949 </i>
    <i name="e_fr_energy">    -42.70151250 </i>
    <i name="e_wo_entrp">    -42.70151250 </i>
    <i name="e_0_energy">    -42.70151250 </i>
   </energy>
  </scstep>
  <structure>
   <crystal>
    <varray name="basis" >
     <v>       5.88915037       0.00000014      -0.00000000 </v>
[...]
        <r>  0.0001  0.0115  0.0104  0.0001  0.0000  0.0000  0.0000  0.0000  0.0000 </r>
        <r>  0.0000  0.0017  0.0000  0.0050  0.0000  0.0000  0.0000  0.0000  0.0000 </r>
        <r>  0.0001  0.0022  0.0102  0.0094  0.0000  0.0000  0.0000  0.0000  0.0000 </r>
       </set>
       <set comment="band 30">
        <r>  0.0000  0.0021  0.0001  0.0039  0.0406  0.0388  0.1766  0.0170  0.0280 </r>
        <r>  0.0001  0.0019  0.0001  0.0040  0.0330  0.0443  0.1756  0.0119  0.0371 </r>
        <r>  0.0016  0.0004  0.0270  0.0001  0.0000  0.0000  0.0000  0.0000  0.0000 </r>
        <r>  0.0006  0.0028  0.0189  0.0010  0.0002  0.0000  0.0037  0.0000  0.0001 </r>
        <r>  0.0002  0.0012  0.0120  0.0050  0.0000  0.0000  0.0000  0.0000  0.0000 </r>
        <r>  0.0018  0.0058  0.0296  0.0019  0.0000  0.0000  0.0000  0.0000  0.0000 </r>
        <r>  0.0002  0.0061  0.0126  0.0001  0.0000  0.0000  0.0000  0.0000  0.0000 </r>
        <r>  0.0006  0.0037  0.0161  0.0044  0.0000  0.0000  0.0000  0.0000  0.0000 </r>
        <r>  0.0013  0.0011  0.0255  0.0003  0.0000  0.0000  0.0000  0.0000  0.0000 </r>
        <r>  0.0006  0.0074  0.0166  0.0004  0.0000  0.0000  0.0000  0.0000  0.0000 </r>
       </set>
       <set comment="band 31">
        <r>  0.0005  0.0035  0.0004  0.0066  0.1153  0.0137  0.1208  0.0035  0.0422 </r>
        <r>  0.0005  0.0050  0.0003  0.0050  0.0461  0.0055  0.1218  0.0116  0.1111 </r>
        <r>  0.0000  0.0001  0.0000  0.0002  0.0000  0.0000  0.0000  0.0000  0.0000 </r>
        <r>  0.0000  0.0006  0.0000  0.0017  0.0001  0.0000  0.0000  0.0001  0.0002 </r>
        <r>  0.0000  0.0211  0.0115  0.0013  0.0000  0.0000  0.0000  0.0000  0.0000 </r>
        <r>  0.0000  0.0063  0.0000  0.0190  0.0000  0.0000  0.0000  0.0000  0.0000 </r>
        <r>  0.0000  0.0075  0.0113  0.0150  0.0000  0.0000  0.0000  0.0000  0.0000 </r>
        <r>  0.0000  0.0372  0.0009  0.0000  0.0000  0.0000  0.0000  0.0000  0.0000 </r>
        <r>  0.0000  0.0127  0.0000  0.0382  0.0000  0.0000  0.0000  0.0000  0.0000 </r>
        <r>  0.0000  0.0107  0.0008  0.0266  0.0000  0.0000  0.0000  0.0000  0.0000 </r>
       </set>
       <set comment="band 32">
        <r>  0.0000  0.0001  0.0000  0.0007  0.0331  0.0516  0.0009  0.1133  0.0700 </r>
        <r>  0.0000  0.0005  0.0000  0.0002  0.0448  0.0384  0.0010  0.1257  0.0582 </r>
        <r>  0.0032  0.0005  0.0074  0.0002  0.0000  0.0000  0.0000  0.0000  0.0000 </r>
        <r>  0.0044  0.0008  0.0305  0.0002  0.0004  0.0000  0.0029  0.0000  0.0001 </r>
        <r>  0.0027  0.0052  0.0125  0.0048  0.0000  0.0000  0.0000  0.0000  0.0000 </r>
        <r>  0.0091  0.0017  0.0252  0.0006  0.0000  0.0000  0.0000  0.0000  0.0000 </r>
        <r>  0.0026  0.0063  0.0125  0.0036  0.0000  0.0000  0.0000  0.0000  0.0000 </r>
        <r>  0.0034  0.0032  0.0152  0.0036  0.0000  0.0000  0.0000  0.0000  0.0000 </r>
        <r>  0.0076  0.0012  0.0328  0.0004  0.0000  0.0000  0.0000  0.0000  0.0000 </r>
        <r>  0.0034  0.0053  0.0154  0.0015  0.0000  0.0000  0.0000  0.0000  0.0000 </r>
       </set>
       <set comment="band 33">
        <r>  0.0006  0.0013  0.0006  0.0000  0.0343  0.1196  0.0062  0.0868  0.0241 </r>
        <r>  0.0006  0.0003  0.0006  0.0010  0.0362  0.1204  0.0062  0.0851  0.0218 </r>
        <r>  0.0000  0.0010  0.0000  0.0031  0.0000  0.0000  0.0000  0.0000  0.0000 </r>
        <r>  0.0000  0.0032  0.0000  0.0096  0.0008  0.0001  0.0000  0.0004  0.0023 </r>
        <r>  0.0060  0.0272  0.0147  0.0083  0.0000  0.0000  0.0000  0.0000  0.0000 </r>
        <r>  0.0000  0.0045  0.0000  0.0136  0.0000  0.0000  0.0000  0.0000  0.0000 </r>
        <r>  0.0060  0.0077  0.0148  0.0279  0.0000  0.0000  0.0000  0.0000  0.0000 </r>
        <r>  0.0033  0.0150  0.0132  0.0076  0.0000  0.0000  0.0000  0.0000  0.0000 </r>
        <r>  0.0000  0.0020  0.0000  0.0059  0.0000  0.0000  0.0000  0.0000  0.0000 </r>
        <r>  0.0033  0.0024  0.0130  0.0202  0.0000  0.0000  0.0000  0.0000  0.0000 </r>
       </set>
       <set comment="band 34">
        <r>  0.0001  0.0003  0.0003  0.0003  0.0830  0.0965  0.0066  0.0608  0.0129 </r>
        <r>  0.0001  0.0005  0.0003  0.0001  0.0559  0.1060  0.0066  0.0526  0.0405 </r>
        <r>  0.0043  0.0004  0.0009  0.0001  0.0000  0.0000  0.0000  0.0000  0.0000 </r>
        <r>  0.0063  0.0008  0.0004  0.0003  0.0004  0.0006  0.0016  0.0002  0.0001 </r>
        <r>  0.0039  0.0112  0.0331  0.0028  0.0000  0.0000  0.0000  0.0000  0.0000 </r>
        <r>  0.0023  0.0141  0.0133  0.0047  0.0000  0.0000  0.0000  0.0000  0.0000 </r>
        <r>  0.0039  0.0090  0.0330  0.0049  0.0000  0.0000  0.0000  0.0000  0.0000 </r>
        <r>  0.0030  0.0096  0.0266  0.0037  0.0000  0.0000  0.0000  0.0000  0.0000 </r>
        <r>  0.0009  0.0148  0.0121  0.0050  0.0000  0.0000  0.0000  0.0000  0.0000 </r>
        <r>  0.0030  0.0103  0.0266  0.0031  0.0000  0.0000  0.0000  0.0000  0.0000 </r>
       </set>
       <set comment="band 35">
        <r>  0.0004  0.0009  0.0002  0.0001  0.0097  0.0782  0.0004  0.1123  0.0214 </r>
        <r>  0.0004  0.0001  0.0002  0.0009  0.0145  0.0710  0.0004  0.1200  0.0167 </r>
        <r>  0.0000  0.0002  0.0000  0.0006  0.0000  0.0000  0.0000  0.0000  0.0000 </r>
        <r>  0.0000  0.0005  0.0000  0.0016  0.0001  0.0000  0.0000  0.0001  0.0003 </r>
        <r>  0.0014  0.0559  0.0020  0.0005  0.0000  0.0000  0.0000  0.0000  0.0000 </r>
        <r>  0.0000  0.0154  0.0000  0.0465  0.0000  0.0000  0.0000  0.0000  0.0000 </r>
        <r>  0.0014  0.0099  0.0020  0.0464  0.0000  0.0000  0.0000  0.0000  0.0000 </r>
        <r>  0.0010  0.0477  0.0021  0.0008  0.0000  0.0000  0.0000  0.0000  0.0000 </r>
        <r>  0.0000  0.0115  0.0000  0.0344  0.0000  0.0000  0.0000  0.0000  0.0000 </r>
        <r>  0.0010  0.0072  0.0021  0.0414  0.0000  0.0000  0.0000  0.0000  0.0000 </r>
       </set>
       <set comment="band 36">
        <r>  0.0001  0.0026  0.0003  0.0008  0.0003  0.0103  0.0006  0.0004  0.0085 </r>
        <r>  0.0001  0.0014  0.0003  0.0020  0.0077  0.0016  0.0006  0.0091  0.0010 </r>
        <r>  0.0442  0.0007  0.0004  0.0002  0.0000  0.0000  0.0000  0.0000  0.0000 </r>
        <r>  0.1272  0.0005  0.0265  0.0002  0.0001  0.0000  0.0039  0.0000  0.0000 </r>
        <r>  0.0076  0.0063  0.0007  0.0739  0.0000  0.0000  0.0000  0.0000  0.0000 </r>
        <r>  0.0040  0.0575  0.0060  0.0191  0.0000  0.0000  0.0000  0.0000  0.0000 </r>
        <r>  0.0076  0.0382  0.0007  0.0420  0.0000  0.0000  0.0000  0.0000  0.0000 </r>
        <r>  0.0038  0.0035  0.0054  0.0192  0.0000  0.0000  0.0000  0.0000  0.0000 </r>
        <r>  0.0039  0.0293  0.0045  0.0098  0.0000  0.0000  0.0000  0.0000  0.0000 </r>
        <r>  0.0038  0.0082  0.0054  0.0144  0.0000  0.0000  0.0000  0.0000  0.0000 </r>
       </set>
       <set comment="band 37">
        <r>  0.0001  0.0003  0.0000  0.0009  0.0135  0.0199  0.0002  0.0161  0.0061 </r>
        <r>  0.0001  0.0006  0.0000  0.0006  0.0089  0.0253  0.0002  0.0108  0.0108 </r>
        <r>  0.0667  0.0022  0.0701  0.0007  0.0000  0.0000  0.0000  0.0000  0.0000 </r>
        <r>  0.0212  0.0002  0.0305  0.0001  0.0000  0.0001  0.0016  0.0000  0.0000 </r>
        <r>  0.0003  0.0002  0.0095  0.0162  0.0000  0.0000  0.0000  0.0000  0.0000 </r>
        <r>  0.0003  0.0084  0.0024  0.0028  0.0000  0.0000  0.0000  0.0000  0.0000 </r>
        <r>  0.0003  0.0106  0.0095  0.0058  0.0000  0.0000  0.0000  0.0000  0.0000 </r>
        <r>  0.0041  0.0024  0.0067  0.0614  0.0000  0.0000  0.0000  0.0000  0.0000 </r>
        <r>  0.0040  0.0419  0.0031  0.0139  0.0000  0.0000  0.0000  0.0000  0.0000 </r>
        <r>  0.0041  0.0362  0.0067  0.0276  0.0000  0.0000  0.0000  0.0000  0.0000 </r>
       </set>
       <set comment="band 38">
        <r>  0.0294  0.0006  0.0037  0.0015  0.0012  0.0002  0.0025  0.0005  0.0007 </r>
        <r>  0.0294  0.0005  0.0037  0.0016  0.0013  0.0002  0.0025  0.0005  0.0006 </r>
        <r>  0.0013  0.0713  0.0011  0.0237  0.0000  0.0000  0.0000  0.0000  0.0000 </r>
        <r>  0.0000  0.0273  0.0002  0.0091  0.0036  0.0061  0.0000  0.0020  0.0012 </r>
        <r>  0.0010  0.0011  0.0006  0.0032  0.0000  0.0000  0.0000  0.0000  0.0000 </r>
        <r>  0.0075  0.0161  0.0010  0.0054  0.0000  0.0000  0.0000  0.0000  0.0000 </r>
        <r>  0.0010  0.0018  0.0006  0.0025  0.0000  0.0000  0.0000  0.0000  0.0000 </r>
        <r>  0.0037  0.0036  0.0039  0.0079  0.0000  0.0000  0.0000  0.0000  0.0000 </r>
        <r>  0.0238  0.0491  0.0074  0.0164  0.0000  0.0000  0.0000  0.0000  0.0000 </r>
        <r>  0.0037  0.0023  0.0039  0.0092  0.0000  0.0000  0.0000  0.0000  0.0000 </r>
       </set>
       <set comment="band 39">
        <r>  0.0251  0.0021  0.0021  0.0023  0.0039  0.0028  0.0025  0.0011  0.0007 </r>
        <r>  0.0252  0.0028  0.0021  0.0015  0.0024  0.0029  0.0025  0.0010  0.0022 </r>
        <r>  0.0000  0.0146  0.0000  0.0437  0.0000  0.0000  0.0000  0.0000  0.0000 </r>
        <r>  0.0000  0.0172  0.0000  0.0517  0.0023  0.0021  0.0000  0.0063  0.0068 </r>
        <r>  0.0081  0.0138  0.0003  0.0289  0.0000  0.0000  0.0000  0.0000  0.0000 </r>
        <r>  0.0000  0.0012  0.0000  0.0037  0.0000  0.0000  0.0000  0.0000  0.0000 </r>
        <r>  0.0081  0.0420  0.0003  0.0007  0.0000  0.0000  0.0000  0.0000  0.0000 </r>
        <r>  0.0070  0.0120  0.0030  0.0357  0.0000  0.0000  0.0000  0.0000  0.0000 </r>
        <r>  0.0000  0.0026  0.0000  0.0078  0.0000  0.0000  0.0000  0.0000  0.0000 </r>
        <r>  0.0070  0.0475  0.0030  0.0001  0.0000  0.0000  0.0000  0.0000  0.0000 </r>
       </set>
       <set comment="band 40">
        <r>  0.0056  0.0040  0.0023  0.0030  0.0038  0.0024  0.0005  0.0029  0.0107 </r>
        <r>  0.0056  0.0050  0.0023  0.0020  0.0055  0.0036  0.0005  0.0017  0.0090 </r>
        <r>  0.0266  0.0035  0.0538  0.0012  0.0000  0.0000  0.0000  0.0000  0.0000 </r>
        <r>  0.0243  0.0118  0.0908  0.0040  0.0023  0.0001  0.0120  0.0000  0.0008 </r>
        <r>  0.0001  0.0001  0.0145  0.0034  0.0000  0.0000  0.0000  0.0000  0.0000 </r>
        <r>  0.0042  0.0016  0.0188  0.0005  0.0000  0.0000  0.0000  0.0000  0.0000 </r>
        <r>  0.0001  0.0022  0.0145  0.0013  0.0000  0.0000  0.0000  0.0000  0.0000 </r>
        <r>  0.0000  0.0006  0.0123  0.0026  0.0000  0.0000  0.0000  0.0000  0.0000 </r>
        <r>  0.0032  0.0006  0.0178  0.0002  0.0000  0.0000  0.0000  0.0000  0.0000 </r>
        <r>  0.0000  0.0011  0.0123  0.0022  0.0000  0.0000  0.0000  0.0000  0.0000 </r>
       </set>
       <set comment="band 41">
        <r>  0.0272  0.0008  0.0017  0.0003  0.0045  0.0022  0.0040  0.0031  0.0021 </r>
        <r>  0.0273  0.0008  0.0017  0.0003  0.0052  0.0007  0.0040  0.0045  0.0015 </r>
        <r>  0.0044  0.0182  0.0087  0.0060  0.0000  0.0000  0.0000  0.0000  0.0000 </r>
        <r>  0.0083  0.0741  0.0125  0.0247  0.0157  0.0002  0.0005  0.0001  0.0053 </r>
        <r>  0.0029  0.0009  0.0010  0.0002  0.0000  0.0000  0.0000  0.0000  0.0000 </r>
        <r>  0.0219  0.0323  0.0207  0.0108  0.0000  0.0000  0.0000  0.0000  0.0000 </r>
        <r>  0.0029  0.0001  0.0010  0.0010  0.0000  0.0000  0.0000  0.0000  0.0000 </r>
        <r>  0.0012  0.0037  0.0011  0.0000  0.0000  0.0000  0.0000  0.0000  0.0000 </r>
        <r>  0.0099  0.0065  0.0117  0.0021  0.0000  0.0000  0.0000  0.0000  0.0000 </r>
        <r>  0.0012  0.0012  0.0011  0.0024  0.0000  0.0000  0.0000  0.0000  0.0000 </r>
       </set>
       <set comment="band 42">
        <r>  0.0143  0.0003  0.0028  0.0001  0.0028  0.0036  0.0026  0.0040  0.0046 </r>
        <r>  0.0142  0.0003  0.0028  0.0002  0.0028  0.0036  0.0026  0.0040  0.0046 </r>
        <r>  0.0000  0.0160  0.0000  0.0481  0.0000  0.0000  0.0000  0.0000  0.0000 </r>
        <r>  0.0000  0.0199  0.0000  0.0595  0.0036  0.0003  0.0000  0.0009  0.0106 </r>
        <r>  0.0081  0.0083  0.0023  0.0131  0.0000  0.0000  0.0000  0.0000  0.0000 </r>
        <r>  0.0000  0.0032  0.0000  0.0095  0.0000  0.0000  0.0000  0.0000  0.0000 </r>
        <r>  0.0082  0.0209  0.0023  0.0005  0.0000  0.0000  0.0000  0.0000  0.0000 </r>
        <r>  0.0085  0.0094  0.0029  0.0205  0.0000  0.0000  0.0000  0.0000  0.0000 </r>
        <r>  0.0000  0.0059  0.0000  0.0177  0.0000  0.0000  0.0000  0.0000  0.0000 </r>
        <r>  0.0085  0.0290  0.0030  0.0009  0.0000  0.0000  0.0000  0.0000  0.0000 </r>
       </set>
       <set comment="band 43">
        <r>  0.0488  0.0029  0.0086  0.0020  0.0015  0.0007  0.0068  0.0004  0.0029 </r>
        <r>  0.0489  0.0019  0.0085  0.0030  0.0023  0.0006  0.0068  0.0004  0.0022 </r>
        <r>  0.0003  0.0137  0.0015  0.0046  0.0000  0.0000  0.0000  0.0000  0.0000 </r>
        <r>  0.0012  0.0299  0.0020  0.0100  0.0031  0.0004  0.0011  0.0001  0.0011 </r>
        <r>  0.0001  0.0114  0.0008  0.0005  0.0000  0.0000  0.0000  0.0000  0.0000 </r>
        <r>  0.0042  0.0062  0.0135  0.0021  0.0000  0.0000  0.0000  0.0000  0.0000 </r>
        <r>  0.0001  0.0012  0.0008  0.0107  0.0000  0.0000  0.0000  0.0000  0.0000 </r>
        <r>  0.0003  0.0119  0.0019  0.0020  0.0000  0.0000  0.0000  0.0000  0.0000 </r>
        <r>  0.0020  0.0040  0.0157  0.0013  0.0000  0.0000  0.0000  0.0000  0.0000 </r>
        <r>  0.0003  0.0003  0.0019  0.0136  0.0000  0.0000  0.0000  0.0000  0.0000 </r>
       </set>
       <set comment="band 44">
        <r>  0.0015  0.0008  0.0007  0.0084  0.0007  0.0003  0.0007  0.0006  0.0004 </r>
        <r>  0.0016  0.0047  0.0007  0.0046  0.0003  0.0006  0.0007  0.0002  0.0008 </r>
        <r>  0.0016  0.0008  0.0027  0.0003  0.0000  0.0000  0.0000  0.0000  0.0000 </r>
        <r>  0.0062  0.0019  0.0027  0.0006  0.0006  0.0000  0.0064  0.0000  0.0002 </r>
        <r>  0.0005  0.0002  0.0020  0.0018  0.0000  0.0000  0.0000  0.0000  0.0000 </r>
        <r>  0.0027  0.0046  0.0027  0.0016  0.0000  0.0000  0.0000  0.0000  0.0000 </r>
        <r>  0.0006  0.0018  0.0021  0.0001  0.0000  0.0000  0.0000  0.0000  0.0000 </r>
        <r>  0.0019  0.0002  0.0019  0.0020  0.0000  0.0000  0.0000  0.0000  0.0000 </r>
        <r>  0.0035  0.0048  0.0035  0.0017  0.0000  0.0000  0.0000  0.0000  0.0000 </r>
        <r>  0.0019  0.0018  0.0021  0.0004  0.0000  0.0000  0.0000  0.0000  0.0000 </r>
       </set>
       <set comment="band 45">
        <r>  0.0214  0.0030  0.0067  0.0019  0.0024  0.0002  0.0027  0.0001  0.0028 </r>
        <r>  0.0214  0.0037  0.0066  0.0012  0.0021  0.0002  0.0027  0.0001  0.0031 </r>
        <r>  0.0000  0.0001  0.0000  0.0004  0.0000  0.0000  0.0000  0.0000  0.0000 </r>
        <r>  0.0000  0.0024  0.0000  0.0073  0.0004  0.0002  0.0000  0.0006  0.0012 </r>
        <r>  0.0053  0.0034  0.0039  0.0019  0.0000  0.0000  0.0000  0.0000  0.0000 </r>
        <r>  0.0000  0.0024  0.0000  0.0068  0.0000  0.0000  0.0000  0.0000  0.0000 </r>
        <r>  0.0052  0.0045  0.0038  0.0009  0.0000  0.0000  0.0000  0.0000  0.0000 </r>
        <r>  0.0019  0.0013  0.0122  0.0006  0.0000  0.0000  0.0000  0.0000  0.0000 </r>
        <r>  0.0000  0.0026  0.0000  0.0076  0.0000  0.0000  0.0000  0.0000  0.0000 </r>
        <r>  0.0019  0.0000  0.0120  0.0018  0.0000  0.0000  0.0000  0.0000  0.0000 </r>
       </set>
       <set comment="band 46">
        <r>  0.0128  0.0009  0.0131  0.0021  0.0020  0.0001  0.0000  0.0003  0.0043 </r>
        <r>  0.0127  0.0021  0.0133  0.0011  0.0017  0.0004  0.0001  0.0000  0.0045 </r>
        <r>  0.0003  0.0140  0.0026  0.0049  0.0000  0.0000  0.0000  0.0000  0.0000 </r>
        <r>  0.0000  0.0011  0.0034  0.0004  0.0015  0.0091  0.0007  0.0031  0.0005 </r>
        <r>  0.0003  0.0012  0.0043  0.0001  0.0000  0.0000  0.0000  0.0000  0.0000 </r>
        <r>  0.0005  0.0003  0.0154  0.0001  0.0000  0.0000  0.0000  0.0000  0.0000 </r>
        <r>  0.0004  0.0003  0.0043  0.0010  0.0000  0.0000  0.0000  0.0000  0.0000 </r>
        <r>  0.0001  0.0025  0.0057  0.0016  0.0000  0.0000  0.0000  0.0000  0.0000 </r>
        <r>  0.0008  0.0042  0.0007  0.0013  0.0000  0.0000  0.0000  0.0000  0.0000 </r>
        <r>  0.0001  0.0003  0.0060  0.0037  0.0000  0.0000  0.0000  0.0000  0.0000 </r>
       </set>
       <set comment="band 47">
        <r>  0.0058  0.0018  0.0009  0.0011  0.0000  0.0001  0.0029  0.0000  0.0001 </r>
        <r>  0.0057  0.0010  0.0008  0.0018  0.0001  0.0000  0.0029  0.0000  0.0000 </r>
        <r>  0.0000  0.0019  0.0000  0.0052  0.0000  0.0000  0.0000  0.0000  0.0000 </r>
        <r>  0.0000  0.0015  0.0000  0.0044  0.0001  0.0003  0.0000  0.0007  0.0003 </r>
        <r>  0.0016  0.0005  0.0009  0.0031  0.0000  0.0000  0.0000  0.0000  0.0000 </r>
        <r>  0.0000  0.0004  0.0000  0.0013  0.0000  0.0000  0.0000  0.0000  0.0000 </r>
        <r>  0.0015  0.0027  0.0009  0.0008  0.0000  0.0000  0.0000  0.0000  0.0000 </r>
        <r>  0.0038  0.0015  0.0024  0.0059  0.0000  0.0000  0.0000  0.0000  0.0000 </r>
        <r>  0.0000  0.0010  0.0000  0.0031  0.0000  0.0000  0.0000  0.0000  0.0000 </r>
        <r>  0.0038  0.0069  0.0022  0.0005  0.0000  0.0000  0.0000  0.0000  0.0000 </r>
       </set>
       <set comment="band 48">
        <r>  0.0577  0.0024  0.0046  0.0054  0.0002  0.0002  0.0016  0.0006  0.0001 </r>
        <r>  0.0580  0.0044  0.0045  0.0033  0.0002  0.0007  0.0017  0.0002  0.0001 </r>
        <r>  0.0000  0.0043  0.0000  0.0130  0.0000  0.0000  0.0000  0.0000  0.0000 </r>
        <r>  0.0000  0.0020  0.0000  0.0061  0.0002  0.0005  0.0000  0.0017  0.0005 </r>
        <r>  0.0012  0.0033  0.0298  0.0002  0.0000  0.0000  0.0000  0.0000  0.0000 </r>
        <r>  0.0000  0.0026  0.0000  0.0079  0.0000  0.0000  0.0000  0.0000  0.0000 </r>
        <r>  0.0012  0.0017  0.0297  0.0018  0.0000  0.0000  0.0000  0.0000  0.0000 </r>
        <r>  0.0059  0.0021  0.0134  0.0061  0.0000  0.0000  0.0000  0.0000  0.0000 </r>
        <r>  0.0000  0.0049  0.0000  0.0148  0.0000  0.0000  0.0000  0.0000  0.0000 </r>
        <r>  0.0059  0.0081  0.0134  0.0000  0.0000  0.0000  0.0000  0.0000  0.0000 </r>
       </set>
      </set>
     </set>
    </set>
   </array>
  </projected>
 </calculation>
 <structure name="finalpos" >
  <crystal>
   <varray name="basis" >
    <v>       5.87538430       0.00000008      -0.00000000 </v>
    <v>       2.93769180       5.08823190      -0.00000000 </v>
    <v>      -0.00000000      -0.00000000      22.24297588 </v>
   </varray>
   <i name="volume">    664.96082716 </i>
   <varray name="rec_basis" >
    <v>       0.17020163      -0.09826595       0.00000000 </v>
    <v>      -0.00000000       0.19653192       0.00000000 </v>
    <v>       0.00000000       0.00000000       0.04495801 </v>
   </varray>
  </crystal>
  <varray name="positions" >
   <v>       0.33333300       0.33333300       0.49818947 </v>
   <v>       0.66666700       0.66666700       0.49807175 </v>
   <v>      -0.00000000      -0.00000000       0.44867276 </v>
   <v>       0.00000000       0.00000000       0.55178400 </v>
   <v>       0.61659350      -0.00008388       0.56448165 </v>
   <v>      -0.00008388       0.38349138       0.56448165 </v>
   <v>       0.38349138       0.61659350       0.56448165 </v>
   <v>       0.34507622       0.00007914       0.42816451 </v>
   <v>       0.00007914       0.65484364       0.42816451 </v>
   <v>       0.65484364       0.34507622       0.42816451 </v>
  </varray>
  <varray name="selective"  type="logical" >
   <v type="logical" >  T  T  T </v>
   <v type="logical" >  T  T  T </v>
   <v type="logical" >  T  T  T </v>
   <v type="logical" >  F  F  F </v>
   <v type="logical" >  T  T  T </v>
   <v type="logical" >  T  T  T </v>
   <v type="logical" >  T  T  T </v>
   <v type="logical" >  T  T  T </v>
   <v type="logical" >  T  T  T </v>
   <v type="logical" >  T  T  T </v>
  </varray>
  <nose>
   <v>      -3.00000000       0.00000000       0.00010000       0.00010000 </v>
  </nose>
 </structure>
</modeling>
