unknown system                          
           1
     6.907777   -0.000000    0.000000
     3.453888    5.982310    0.000000
     0.000000    0.000000   23.444588
   Ni   P    Ge   S 
   2   1   1   6
Direct configuration=     1
   0.33333300  0.33333300  0.49992500
   0.66666700  0.66666700  0.50007500
   0.00000000  0.00000000  0.44821600
   0.00000000  0.00000000  0.55178400
   0.62635700  0.00042000  0.57375200
   0.00042000  0.37322400  0.57375200
   0.37322400  0.62635700  0.57375200
   0.37364300  0.99958000  0.42624800
   0.99958000  0.62677600  0.42624800
   0.62677600  0.37364300  0.42624800
unknown system                          
           1
     5.945478    0.000000    0.000000
     2.972739    5.148935   -0.000000
    -0.000000    0.000000   21.650113
   Ni   P    Ge   S 
   2   1   1   6
Direct configuration=     2
   0.33333300  0.33333300  0.50001502
   0.66666700  0.66666700  0.50012365
  -0.00000000 -0.00000000  0.44658293
   0.00000000  0.00000000  0.55178400
   0.63322524  0.00038748  0.57042233
   0.00038748  0.36638828  0.57042233
   0.36638828  0.63322524  0.57042233
   0.36456081  0.99959171  0.42970521
   0.99959171  0.63584647  0.42970521
   0.63584647  0.36456081  0.42970521
unknown system                          
           1
     5.867749    0.000000    0.000000
     2.933874    5.081619   -0.000000
    -0.000000    0.000000   21.505165
   Ni   P    Ge   S 
   2   1   1   6
Direct configuration=     3
   0.33333300  0.33333300  0.50002290
   0.66666700  0.66666700  0.50012791
  -0.00000000 -0.00000000  0.44644009
   0.00000000  0.00000000  0.55178400
   0.63386981  0.00038443  0.57013109
   0.00038443  0.36574676  0.57013109
   0.36574676  0.63386981  0.57013109
   0.36370847  0.99959281  0.43000762
   0.99959281  0.63669772  0.43000762
   0.63669772  0.36370847  0.43000762
unknown system                          
           1
     5.881473    0.000000    0.000000
     2.940736    5.093504   -0.000000
    -0.000000    0.000000   21.530757
   Ni   P    Ge   S 
   2   1   1   6
Direct configuration=     4
   0.33333300  0.33333300  0.50002150
   0.66666700  0.66666700  0.50012715
  -0.00000000 -0.00000000  0.44646548
   0.00000000  0.00000000  0.55178400
   0.63375450  0.00038498  0.57018286
   0.00038498  0.36586152  0.57018286
   0.36586152  0.63375450  0.57018286
   0.36386095  0.99959262  0.42995386
   0.99959262  0.63654543  0.42995386
   0.63654543  0.36386095  0.42995386
unknown system                          
           1
     5.862462    0.000000   -0.000000
     2.931231    5.077041   -0.000000
    -0.000000   -0.000000   21.560050
   Ni   P    Ge   S 
   2   1   1   6
Direct configuration=     5
   0.33333300  0.33333300  0.50047979
   0.66666700  0.66666700  0.50059679
  -0.00000000 -0.00000000  0.44523212
   0.00000000  0.00000000  0.55178400
   0.62641683  0.00029371  0.57005656
   0.00029371  0.37329046  0.57005656
   0.37329046  0.62641683  0.57005656
   0.35721962  0.99968006  0.42998586
   0.99968006  0.64309932  0.42998586
   0.64309932  0.35721962  0.42998586
unknown system                          
           1
     5.847780    0.000000   -0.000000
     2.923889    5.064326   -0.000000
    -0.000000   -0.000000   21.582674
   Ni   P    Ge   S 
   2   1   1   6
Direct configuration=     6
   0.33333300  0.33333300  0.50083328
   0.66666700  0.66666700  0.50095903
  -0.00000000 -0.00000000  0.44428082
   0.00000000  0.00000000  0.55178400
   0.62073112  0.00022299  0.56995914
   0.00022299  0.37904689  0.56995914
   0.37904689  0.62073112  0.56995914
   0.35207349  0.99974782  0.43001053
   0.99974782  0.64817770  0.43001053
   0.64817770  0.35207349  0.43001053
unknown system                          
           1
     5.850232    0.000000   -0.000000
     2.925116    5.066450   -0.000000
    -0.000000   -0.000000   21.578895
   Ni   P    Ge   S 
   2   1   1   6
Direct configuration=     7
   0.33333300  0.33333300  0.50077429
   0.66666700  0.66666700  0.50089858
  -0.00000000 -0.00000000  0.44443956
   0.00000000  0.00000000  0.55178400
   0.62168330  0.00023483  0.56997540
   0.00023483  0.37808287  0.56997540
   0.37808287  0.62168330  0.56997540
   0.35293530  0.99973647  0.43000641
   0.99973647  0.64732723  0.43000641
   0.64732723  0.35293530  0.43000641
unknown system                          
           1
     5.889651    0.000000   -0.000000
     2.944825    5.100588   -0.000000
    -0.000000   -0.000000   21.629132
   Ni   P    Ge   S 
   2   1   1   6
Direct configuration=     8
   0.33333300  0.33333300  0.50129428
   0.66666700  0.66666700  0.50141487
  -0.00000000 -0.00000000  0.44593871
   0.00000000  0.00000000  0.55178400
   0.61851911  0.00015781  0.56973583
   0.00015781  0.38132409  0.56973583
   0.38132409  0.61851911  0.56973583
   0.35056410  0.99981836  0.42926649
   0.99981836  0.64961654  0.42926649
   0.64961654  0.35056410  0.42926649
unknown system                          
           1
     5.889150    0.000000   -0.000000
     2.944575    5.100154   -0.000000
    -0.000000   -0.000000   21.628494
   Ni   P    Ge   S 
   2   1   1   6
Direct configuration=     9
   0.33333300  0.33333300  0.50128769
   0.66666700  0.66666700  0.50140833
  -0.00000000 -0.00000000  0.44591970
   0.00000000  0.00000000  0.55178400
   0.61855906  0.00015878  0.56973887
   0.00015878  0.38128316  0.56973887
   0.38128316  0.61855906  0.56973887
   0.35059404  0.99981733  0.42927587
   0.99981733  0.64958764  0.42927587
   0.64958764  0.35059404  0.42927587
unknown system                          
           1
     5.868276    0.000000   -0.000000
     2.934137    5.082076   -0.000000
    -0.000000   -0.000000   21.648517
   Ni   P    Ge   S 
   2   1   1   6
Direct configuration=    10
   0.33333300  0.33333300  0.50170859
   0.66666700  0.66666700  0.50183773
  -0.00000000 -0.00000000  0.44732131
   0.00000000  0.00000000  0.55178400
   0.61792432  0.00009428  0.56920753
   0.00009428  0.38198239  0.56920753
   0.38198239  0.61792432  0.56920753
   0.34767473  0.99988909  0.42859249
   0.99988909  0.65243517  0.42859249
   0.65243517  0.34767473  0.42859249
unknown system                          
           1
     5.869592    0.000000   -0.000000
     2.934796    5.083216   -0.000000
    -0.000000   -0.000000   21.647254
   Ni   P    Ge   S 
   2   1   1   6
Direct configuration=    11
   0.33333300  0.33333300  0.50168207
   0.66666700  0.66666700  0.50181067
  -0.00000000 -0.00000000  0.44723299
   0.00000000  0.00000000  0.55178400
   0.61796450  0.00009837  0.56924101
   0.00009837  0.38193813  0.56924101
   0.38193813  0.61796450  0.56924101
   0.34785952  0.99988455  0.42863555
   0.99988455  0.65225493  0.42863555
   0.65225493  0.34785952  0.42863555
unknown system                          
           1
     5.866253    0.000000   -0.000000
     2.933126    5.080324   -0.000000
    -0.000000   -0.000000   21.797273
   Ni   P    Ge   S 
   2   1   1   6
Direct configuration=    12
   0.33333300  0.33333300  0.50165568
   0.66666700  0.66666700  0.50176471
  -0.00000000 -0.00000000  0.44727807
   0.00000000  0.00000000  0.55178400
   0.61855450  0.00006358  0.56888221
   0.00006358  0.38138291  0.56888221
   0.38138291  0.61855450  0.56888221
   0.34631007  0.99991857  0.42822280
   0.99991857  0.65377036  0.42822280
   0.65377036  0.34631007  0.42822280
unknown system                          
           1
     5.864217    0.000000   -0.000000
     2.932108    5.078561   -0.000000
    -0.000000   -0.000000   21.888747
   Ni   P    Ge   S 
   2   1   1   6
Direct configuration=    13
   0.33333300  0.33333300  0.50163971
   0.66666700  0.66666700  0.50173687
  -0.00000000 -0.00000000  0.44730537
   0.00000000  0.00000000  0.55178400
   0.61891446  0.00004236  0.56866494
   0.00004236  0.38104417  0.56866494
   0.38104417  0.61891446  0.56866494
   0.34536475  0.99993933  0.42797285
   0.99993933  0.65469492  0.42797285
   0.65469492  0.34536475  0.42797285
unknown system                          
           1
     5.871275    0.000000   -0.000000
     2.935637    5.084673   -0.000000
    -0.000000   -0.000000   21.975356
   Ni   P    Ge   S 
   2   1   1   6
Direct configuration=    14
   0.33333300  0.33333300  0.50129143
   0.66666700  0.66666700  0.50135513
  -0.00000000 -0.00000000  0.44761243
   0.00000000  0.00000000  0.55178400
   0.61910356  0.00002183  0.56814228
   0.00002183  0.38087561  0.56814228
   0.38087561  0.61910356  0.56814228
   0.34559751  0.99996403  0.42781853
   0.99996403  0.65443747  0.42781853
   0.65443747  0.34559751  0.42781853
unknown system                          
           1
     5.887407    0.000000   -0.000000
     2.943703    5.098644   -0.000000
    -0.000000   -0.000000   22.173307
   Ni   P    Ge   S 
   2   1   1   6
Direct configuration=    15
   0.33333300  0.33333300  0.50049857
   0.66666700  0.66666700  0.50048607
  -0.00000000 -0.00000000  0.44831147
   0.00000000  0.00000000  0.55178400
   0.61953523 -0.00002506  0.56695243
  -0.00002506  0.38049082  0.56695243
   0.38049082  0.61953523  0.56695243
   0.34612884  0.00002041  0.42746723
   0.00002041  0.65384975  0.42746723
   0.65384975  0.34612884  0.42746723
unknown system                          
           1
     5.887073    0.000000   -0.000000
     2.943536    5.098354   -0.000000
    -0.000000   -0.000000   22.196355
   Ni   P    Ge   S 
   2   1   1   6
Direct configuration=    16
   0.33333300  0.33333300  0.50034530
   0.66666700  0.66666700  0.50032207
  -0.00000000 -0.00000000  0.44837479
   0.00000000  0.00000000  0.55178400
   0.61954893 -0.00003171  0.56674825
  -0.00003171  0.38048378  0.56674825
   0.38048378  0.61954893  0.56674825
   0.34609050  0.00002807  0.42746973
   0.00002807  0.65388043  0.42746973
   0.65388043  0.34609050  0.42746973
unknown system                          
           1
     5.886070    0.000000   -0.000000
     2.943034    5.097486   -0.000000
    -0.000000   -0.000000   22.265498
   Ni   P    Ge   S 
   2   1   1   6
Direct configuration=    17
   0.33333300  0.33333300  0.49988597
   0.66666700  0.66666700  0.49983059
  -0.00000000 -0.00000000  0.44856457
   0.00000000  0.00000000  0.55178400
   0.61959003 -0.00005168  0.56613635
  -0.00005168  0.38046265  0.56613635
   0.38046265  0.61959003  0.56613635
   0.34597546  0.00005106  0.42747722
   0.00005106  0.65397248  0.42747722
   0.65397248  0.34597546  0.42747722
unknown system                          
           1
     5.884063    0.000000   -0.000000
     2.942031    5.095748   -0.000000
    -0.000000   -0.000000   22.403784
   Ni   P    Ge   S 
   2   1   1   6
Direct configuration=    18
   0.33333300  0.33333300  0.49897016
   0.66666700  0.66666700  0.49885069
  -0.00000000 -0.00000000  0.44894293
   0.00000000  0.00000000  0.55178400
   0.61967224 -0.00009162  0.56491634
  -0.00009162  0.38042038  0.56491634
   0.38042038  0.61967224  0.56491634
   0.34574536  0.00009705  0.42749215
   0.00009705  0.65415659  0.42749215
   0.65415659  0.34574536  0.42749215
unknown system                          
           1
     5.876366    0.000000   -0.000000
     2.938183    5.089082   -0.000000
    -0.000000   -0.000000   22.375099
   Ni   P    Ge   S 
   2   1   1   6
Direct configuration=    19
   0.33333300  0.33333300  0.49885461
   0.66666700  0.66666700  0.49873577
  -0.00000000 -0.00000000  0.44887351
   0.00000000  0.00000000  0.55178400
   0.61931887 -0.00009041  0.56480081
  -0.00009041  0.38077254  0.56480081
   0.38077254  0.61931887  0.56480081
   0.34543219  0.00009754  0.42762655
   0.00009754  0.65446926  0.42762655
   0.65446926  0.34543219  0.42762655
unknown system                          
           1
     5.873015    0.000000   -0.000000
     2.936507    5.086180   -0.000000
    -0.000000   -0.000000   22.362610
   Ni   P    Ge   S 
   2   1   1   6
Direct configuration=    20
   0.33333300  0.33333300  0.49880424
   0.66666700  0.66666700  0.49868567
  -0.00000000 -0.00000000  0.44884324
   0.00000000  0.00000000  0.55178400
   0.61916481 -0.00008988  0.56475044
  -0.00008988  0.38092607  0.56475044
   0.38092607  0.61916481  0.56475044
   0.34529567  0.00009776  0.42768514
   0.00009776  0.65460557  0.42768514
   0.65460557  0.34529567  0.42768514
unknown system                          
           1
     5.866312    0.000000   -0.000000
     2.933156    5.080375   -0.000000
    -0.000000   -0.000000   22.337631
   Ni   P    Ge   S 
   2   1   1   6
Direct configuration=    21
   0.33333300  0.33333300  0.49870344
   0.66666700  0.66666700  0.49858541
  -0.00000000 -0.00000000  0.44878268
   0.00000000  0.00000000  0.55178400
   0.61885652 -0.00008882  0.56464965
  -0.00008882  0.38123331  0.56464965
   0.38123331  0.61885652  0.56464965
   0.34502246  0.00009819  0.42780239
   0.00009819  0.65487835  0.42780239
   0.65487835  0.34502246  0.42780239
unknown system                          
           1
     5.869722    0.000000   -0.000000
     2.934860    5.083328   -0.000000
    -0.000000   -0.000000   22.317967
   Ni   P    Ge   S 
   2   1   1   6
Direct configuration=    22
   0.33333300  0.33333300  0.49860651
   0.66666700  0.66666700  0.49848483
  -0.00000000 -0.00000000  0.44877419
   0.00000000  0.00000000  0.55178400
   0.61834749 -0.00008760  0.56462109
  -0.00008760  0.38174111  0.56462109
   0.38174111  0.61834749  0.56462109
   0.34504956  0.00009380  0.42788013
   0.00009380  0.65485564  0.42788013
   0.65485564  0.34504956  0.42788013
unknown system                          
           1
     5.879949    0.000000   -0.000000
     2.939974    5.092185   -0.000000
    -0.000000   -0.000000   22.258974
   Ni   P    Ge   S 
   2   1   1   6
Direct configuration=    23
   0.33333300  0.33333300  0.49831548
   0.66666700  0.66666700  0.49818282
  -0.00000000 -0.00000000  0.44874871
   0.00000000  0.00000000  0.55178400
   0.61682129 -0.00008395  0.56453533
  -0.00008395  0.38326365  0.56453533
   0.38326365  0.61682129  0.56453533
   0.34513081  0.00008064  0.42811357
   0.00008064  0.65478755  0.42811357
   0.65478755  0.34513081  0.42811357
unknown system                          
           1
     5.875786    0.000000   -0.000000
     2.937893    5.088580   -0.000000
    -0.000000   -0.000000   22.244384
   Ni   P    Ge   S 
   2   1   1   6
Direct configuration=    24
   0.33333300  0.33333300  0.49820057
   0.66666700  0.66666700  0.49808154
  -0.00000000 -0.00000000  0.44867945
   0.00000000  0.00000000  0.55178400
   0.61661357 -0.00008388  0.56448638
  -0.00008388  0.38347132  0.56448638
   0.38347132  0.61661357  0.56448638
   0.34508103  0.00007927  0.42816003
   0.00007927  0.65483870  0.42816003
   0.65483870  0.34508103  0.42816003
unknown system                          
           1
     5.875384    0.000000   -0.000000
     2.937692    5.088232   -0.000000
    -0.000000   -0.000000   22.242976
   Ni   P    Ge   S 
   2   1   1   6
Direct configuration=    25
   0.33333300  0.33333300  0.49818947
   0.66666700  0.66666700  0.49807175
  -0.00000000 -0.00000000  0.44867276
   0.00000000  0.00000000  0.55178400
   0.61659350 -0.00008388  0.56448165
  -0.00008388  0.38349138  0.56448165
   0.38349138  0.61659350  0.56448165
   0.34507622  0.00007914  0.42816451
   0.00007914  0.65484364  0.42816451
   0.65484364  0.34507622  0.42816451
