       N       E                     dE             d eps       ncg     rms          rms(c)
DAV:   1     0.380332698213E+03    0.38033E+03   -0.16583E+04   960   0.817E+02
DAV:   2     0.177066069013E+01   -0.37856E+03   -0.36102E+03  1536   0.153E+02
DAV:   3    -0.471342892292E+02   -0.48905E+02   -0.47930E+02  1368   0.663E+01
DAV:   4    -0.489724617147E+02   -0.18382E+01   -0.18322E+01  1272   0.170E+01
DAV:   5    -0.490325651383E+02   -0.60103E-01   -0.60096E-01  1320   0.271E+00    0.251E+01
DAV:   6    -0.960553504964E+02   -0.47023E+02   -0.31933E+02  1368   0.723E+01    0.587E+01
DAV:   7    -0.412471847940E+02    0.54808E+02   -0.83292E+01  1176   0.885E+01    0.168E+01
DAV:   8    -0.430108093690E+02   -0.17636E+01   -0.10379E+01  1224   0.155E+01    0.886E+00
DAV:   9    -0.451950757472E+02   -0.21843E+01   -0.95738E+00  1560   0.127E+01    0.425E+00
DAV:  10    -0.444244751249E+02    0.77060E+00   -0.37556E+01  1296   0.271E+01    0.298E+00
DAV:  11    -0.448310645324E+02   -0.40659E+00   -0.78021E-01  1272   0.436E+00    0.315E+00
DAV:  12    -0.449915873523E+02   -0.16052E+00   -0.11865E-01  1392   0.214E+00    0.258E+00
DAV:  13    -0.452942919829E+02   -0.30270E+00   -0.21111E-01  1368   0.339E+00    0.930E-01
DAV:  14    -0.453429551778E+02   -0.48663E-01   -0.84463E-02  1056   0.166E+00    0.418E-01
DAV:  15    -0.453618170519E+02   -0.18862E-01   -0.17790E-02  1128   0.747E-01    0.225E-01
DAV:  16    -0.453646741150E+02   -0.28571E-02   -0.38371E-03  1128   0.377E-01    0.112E-01
DAV:  17    -0.453684511719E+02   -0.37771E-02   -0.19383E-03  1176   0.276E-01    0.469E-02
DAV:  18    -0.453699546794E+02   -0.15035E-02   -0.96943E-04  1008   0.185E-01    0.386E-02
DAV:  19    -0.453707088339E+02   -0.75415E-03   -0.23822E-04  1008   0.853E-02    0.185E-02
DAV:  20    -0.453712465960E+02   -0.53776E-03   -0.13283E-04   864   0.495E-02    0.605E-03
DAV:  21    -0.453716047373E+02   -0.35814E-03   -0.14670E-04   888   0.416E-02    0.947E-03
DAV:  22    -0.453718604219E+02   -0.25568E-03   -0.10584E-04   984   0.279E-02    0.663E-03
DAV:  23    -0.453718393792E+02    0.21043E-04   -0.11819E-04  1008   0.274E-02
   1 F= -.45371839E+02 E0= -.45371839E+02  d E =-.453718E+02  mag=     5.9974
       N       E                     dE             d eps       ncg     rms          rms(c)
DAV:   1    -0.563592091684E+02   -0.10987E+02   -0.27964E+02  1344   0.932E+01    0.179E+01
DAV:   2    -0.499006887805E+02    0.64585E+01   -0.24786E+01  1488   0.361E+01    0.112E+01
DAV:   3    -0.488543819306E+02    0.10463E+01   -0.14519E+01  1392   0.436E+01    0.833E+00
DAV:   4    -0.472304160775E+02    0.16240E+01   -0.70815E+00  1464   0.186E+01    0.168E+00
DAV:   5    -0.471886389521E+02    0.41777E-01   -0.28077E-01  1392   0.337E+00    0.710E-01
DAV:   6    -0.471883347583E+02    0.30419E-03   -0.23399E-02  1224   0.649E-01    0.371E-01
DAV:   7    -0.471894066088E+02   -0.10719E-02   -0.48277E-03  1152   0.394E-01    0.143E-01
DAV:   8    -0.471918800874E+02   -0.24735E-02   -0.21959E-03  1080   0.241E-01    0.688E-02
DAV:   9    -0.471928073991E+02   -0.92731E-03   -0.67294E-04  1224   0.130E-01    0.457E-02
DAV:  10    -0.471938974310E+02   -0.10900E-02   -0.11207E-03  1008   0.137E-01    0.348E-02
DAV:  11    -0.471943736842E+02   -0.47625E-03   -0.15144E-03  1224   0.115E-01    0.331E-02
DAV:  12    -0.471936881351E+02    0.68555E-03   -0.20987E-03  1080   0.102E-01    0.269E-02
DAV:  13    -0.471930987262E+02    0.58941E-03   -0.21705E-04  1152   0.495E-02    0.211E-02
DAV:  14    -0.471926775451E+02    0.42118E-03   -0.42204E-05   888   0.376E-02    0.195E-02
DAV:  15    -0.471921196180E+02    0.55793E-03   -0.60147E-05   864   0.501E-02    0.174E-02
DAV:  16    -0.471918431440E+02    0.27647E-03   -0.42739E-05   936   0.285E-02    0.146E-02
DAV:  17    -0.471914539992E+02    0.38914E-03   -0.28596E-04  1152   0.508E-02    0.818E-03
DAV:  18    -0.471914739194E+02   -0.19920E-04   -0.89466E-05   984   0.381E-02
   2 F= -.47191474E+02 E0= -.47191474E+02  d E =-.181963E+01  mag=     6.0000
       N       E                     dE             d eps       ncg     rms          rms(c)
DAV:   1    -0.476771348148E+02   -0.48568E+00   -0.10077E+01  1224   0.178E+01    0.332E+00
DAV:   2    -0.474610038965E+02    0.21613E+00   -0.80263E-01  1200   0.920E+00    0.224E+00
DAV:   3    -0.473909055600E+02    0.70098E-01   -0.36475E-01  1224   0.622E+00    0.140E+00
DAV:   4    -0.473463353801E+02    0.44570E-01   -0.18429E-01  1296   0.380E+00    0.340E-01
DAV:   5    -0.473435583638E+02    0.27770E-02   -0.11859E-02  1296   0.104E+00    0.120E-01
DAV:   6    -0.473431300837E+02    0.42828E-03   -0.11388E-03   984   0.117E-01    0.605E-02
DAV:   7    -0.473430921450E+02    0.37939E-04   -0.21814E-04   864   0.777E-02
   3 F= -.47343092E+02 E0= -.47343092E+02  d E =-.197125E+01  mag=     6.0000
       N       E                     dE             d eps       ncg     rms          rms(c)
DAV:   1    -0.473567007600E+02   -0.13571E-01   -0.57327E-01  1032   0.242E+00    0.301E-01
DAV:   2    -0.473572212398E+02   -0.52048E-03   -0.36043E-02  1200   0.122E+00    0.280E-01
DAV:   3    -0.473558592360E+02    0.13620E-02   -0.49614E-03  1152   0.784E-01    0.142E-01
DAV:   4    -0.473548970922E+02    0.96214E-03   -0.13413E-03  1344   0.195E-01    0.505E-02
DAV:   5    -0.473546591366E+02    0.23796E-03   -0.47935E-04  1056   0.722E-02    0.233E-02
DAV:   6    -0.473546079364E+02    0.51200E-04   -0.33869E-05   912   0.374E-02
   4 F= -.47354608E+02 E0= -.47354608E+02  d E =-.115158E-01  mag=     6.0000
       N       E                     dE             d eps       ncg     rms          rms(c)
DAV:   1    -0.473720260320E+02   -0.17367E-01   -0.29102E+00  1008   0.542E+00    0.664E-01
DAV:   2    -0.473756782767E+02   -0.36522E-02   -0.18112E-01  1032   0.269E+00    0.596E-01
DAV:   3    -0.473696245272E+02    0.60537E-02   -0.24098E-02  1176   0.169E+00    0.319E-01
DAV:   4    -0.473655107476E+02    0.41138E-02   -0.64720E-03  1296   0.463E-01    0.111E-01
DAV:   5    -0.473644948317E+02    0.10159E-02   -0.22936E-03  1104   0.153E-01    0.484E-02
DAV:   6    -0.473642670480E+02    0.22778E-03   -0.16660E-04  1032   0.753E-02    0.349E-02
DAV:   7    -0.473640402266E+02    0.22682E-03   -0.21338E-04   960   0.707E-02    0.208E-02
DAV:   8    -0.473640590995E+02   -0.18873E-04   -0.85757E-05   888   0.406E-02
   5 F= -.47364059E+02 E0= -.47364059E+02  d E =-.209670E-01  mag=     6.0000
       N       E                     dE             d eps       ncg     rms          rms(c)
DAV:   1    -0.473664331117E+02   -0.23929E-02   -0.13791E-01  1128   0.157E+00    0.259E-01
DAV:   2    -0.473654211138E+02    0.10120E-02   -0.11154E-02  1128   0.910E-01    0.218E-01
DAV:   3    -0.473645514904E+02    0.86962E-03   -0.30494E-03  1296   0.623E-01    0.100E-01
DAV:   4    -0.473640963958E+02    0.45509E-03   -0.11969E-03  1296   0.240E-01    0.218E-02
DAV:   5    -0.473639601880E+02    0.13621E-03   -0.62812E-05   816   0.652E-02    0.164E-02
DAV:   6    -0.473637983612E+02    0.16183E-03   -0.28637E-05   768   0.271E-02    0.109E-02
DAV:   7    -0.473635093869E+02    0.28897E-03   -0.10903E-04  1032   0.322E-02    0.118E-02
DAV:   8    -0.473634486143E+02    0.60773E-04   -0.24665E-04  1008   0.529E-02
   6 F= -.47363449E+02 E0= -.47363449E+02  d E =0.610485E-03  mag=     6.0000
       N       E                     dE             d eps       ncg     rms          rms(c)
DAV:   1    -0.473661363886E+02   -0.26270E-02   -0.21686E-01  1200   0.196E+00    0.321E-01
DAV:   2    -0.473654756602E+02    0.66073E-03   -0.17717E-02  1104   0.115E+00    0.273E-01
DAV:   3    -0.473643002881E+02    0.11754E-02   -0.47485E-03  1224   0.780E-01    0.123E-01
DAV:   4    -0.473639930211E+02    0.30727E-03   -0.18343E-03  1344   0.289E-01    0.234E-02
DAV:   5    -0.473639668653E+02    0.26156E-04   -0.76719E-05   864   0.673E-02
   7 F= -.47363967E+02 E0= -.47363967E+02  d E =0.922341E-04  mag=     6.0000
