 vasp.5.4.4.18Apr17-6-g9f103f2a35 (build May  1 2020 15:48:39) complex           
 executed on             LinuxGNU date 2020.06.15  20:16:24
 running on   24 total cores
 distrk:  each k-point on   24 cores,    1 groups
 distr:  one band on NCORES_PER_BAND=   1 cores,   24 groups


--------------------------------------------------------------------------------------------------------


 INCAR:
 POTCAR:   PAW_PBE Cr 06Sep2000                   
 POTCAR:   PAW_PBE Ge 05Jan2001                   
 POTCAR:   PAW_PBE Se 06Sep2000                   

 ----------------------------------------------------------------------------- 
|                                                                             |
|           W    W    AA    RRRRR   N    N  II  N    N   GGGG   !!!           |
|           W    W   A  A   R    R  NN   N  II  NN   N  G    G  !!!           |
|           W    W  A    A  R    R  N N  N  II  N N  N  G       !!!           |
|           W WW W  AAAAAA  RRRRR   N  N N  II  N  N N  G  GGG   !            |
|           WW  WW  A    A  R   R   N   NN  II  N   NN  G    G                |
|           W    W  A    A  R    R  N    N  II  N    N   GGGG   !!!           |
|                                                                             |
|      For optimal performance we recommend to set                            |
|        NCORE= 4 - approx SQRT( number of cores)                             |
|      NCORE specifies how many cores store one orbital (NPAR=cpu/NCORE).     |
|      This setting can  greatly improve the performance of VASP for DFT.     |
|      The default,   NCORE=1            might be grossly inefficient         |
|      on modern multi-core architectures or massively parallel machines.     |
|      Do your own testing !!!!                                               |
|      Unfortunately you need to use the default for GW and RPA calculations. |
|      (for HF NCORE is supported but not extensively tested yet)             |
|                                                                             |
 ----------------------------------------------------------------------------- 


 ----------------------------------------------------------------------------- 
|                                                                             |
|  ADVICE TO THIS USER RUNNING 'VASP/VAMP'   (HEAR YOUR MASTER'S VOICE ...):  |
|                                                                             |
|      You have switched on vdW-DFT.                                          |
|      This routine was written and supplied by Jiri Klimes.                  |
|      We recommed that you carefully read and cite the following             |
|      publication                                                            |
|      J. Klimes, D.R. Bowler, A. Michelides                                  |
|        J. Phys.: Cond Matt. 22 022201 (2010)                                |
|      J. Klimes, D.R. Bowler, A. Michelides                                  |
|        Phys. Rev. B. 83, 195131 (2011)                                      |
|      and references therein.                                                |
|                                                                             |
 ----------------------------------------------------------------------------- 

 POTCAR:   PAW_PBE Cr 06Sep2000                   
   VRHFIN =Cr : d5 s1                                                           
   LEXCH  = PE                                                                  
   EATOM  =   276.9744 eV,   20.3570 Ry                                         
                                                                                
   TITEL  = PAW_PBE Cr 06Sep2000                                                
   LULTRA =        F    use ultrasoft PP ?                                      
   IUNSCR =        1    unscreen: 0-lin 1-nonlin 2-no                           
   RPACOR =    2.080    partial core radius                                     
   POMASS =   51.996; ZVAL   =    6.000    mass and valenz                      
   RCORE  =    2.500    outmost cutoff radius                                   
   RWIGS  =    2.500; RWIGS  =    1.323    wigner-seitz radius (au A)           
   ENMAX  =  227.082; ENMIN  =  170.311 eV                                      
   RCLOC  =    1.721    cutoff for local pot                                    
   LCOR   =        T    correct aug charges                                     
   LPAW   =        T    paw PP                                                  
   EAUG   =  402.108                                                            
   DEXC   =    -.035                                                            
   RMAX   =    3.060    core radius for proj-oper                               
   RAUG   =    1.300    factor for augmentation sphere                          
   RDEP   =    2.609    radius for radial grids                                 
   QCUT   =   -4.085; QGAM   =    8.171    optimization parameters              
                                                                                
   Description                                                                  
     l     E      TYP  RCUT    TYP  RCUT                                        
     2   .000     23  2.500                                                     
     2   .000     23  2.500                                                     
     0   .000     23  2.500                                                     
     0   .000     23  2.500                                                     
     1  -.400     23  2.500                                                     
     1  2.000     23  2.500                                                     
     3   .000      7   .000                                                     
  local pseudopotential read in
  partial core-charges read in
  atomic valenz-charges read in
  non local Contribution for L=           2  read in
    real space projection operators read in
  non local Contribution for L=           2  read in
    real space projection operators read in
  non local Contribution for L=           0  read in
    real space projection operators read in
  non local Contribution for L=           0  read in
    real space projection operators read in
  non local Contribution for L=           1  read in
    real space projection operators read in
  non local Contribution for L=           1  read in
    real space projection operators read in
    PAW grid and wavefunctions read in

   number of l-projection  operators is LMAX  =           6
   number of lm-projection operators is LMMAX =          18

 POTCAR:   PAW_PBE Ge 05Jan2001                   
   VRHFIN =Ge: s2p2                                                             
   LEXCH  = PE                                                                  
   EATOM  =   104.9960 eV,    7.7170 Ry                                         
                                                                                
   TITEL  = PAW_PBE Ge 05Jan2001                                                
   LULTRA =        F    use ultrasoft PP ?                                      
   IUNSCR =        1    unscreen: 0-lin 1-nonlin 2-no                           
   RPACOR =    2.170    partial core radius                                     
   POMASS =   72.610; ZVAL   =    4.000    mass and valenz                      
   RCORE  =    2.300    outmost cutoff radius                                   
   RWIGS  =    2.300; RWIGS  =    1.217    wigner-seitz radius (au A)           
   ENMAX  =  173.807; ENMIN  =  130.355 eV                                      
   ICORE  =        3    local potential                                         
   LCOR   =        T    correct aug charges                                     
   LPAW   =        T    paw PP                                                  
   EAUG   =  385.843                                                            
   DEXC   =    -.138                                                            
   RMAX   =    3.497    core radius for proj-oper                               
   RAUG   =    1.300    factor for augmentation sphere                          
   RDEP   =    2.318    radius for radial grids                                 
   QCUT   =   -3.574; QGAM   =    7.148    optimization parameters              
                                                                                
   Description                                                                  
     l     E      TYP  RCUT    TYP  RCUT                                        
     0   .000     23  2.300                                                     
     0   .000     23  2.300                                                     
     1   .000     23  2.300                                                     
     1   .000     23  2.300                                                     
     2   .000     23  2.300                                                     
     3  -.100      7  2.300                                                     
  local pseudopotential read in
  partial core-charges read in
  atomic valenz-charges read in
  non local Contribution for L=           0  read in
    real space projection operators read in
  non local Contribution for L=           0  read in
    real space projection operators read in
  non local Contribution for L=           1  read in
    real space projection operators read in
  non local Contribution for L=           1  read in
    real space projection operators read in
  non local Contribution for L=           2  read in
    real space projection operators read in
    PAW grid and wavefunctions read in

   number of l-projection  operators is LMAX  =           5
   number of lm-projection operators is LMMAX =          13

 POTCAR:   PAW_PBE Se 06Sep2000                   
   VRHFIN =Se: s2p4                                                             
   LEXCH  = PE                                                                  
   EATOM  =   256.9644 eV,   18.8864 Ry                                         
                                                                                
   TITEL  = PAW_PBE Se 06Sep2000                                                
   LULTRA =        F    use ultrasoft PP ?                                      
   IUNSCR =        1    unscreen: 0-lin 1-nonlin 2-no                           
   RPACOR =    1.900    partial core radius                                     
   POMASS =   78.960; ZVAL   =    6.000    mass and valenz                      
   RCORE  =    2.100    outmost cutoff radius                                   
   RWIGS  =    2.200; RWIGS  =    1.164    wigner-seitz radius (au A)           
   ENMAX  =  211.534; ENMIN  =  158.651 eV                                      
   ICORE  =        3    local potential                                         
   LCOR   =        T    correct aug charges                                     
   LPAW   =        T    paw PP                                                  
   EAUG   =  446.842                                                            
   DEXC   =    -.031                                                            
   RMAX   =    3.170    core radius for proj-oper                               
   RAUG   =    1.300    factor for augmentation sphere                          
   RDEP   =    2.177    radius for radial grids                                 
   QCUT   =   -3.943; QGAM   =    7.886    optimization parameters              
                                                                                
   Description                                                                  
     l     E      TYP  RCUT    TYP  RCUT                                        
     0   .000     23  2.100                                                     
     0   .000     23  2.100                                                     
     1   .000     23  2.100                                                     
     1   .000     23  2.100                                                     
     2   .000     23  2.100                                                     
     3  -.100      7  2.100                                                     
  local pseudopotential read in
  partial core-charges read in
  atomic valenz-charges read in
  non local Contribution for L=           0  read in
    real space projection operators read in
  non local Contribution for L=           0  read in
    real space projection operators read in
  non local Contribution for L=           1  read in
    real space projection operators read in
  non local Contribution for L=           1  read in
    real space projection operators read in
  non local Contribution for L=           2  read in
    real space projection operators read in
    PAW grid and wavefunctions read in

   number of l-projection  operators is LMAX  =           5
   number of lm-projection operators is LMMAX =          13

 Optimization of the real space projectors (new method)

 maximal supplied QI-value         = 15.12
 optimisation between [QCUT,QGAM] = [ 11.64, 23.28] = [ 37.95,151.78] Ry 
 Optimized for a Real-space Cutoff    1.49 Angstroem

   l    n(q)    QCUT    max X(q) W(low)/X(q) W(high)/X(q)  e(spline) 
   2      9    11.641     4.777    0.25E-04    0.21E-05    0.63E-07
   2      9    11.641    31.132    0.13E-03    0.22E-03    0.64E-06
   0     10    11.641    20.416    0.11E-04    0.74E-05    0.19E-07
   0     10    11.641    45.408    0.10E-03    0.85E-04    0.30E-06
   1     10    11.641     7.848    0.22E-04    0.23E-04    0.56E-07
   1     10    11.641     9.895    0.85E-04    0.54E-04    0.16E-06
 Optimization of the real space projectors (new method)

 maximal supplied QI-value         = 16.25
 optimisation between [QCUT,QGAM] = [ 11.54, 23.24] = [ 37.28,151.24] Ry 
 Optimized for a Real-space Cutoff    1.28 Angstroem

   l    n(q)    QCUT    max X(q) W(low)/X(q) W(high)/X(q)  e(spline) 
   0      9    11.539     8.651    0.22E-04    0.16E-04    0.10E-07
   0      9    11.539    33.192    0.11E-03    0.16E-03    0.65E-07
   1      8    11.539     5.899    0.37E-04    0.28E-04    0.43E-07
   1      8    11.539    27.289    0.22E-03    0.28E-04    0.14E-06
   2      8    11.539     4.673    0.11E-03    0.18E-03    0.58E-07
 Optimization of the real space projectors (new method)

 maximal supplied QI-value         = 17.95
 optimisation between [QCUT,QGAM] = [ 11.67, 23.34] = [ 38.13,152.52] Ry 
 Optimized for a Real-space Cutoff    1.25 Angstroem

   l    n(q)    QCUT    max X(q) W(low)/X(q) W(high)/X(q)  e(spline) 
   0      9    11.669     6.499    0.13E-04    0.81E-05    0.11E-07
   0      9    11.669    52.623    0.18E-03    0.46E-04    0.72E-07
   1      8    11.669     4.229    0.40E-04    0.45E-04    0.31E-07
   1      8    11.669    29.991    0.22E-03    0.36E-03    0.10E-06
   2      8    11.669     3.719    0.19E-03    0.46E-04    0.50E-07

 ----------------------------------------------------------------------------- 
|                                                                             |
|  ADVICE TO THIS USER RUNNING 'VASP/VAMP'   (HEAR YOUR MASTER'S VOICE ...):  |
|                                                                             |
|      You enforced a specific xc-type in the INCAR file,                     |
|      a different type was found on the POTCAR file                          |
|          I HOPE YOU KNOW, WHAT YOU ARE  DOING                               |
|                                                                             |
 ----------------------------------------------------------------------------- 

 PAW_PBE Cr 06Sep2000                   :
 energy of atom  1       EATOM= -276.9744
 kinetic energy error for atom=    0.0010 (will be added to EATOM!!)
 PAW_PBE Ge 05Jan2001                   :
 energy of atom  2       EATOM= -104.9960
 kinetic energy error for atom=    0.0002 (will be added to EATOM!!)
 PAW_PBE Se 06Sep2000                   :
 energy of atom  3       EATOM= -256.9644
 kinetic energy error for atom=    0.0007 (will be added to EATOM!!)


 POSCAR: Cr2 Ge2 Se6                             
  positions in direct lattice
  velocities in cartesian coordinates
  No initial velocities read in
 exchange correlation table for  LEXCH =       42
   RHO(1)=    0.500       N(1)  =     2000
   RHO(2)=  100.500       N(2)  =     4000



--------------------------------------------------------------------------------------------------------


 ion  position               nearest neighbor table
   1  0.333  0.333  0.500-   6 2.78   5 2.78   7 2.78   8 2.78  10 2.78   9 2.78
   2  0.667  0.667  0.500-   9 2.78   8 2.78  10 2.78   5 2.78   7 2.78   6 2.78
   3  0.000  0.000  0.448-   4 2.43   8 2.63  10 2.63   9 2.63
   4  0.000  0.000  0.552-   3 2.43   5 2.63   7 2.63   6 2.63
   5  0.626  0.000  0.574-   4 2.63   1 2.78   2 2.78
   6  0.000  0.373  0.574-   4 2.63   1 2.78   2 2.78
   7  0.373  0.626  0.574-   4 2.63   1 2.78   2 2.78
   8  0.374  1.000  0.426-   3 2.63   2 2.78   1 2.78
   9  1.000  0.627  0.426-   3 2.63   2 2.78   1 2.78
  10  0.627  0.374  0.426-   3 2.63   2 2.78   1 2.78

  LATTYP: Found a hexagonal cell.
 ALAT       =     6.9077769333
 C/A-ratio  =     3.3939410937
  
  Lattice vectors:
  
 A1 = (   3.4538890000,  -5.9823100000,   0.0000000000)
 A2 = (  -6.9077770000,   0.0000000000,   0.0000000000)
 A3 = (   0.0000000000,   0.0000000000, -23.4445880000)


Analysis of symmetry for initial positions (statically):
=====================================================================
 Subroutine PRICEL returns:
 Original cell was already a primitive cell.
 

 Routine SETGRP: Setting up the symmetry group for a 
 hexagonal supercell.


 Subroutine GETGRP returns: Found  6 space group operations
 (whereof  6 operations were pure point group operations)
 out of a pool of 24 trial point group operations.


The static configuration has the point symmetry S_6 .


Analysis of symmetry for dynamics (positions and initial velocities):
=====================================================================
 Subroutine PRICEL returns:
 Original cell was already a primitive cell.
 

 Routine SETGRP: Setting up the symmetry group for a 
 hexagonal supercell.


 Subroutine GETGRP returns: Found  6 space group operations
 (whereof  6 operations were pure point group operations)
 out of a pool of 24 trial point group operations.


The dynamic configuration has the point symmetry S_6 .


Analysis of constrained symmetry for selective dynamics:
=====================================================================
 Subroutine PRICEL returns:
 Original cell was already a primitive cell.
 

 Routine SETGRP: Setting up the symmetry group for a 
 hexagonal supercell.


 Subroutine GETGRP returns: Found  6 space group operations
 (whereof  6 operations were pure point group operations)
 out of a pool of 24 trial point group operations.


The constrained configuration has the point symmetry S_6 .


Analysis of structural, dynamic, and magnetic symmetry:
=====================================================================
 Subroutine PRICEL returns:
 Original cell was already a primitive cell.
 

 Routine SETGRP: Setting up the symmetry group for a 
 hexagonal supercell.


 Subroutine GETGRP returns: Found  6 space group operations
 (whereof  6 operations were pure point group operations)
 out of a pool of 24 trial point group operations.


The magnetic configuration has the point symmetry S_6 .


 Subroutine INISYM returns: Found  6 space group operations
 (whereof  6 operations are pure point group operations),
 and found     1 'primitive' translations



 KPOINTS: Kpoints from vasprun.xml                

Automatic generation of k-mesh.
Space group operators:
 irot       det(A)        alpha          n_x          n_y          n_z        tau_x        tau_y        tau_z
    1     1.000000     0.000000     1.000000     0.000000     0.000000     0.000000     0.000000     0.000000
    2    -1.000000     0.000000     1.000000     0.000000     0.000000     0.000000     0.000000     0.000000
    3     1.000000   120.000000     0.000000     0.000000     1.000000     0.000000     0.000000     0.000000
    4    -1.000000   120.000000     0.000000     0.000000     1.000000     0.000000     0.000000     0.000000
    5     1.000000   120.000000     0.000000     0.000000    -1.000000     0.000000     0.000000     0.000000
    6    -1.000000   120.000000     0.000000     0.000000    -1.000000     0.000000     0.000000     0.000000
 
 Subroutine IBZKPT returns following result:
 ===========================================
 
 Found      5 irreducible k-points:
 
 Following reciprocal coordinates:
            Coordinates               Weight
  0.000000  0.000000  0.000000      1.000000
  0.200000  0.000000  0.000000      6.000000
  0.400000  0.000000  0.000000      6.000000
  0.400000  0.200000  0.000000      6.000000
 -0.400000  0.200000  0.000000      6.000000
 
 Following cartesian coordinates:
            Coordinates               Weight
  0.000000  0.000000  0.000000      1.000000
  0.028953 -0.016716  0.000000      6.000000
  0.057906 -0.033432  0.000000      6.000000
  0.057906  0.000000  0.000000      6.000000
 -0.057906  0.066864  0.000000      6.000000
 
 TETIRR: Found     15 inequivalent tetrahedra from      150


--------------------------------------------------------------------------------------------------------




 Dimension of arrays:
   k-points           NKPTS =      5   k-points in BZ     NKDIM =      5   number of bands    NBANDS=     48
   number of dos      NEDOS =    301   number of ions     NIONS =     10
   non local maximal  LDIM  =      6   non local SUM 2l+1 LMDIM =     18
   total plane-waves  NPLWV = 524880
   max r-space proj   IRMAX =   7543   max aug-charges    IRDMAX=  29641
   dimension x,y,z NGX =    54 NGY =   54 NGZ =  180
   dimension x,y,z NGXF=   108 NGYF=  108 NGZF=  360
   support grid    NGXF=   108 NGYF=  108 NGZF=  360
   ions per type =               2   2   6
   NGX,Y,Z   is equivalent  to a cutoff of  13.00, 13.00, 12.76 a.u.
   NGXF,Y,Z  is equivalent  to a cutoff of  25.99, 25.99, 25.53 a.u.

 SYSTEM =  unknown system                          
 POSCAR =  Cr2 Ge2 Se6                             

 Startparameter for this run:
   NWRITE =      2    write-flag & timer
   PREC   = accura    normal or accurate (medium, high low for compatibility)
   ISTART =      0    job   : 0-new  1-cont  2-samecut
   ICHARG =      2    charge: 1-file 2-atom 10-const
   ISPIN  =      2    spin polarized calculation?
   LNONCOLLINEAR =      F non collinear calculations
   LSORBIT =      F    spin-orbit coupling
   INIWAV =      1    electr: 0-lowe 1-rand  2-diag
   LASPH  =      F    aspherical Exc in radial PAW
   METAGGA=      F    non-selfconsistent MetaGGA calc.

 Electronic Relaxation 1
   ENCUT  =  520.0 eV  38.22 Ry    6.18 a.u.  12.84 12.84 43.59*2*pi/ulx,y,z
   ENINI  =  520.0     initial cutoff
   ENAUG  =  446.8 eV  augmentation charge cutoff
   NELM   =    400;   NELMIN=  2; NELMDL=  0     # of ELM steps 
   EDIFF  = 0.1E-03   stopping-criterion for ELM
   LREAL  =      T    real-space projection
   NLSPLINE    = F    spline interpolate recip. space projectors
   LCOMPAT=      F    compatible to vasp.4.4
   GGA_COMPAT  = T    GGA compatible to vasp.4.4-vasp.4.6
   LMAXPAW     = -100 max onsite density
   LMAXMIX     =    2 max onsite mixed and CHGCAR
   VOSKOWN=      0    Vosko Wilk Nusair interpolation
   ROPT   =   -0.00025  -0.00025  -0.00025
 Ionic relaxation
   EDIFFG = 0.1E-02   stopping-criterion for IOM
   NSW    =     99    number of steps for IOM
   NBLOCK =      1;   KBLOCK =     99    inner block; outer block 
   IBRION =      2    ionic relax: 0-MD 1-quasi-New 2-CG
   NFREE  =      1    steps in history (QN), initial steepest desc. (CG)
   ISIF   =      3    stress and relaxation
   IWAVPR =     11    prediction:  0-non 1-charg 2-wave 3-comb
   ISYM   =      2    0-nonsym 1-usesym 2-fastsym
   LCORR  =      T    Harris-Foulkes like correction to forces

   POTIM  = 0.5000    time-step for ionic-motion
   TEIN   =    0.0    initial temperature
   TEBEG  =    0.0;   TEEND  =   0.0 temperature during run
   SMASS  =  -3.00    Nose mass-parameter (am)
   estimated Nose-frequenzy (Omega)   =  0.10E-29 period in steps =****** mass=  -0.109E-26a.u.
   SCALEE = 1.0000    scale energy and forces
   NPACO  =    256;   APACO  = 16.0  distance and # of slots for P.C.
   PSTRESS=    0.0 pullay stress

  Mass of Ions in am
   POMASS =  52.00 72.61 78.96
  Ionic Valenz
   ZVAL   =   6.00  4.00  6.00
  Atomic Wigner-Seitz radii
   RWIGS  =  -1.00 -1.00 -1.00
  virtual crystal weights 
   VCA    =   1.00  1.00  1.00
   NELECT =      56.0000    total number of electrons
   NUPDOWN=      -1.0000    fix difference up-down

 DOS related values:
   EMIN   =  10.00;   EMAX   =-10.00  energy-range for DOS
   EFERMI =   0.00
   ISMEAR =    -5;   SIGMA  =   0.05  broadening in eV -4-tet -1-fermi 0-gaus

 Electronic relaxation 2 (details)
   IALGO  =     38    algorithm
   LDIAG  =      T    sub-space diagonalisation (order eigenvalues)
   LSUBROT=      F    optimize rotation matrix (better conditioning)
   TURBO    =      0    0=normal 1=particle mesh
   IRESTART =      0    0=no restart 2=restart with 2 vectors
   NREBOOT  =      0    no. of reboots
   NMIN     =      0    reboot dimension
   EREF     =   0.00    reference energy to select bands
   IMIX   =      4    mixing-type and parameters
     AMIX     =   0.40;   BMIX     =  1.00
     AMIX_MAG =   1.60;   BMIX_MAG =  1.00
     AMIN     =   0.01
     WC   =   100.;   INIMIX=   1;  MIXPRE=   1;  MAXMIX= -45

 Intra band minimization:
   WEIMIN = 0.0010     energy-eigenvalue tresh-hold
   EBREAK =  0.52E-06  absolut break condition
   DEPER  =   0.30     relativ break condition  

   TIME   =   0.40     timestep for ELM

  volume/ion in A,a.u.               =      96.88       653.80
  Fermi-wavevector in a.u.,A,eV,Ry     =   0.632976  1.196152  5.451299  0.400659
  Thomas-Fermi vector in A             =   1.696476

 Write flags
   LWAVE        =      F    write WAVECAR
   LDOWNSAMPLE  =      F    k-point downsampling of WAVECAR
   LCHARG       =      T    write CHGCAR
   LVTOT        =      F    write LOCPOT, total local potential
   LVHAR        =      F    write LOCPOT, Hartree potential only
   LELF         =      F    write electronic localiz. function (ELF)
   LORBIT       =     11    0 simple, 1 ext, 2 COOP (PROOUT), +10 PAW based schemes


 Dipole corrections
   LMONO  =      F    monopole corrections only (constant potential shift)
   LDIPOL =      F    correct potential (dipole corrections)
   IDIPOL =      0    1-x, 2-y, 3-z, 4-all directions 
   EPSILON=  1.0000000 bulk dielectric constant

 Exchange correlation treatment:
   GGA     =    BO    GGA type
   LEXCH   =    42    internal setting for exchange type
   VOSKOWN=      0    Vosko Wilk Nusair interpolation
   LHFCALC =     F    Hartree Fock is set to
   LHFONE  =     F    Hartree Fock one center treatment
   AEXX    =    0.0000 exact exchange contribution

 vdW DFT:
   LUSE_VDW   =     T    switch on vdW DFT
   Zab_VDW    =-.8491    correlation parameter
   PARAM1     =0.1833
   PARAM2     =0.2200
   PARAM3     =0.0000
   -- rVV10 --
   BPARAM     = 6.3000
   CPARAM     = 0.0093

 Linear response parameters
   LEPSILON=     F    determine dielectric tensor
   LRPA    =     F    only Hartree local field effects (RPA)
   LNABLA  =     F    use nabla operator in PAW spheres
   LVEL    =     F    velocity operator in full k-point grid
   LINTERFAST=   F  fast interpolation
   KINTER  =     0    interpolate to denser k-point grid
   CSHIFT  =0.1000    complex shift for real part using Kramers Kronig
   OMEGAMAX=  -1.0    maximum frequency
   DEG_THRESHOLD= 0.2000000E-02 threshold for treating states as degnerate
   RTIME   =   -0.100 relaxation time in fs
  (WPLASMAI=    0.000 imaginary part of plasma frequency in eV, 0.658/RTIME)
   DFIELD  = 0.0000000 0.0000000 0.0000000 field for delta impulse in time

 Orbital magnetization related:
   ORBITALMAG=     F  switch on orbital magnetization
   LCHIMAG   =     F  perturbation theory with respect to B field
   DQ        =  0.001000  dq finite difference perturbation B field
   LLRAUG    =     F  two centre corrections for induced B field



--------------------------------------------------------------------------------------------------------


 conjugate gradient relaxation of ions
   using selective dynamics as specified on POSCAR
 charge density and potential will be updated during run
 spin polarized calculation
 Variant of blocked Davidson
 Davidson routine will perform the subspace rotation
 perform sub-space diagonalisation
    after iterative eigenvector-optimisation
 modified Broyden-mixing scheme, WC =      100.0
 initial mixing is a Kerker type mixing with AMIX =  0.4000 and BMIX =      1.0000
 Hartree-type preconditioning will be used
 using additional bands           20
 real space projection scheme for non local part
 use partial core corrections
 calculate Harris-corrections to forces   (improved forces if not selfconsistent)
 use gradient corrections 
 use of overlap-Matrix (Vanderbilt PP)
 Fermi weights with tetrahedron method with Bloechl corrections


--------------------------------------------------------------------------------------------------------


  energy-cutoff  :      520.00
  volume of cell :      968.84
      direct lattice vectors                 reciprocal lattice vectors
     6.907777000 -0.000000000  0.000000000     0.144764372 -0.083579742  0.000000000
     3.453888000  5.982310000  0.000000000     0.000000000  0.167159509 -0.000000000
     0.000000000  0.000000000 23.444588000    -0.000000000  0.000000000  0.042653767

  length of vectors
     6.907777000  6.907776433 23.444588000     0.167159495  0.167159509  0.042653767



 k-points in units of 2pi/SCALE and weight: Kpoints from vasprun.xml                
   0.00000000  0.00000000  0.00000000       0.040
   0.02895287 -0.01671595  0.00000000       0.240
   0.05790575 -0.03343190  0.00000000       0.240
   0.05790575  0.00000000  0.00000000       0.240
  -0.05790575  0.06686380  0.00000000       0.240

 k-points in reciprocal lattice and weights: Kpoints from vasprun.xml                
   0.00000000  0.00000000  0.00000000       0.040
   0.20000000  0.00000000  0.00000000       0.240
   0.40000000  0.00000000  0.00000000       0.240
   0.40000000  0.20000000  0.00000000       0.240
  -0.40000000  0.20000000  0.00000000       0.240

 position of ions in fractional coordinates (direct lattice) 
   0.33333300  0.33333300  0.49992500
   0.66666700  0.66666700  0.50007500
   0.00000000  0.00000000  0.44821600
   0.00000000  0.00000000  0.55178400
   0.62635700  0.00042000  0.57375200
   0.00042000  0.37322400  0.57375200
   0.37322400  0.62635700  0.57375200
   0.37364300  0.99958000  0.42624800
   0.99958000  0.62677600  0.42624800
   0.62677600  0.37364300  0.42624800

 position of ions in cartesian coordinates  (Angst):
   3.45388488  1.99410134 11.72053566
   6.90778012  3.98820866 11.72405234
   0.00000000  0.00000000 10.50823946
   0.00000000  0.00000000 12.93634854
   4.32818511  0.00251257 13.45137925
   1.29197516  2.23274167 13.45137925
   4.74151509  3.74706174 13.45137925
   6.03347989  5.97979743  9.99320875
   9.06968984  3.74956833  9.99320875
   5.62014991  2.23524826  9.99320875



--------------------------------------------------------------------------------------------------------


 k-point  1 :   0.0000 0.0000 0.0000  plane waves:   26073
 k-point  2 :   0.2000 0.0000 0.0000  plane waves:   26070
 k-point  3 :   0.4000 0.0000 0.0000  plane waves:   26086
 k-point  4 :   0.4000 0.2000 0.0000  plane waves:   26085
 k-point  5 :  -0.4000 0.2000 0.0000  plane waves:   26115

 maximum and minimum number of plane-waves per node :     26115    26070

 maximum number of plane-waves:     26115
 maximum index in each direction: 
   IXMAX=   13   IYMAX=   12   IZMAX=   43
   IXMIN=  -13   IYMIN=  -13   IZMIN=  -43


 serial   3D FFT for wavefunctions
 parallel 3D FFT for charge:
    minimum data exchange during FFTs selected (reduces bandwidth)


 total amount of memory used by VASP MPI-rank0   114130. kBytes
=======================================================================

   base      :      30000. kBytes
   nonlr-proj:       7584. kBytes
   fftplans  :       8558. kBytes
   grid      :      59268. kBytes
   one-center:        311. kBytes
   wavefun   :       8409. kBytes

     INWAV:  cpu time    0.0000: real time    0.0005
 Broyden mixing: mesh for mixing (old mesh)
   NGX = 25   NGY = 25   NGZ = 87
  (NGX  =108   NGY  =108   NGZ  =360)
  gives a total of  54375 points

 initial charge density was supplied:
 charge density of overlapping atoms calculated
 number of electron      56.0000000 magnetization      14.8000000
 keeping initial charge density in first step


--------------------------------------------------------------------------------------------------------


 Maximum index for non-local projection operator         7247
 Maximum index for augmentation-charges         1708 (set IRDMAX)


--------------------------------------------------------------------------------------------------------


 First call to EWALD:  gamma=   0.179
 Maximum number of real-space cells 4x 4x 1
 Maximum number of reciprocal cells 2x 2x 6

    FEWALD:  cpu time    0.0040: real time    0.0040


--------------------------------------- Iteration      1(   1)  ---------------------------------------


vdW kernel read from vdw_kernel.bindat
  0.0000  0.2424  0.5071  0.7962  1.1119  1.4567  1.8333  2.2446  2.6937  3.1842
  3.7199  4.3049  4.9438  5.6415  6.4036  7.2358  8.1446  9.1372 10.2212 11.4050
 12.6979 14.1099 15.6519 17.3360 19.1751 21.1837 23.3773 25.7729 28.3892 31.2465
 34.3669 37.7748 41.4965 45.5611 50.0000

    POTLOK:  cpu time   38.9280: real time   60.6786
    SETDIJ:  cpu time    0.0320: real time    0.0627
     EDDAV:  cpu time   20.2280: real time   31.4038
 BZINTS: Fermi energy:  5.081350; 56.000000 electrons
         Band energy: -40.795244;  BLOECHL correction: -0.044471
       DOS:  cpu time    0.0160: real time    0.0174
    --------------------------------------------
      LOOP:  cpu time   59.2040: real time   92.1625

 eigenvalue-minimisations  :   960
 total energy-change (2. order) : 0.3803327E+03  (-0.1658275E+04)
 number of electron      56.0000000 magnetization      14.8000000
 augmentation part       56.0000000 magnetization      14.8000000

 Free energy of the ion-electron system (eV)
  ---------------------------------------------------
  alpha Z        PSCENC =        33.62852870
  Ewald energy   TEWEN  =      5985.89955237
  -Hartree energ DENC   =     -8013.07032120
  -exchange      EXHF   =         0.00000000
  -V(xc)+E(xc)   XCENC  =       -61.95823998
  PAW double counting   =      1166.73580725    -1008.38558627
  entropy T*S    EENTRO =         0.00000000
  eigenvalues    EBANDS =       -40.79524355
  atomic energy  EATOM  =      2318.27820089
  Solvation  Ediel_sol  =         0.00000000
  ---------------------------------------------------
  free energy    TOTEN  =       380.33269821 eV

  energy without entropy =      380.33269821  energy(sigma->0) =      380.33269821


--------------------------------------------------------------------------------------------------------




--------------------------------------- Iteration      1(   2)  ---------------------------------------


     EDDAV:  cpu time   28.7960: real time   43.4995
 BZINTS: Fermi energy: -2.032785; 56.000000 electrons
         Band energy:-419.357281;  BLOECHL correction: -0.005263
       DOS:  cpu time    0.0080: real time    0.0124
    --------------------------------------------
      LOOP:  cpu time   28.8040: real time   43.5119

 eigenvalue-minimisations  :  1536
 total energy-change (2. order) :-0.3785620E+03  (-0.3610218E+03)
 number of electron      56.0000000 magnetization      14.8000000
 augmentation part       56.0000000 magnetization      14.8000000

 Free energy of the ion-electron system (eV)
  ---------------------------------------------------
  alpha Z        PSCENC =        33.62852870
  Ewald energy   TEWEN  =      5985.89955237
  -Hartree energ DENC   =     -8013.07032120
  -exchange      EXHF   =         0.00000000
  -V(xc)+E(xc)   XCENC  =       -61.95823998
  PAW double counting   =      1166.73580725    -1008.38558627
  entropy T*S    EENTRO =         0.00000000
  eigenvalues    EBANDS =      -419.35728107
  atomic energy  EATOM  =      2318.27820089
  Solvation  Ediel_sol  =         0.00000000
  ---------------------------------------------------
  free energy    TOTEN  =         1.77066069 eV

  energy without entropy =        1.77066069  energy(sigma->0) =        1.77066069


--------------------------------------------------------------------------------------------------------




--------------------------------------- Iteration      1(   3)  ---------------------------------------


     EDDAV:  cpu time   27.3440: real time   40.1143
 BZINTS: Fermi energy: -2.849254; 56.000000 electrons
         Band energy:-468.262231;  BLOECHL correction: -0.013126
       DOS:  cpu time    0.0040: real time    0.0118
    --------------------------------------------
      LOOP:  cpu time   27.3480: real time   40.1261

 eigenvalue-minimisations  :  1368
 total energy-change (2. order) :-0.4890495E+02  (-0.4792967E+02)
 number of electron      56.0000000 magnetization      14.8000000
 augmentation part       56.0000000 magnetization      14.8000000

 Free energy of the ion-electron system (eV)
  ---------------------------------------------------
  alpha Z        PSCENC =        33.62852870
  Ewald energy   TEWEN  =      5985.89955237
  -Hartree energ DENC   =     -8013.07032120
  -exchange      EXHF   =         0.00000000
  -V(xc)+E(xc)   XCENC  =       -61.95823998
  PAW double counting   =      1166.73580725    -1008.38558627
  entropy T*S    EENTRO =         0.00000000
  eigenvalues    EBANDS =      -468.26223099
  atomic energy  EATOM  =      2318.27820089
  Solvation  Ediel_sol  =         0.00000000
  ---------------------------------------------------
  free energy    TOTEN  =       -47.13428923 eV

  energy without entropy =      -47.13428923  energy(sigma->0) =      -47.13428923


--------------------------------------------------------------------------------------------------------




--------------------------------------- Iteration      1(   4)  ---------------------------------------


     EDDAV:  cpu time   24.5600: real time   37.3048
 BZINTS: Fermi energy: -2.871124; 56.000000 electrons
         Band energy:-470.100403;  BLOECHL correction: -0.008668
       DOS:  cpu time    0.0160: real time    0.0160
    --------------------------------------------
      LOOP:  cpu time   24.5760: real time   37.3208

 eigenvalue-minimisations  :  1272
 total energy-change (2. order) :-0.1838172E+01  (-0.1832242E+01)
 number of electron      56.0000000 magnetization      14.8000000
 augmentation part       56.0000000 magnetization      14.8000000

 Free energy of the ion-electron system (eV)
  ---------------------------------------------------
  alpha Z        PSCENC =        33.62852870
  Ewald energy   TEWEN  =      5985.89955237
  -Hartree energ DENC   =     -8013.07032120
  -exchange      EXHF   =         0.00000000
  -V(xc)+E(xc)   XCENC  =       -61.95823998
  PAW double counting   =      1166.73580725    -1008.38558627
  entropy T*S    EENTRO =         0.00000000
  eigenvalues    EBANDS =      -470.10040348
  atomic energy  EATOM  =      2318.27820089
  Solvation  Ediel_sol  =         0.00000000
  ---------------------------------------------------
  free energy    TOTEN  =       -48.97246171 eV

  energy without entropy =      -48.97246171  energy(sigma->0) =      -48.97246171


--------------------------------------------------------------------------------------------------------




--------------------------------------- Iteration      1(   5)  ---------------------------------------


     EDDAV:  cpu time   25.6920: real time   39.4150
 BZINTS: Fermi energy: -2.871277; 56.000000 electrons
         Band energy:-470.160507;  BLOECHL correction: -0.008662
       DOS:  cpu time    0.0120: real time    0.0160
    CHARGE:  cpu time    1.4520: real time    2.2562
    MIXING:  cpu time    0.0280: real time    0.0495
    --------------------------------------------
      LOOP:  cpu time   27.1840: real time   41.7367

 eigenvalue-minimisations  :  1320
 total energy-change (2. order) :-0.6010342E-01  (-0.6009612E-01)
 number of electron      55.9999995 magnetization      13.6865463
 augmentation part       -6.1098079 magnetization      11.6199066

 Broyden mixing:
  rms(total) = 0.25055E+01    rms(broyden)= 0.25055E+01
  rms(prec ) = 0.27090E+01
  weight for this iteration     100.00

 Free energy of the ion-electron system (eV)
  ---------------------------------------------------
  alpha Z        PSCENC =        33.62852870
  Ewald energy   TEWEN  =      5985.89955237
  -Hartree energ DENC   =     -8013.07032120
  -exchange      EXHF   =         0.00000000
  -V(xc)+E(xc)   XCENC  =       -61.95823998
  PAW double counting   =      1166.73580725    -1008.38558627
  entropy T*S    EENTRO =         0.00000000
  eigenvalues    EBANDS =      -470.16050690
  atomic energy  EATOM  =      2318.27820089
  Solvation  Ediel_sol  =         0.00000000
  ---------------------------------------------------
  free energy    TOTEN  =       -49.03256514 eV

  energy without entropy =      -49.03256514  energy(sigma->0) =      -49.03256514


--------------------------------------------------------------------------------------------------------




--------------------------------------- Iteration      1(   6)  ---------------------------------------


    POTLOK:  cpu time   39.6880: real time   60.3364
    SETDIJ:  cpu time    0.0760: real time    0.0782
     EDDAV:  cpu time   25.1160: real time   39.5331
 BZINTS: Fermi energy: -5.017810; 56.000000 electrons
         Band energy:-562.428132;  BLOECHL correction: -0.040992
       DOS:  cpu time    0.0200: real time    0.0195
    CHARGE:  cpu time    1.4360: real time    2.3281
    MIXING:  cpu time    0.0640: real time    0.0668
    --------------------------------------------
      LOOP:  cpu time   66.4000: real time  102.3621

 eigenvalue-minimisations  :  1368
 total energy-change (2. order) :-0.4702279E+02  (-0.3193317E+02)
 number of electron      55.9999993 magnetization      13.3888068
 augmentation part        7.0036636 magnetization      10.1901529

 Broyden mixing:
  rms(total) = 0.58680E+01    rms(broyden)= 0.58680E+01
  rms(prec ) = 0.66026E+01
  weight for this iteration     100.00

 eigenvalues of (default mixing * dielectric matrix)
  average eigenvalue GAMMA=   0.2975
  0.2975

 Free energy of the ion-electron system (eV)
  ---------------------------------------------------
  alpha Z        PSCENC =        33.62852870
  Ewald energy   TEWEN  =      5985.89955237
  -Hartree energ DENC   =     -7974.48607780
  -exchange      EXHF   =         0.00000000
  -V(xc)+E(xc)   XCENC  =       -63.71371657
  PAW double counting   =      1123.76189992     -956.99560553
  entropy T*S    EENTRO =         0.00000000
  eigenvalues    EBANDS =      -562.42813249
  atomic energy  EATOM  =      2318.27820089
  Solvation  Ediel_sol  =         0.00000000
  ---------------------------------------------------
  free energy    TOTEN  =       -96.05535050 eV

  energy without entropy =      -96.05535050  energy(sigma->0) =      -96.05535050


--------------------------------------------------------------------------------------------------------




--------------------------------------- Iteration      1(   7)  ---------------------------------------


    POTLOK:  cpu time   38.9520: real time   58.8262
    SETDIJ:  cpu time    0.0360: real time    0.0667
     EDDAV:  cpu time   23.5040: real time   35.4974
 BZINTS: Fermi energy: -3.467614; 56.000000 electrons
         Band energy:-463.155684;  BLOECHL correction:  0.000000
       DOS:  cpu time    0.0040: real time    0.0011
    CHARGE:  cpu time    1.5280: real time    2.1369
    MIXING:  cpu time    0.0200: real time    0.0487
    --------------------------------------------
      LOOP:  cpu time   64.0440: real time   96.5769

 eigenvalue-minimisations  :  1176
 total energy-change (2. order) : 0.5480817E+02  (-0.8329167E+01)
 number of electron      55.9999995 magnetization      12.9728564
 augmentation part       -3.6613821 magnetization      10.5273262

 Broyden mixing:
  rms(total) = 0.16776E+01    rms(broyden)= 0.16775E+01
  rms(prec ) = 0.17031E+01
  weight for this iteration     100.00

 eigenvalues of (default mixing * dielectric matrix)
  average eigenvalue GAMMA=   0.3746
  0.5233  0.2258

 Free energy of the ion-electron system (eV)
  ---------------------------------------------------
  alpha Z        PSCENC =        33.62852870
  Ewald energy   TEWEN  =      5985.89955237
  -Hartree energ DENC   =     -8009.87471984
  -exchange      EXHF   =         0.00000000
  -V(xc)+E(xc)   XCENC  =       -64.39309968
  PAW double counting   =      1190.47408501    -1032.10404793
  entropy T*S    EENTRO =         0.00000000
  eigenvalues    EBANDS =      -463.15568432
  atomic energy  EATOM  =      2318.27820089
  Solvation  Ediel_sol  =         0.00000000
  ---------------------------------------------------
  free energy    TOTEN  =       -41.24718479 eV

  energy without entropy =      -41.24718479  energy(sigma->0) =      -41.24718479


--------------------------------------------------------------------------------------------------------




--------------------------------------- Iteration      1(   8)  ---------------------------------------


    POTLOK:  cpu time   39.4520: real time   58.9978
    SETDIJ:  cpu time    0.0240: real time    0.0704
     EDDAV:  cpu time   23.2240: real time   36.3986
 BZINTS: Fermi energy: -4.019948; 56.000000 electrons
         Band energy:-467.598173;  BLOECHL correction:  0.000000
       DOS:  cpu time    0.0040: real time    0.0041
    CHARGE:  cpu time    1.4920: real time    2.1845
    MIXING:  cpu time    0.0280: real time    0.0487
    --------------------------------------------
      LOOP:  cpu time   64.2240: real time   97.7040

 eigenvalue-minimisations  :  1224
 total energy-change (2. order) :-0.1763625E+01  (-0.1037936E+01)
 number of electron      55.9999995 magnetization      11.8891415
 augmentation part       -3.2890052 magnetization       9.7232046

 Broyden mixing:
  rms(total) = 0.88648E+00    rms(broyden)= 0.88647E+00
  rms(prec ) = 0.90176E+00
  weight for this iteration     100.00

 eigenvalues of (default mixing * dielectric matrix)
  average eigenvalue GAMMA=   0.6068
  0.2411  0.7897  0.7897

 Free energy of the ion-electron system (eV)
  ---------------------------------------------------
  alpha Z        PSCENC =        33.62852870
  Ewald energy   TEWEN  =      5985.89955237
  -Hartree energ DENC   =     -8007.60919046
  -exchange      EXHF   =         0.00000000
  -V(xc)+E(xc)   XCENC  =       -64.15255807
  PAW double counting   =      1188.44825920    -1029.90542856
  entropy T*S    EENTRO =         0.00000000
  eigenvalues    EBANDS =      -467.59817344
  atomic energy  EATOM  =      2318.27820089
  Solvation  Ediel_sol  =         0.00000000
  ---------------------------------------------------
  free energy    TOTEN  =       -43.01080937 eV

  energy without entropy =      -43.01080937  energy(sigma->0) =      -43.01080937


--------------------------------------------------------------------------------------------------------




--------------------------------------- Iteration      1(   9)  ---------------------------------------


    POTLOK:  cpu time   39.2480: real time   58.6638
    SETDIJ:  cpu time    0.0360: real time    0.0719
     EDDAV:  cpu time   30.2200: real time   44.6652
 BZINTS: Fermi energy: -4.063899; 56.000000 electrons
         Band energy:-468.098053;  BLOECHL correction:  0.000000
       DOS:  cpu time    0.0000: real time    0.0032
    CHARGE:  cpu time    1.6120: real time    2.2061
    MIXING:  cpu time    0.0280: real time    0.0492
    --------------------------------------------
      LOOP:  cpu time   71.1440: real time  105.6595

 eigenvalue-minimisations  :  1560
 total energy-change (2. order) :-0.2184266E+01  (-0.9573832E+00)
 number of electron      55.9999995 magnetization      10.9300981
 augmentation part       -2.8811292 magnetization       9.3178278

 Broyden mixing:
  rms(total) = 0.42485E+00    rms(broyden)= 0.42478E+00
  rms(prec ) = 0.42987E+00
  weight for this iteration     100.00

 eigenvalues of (default mixing * dielectric matrix)
  average eigenvalue GAMMA=   0.7181
  1.0303  1.0303  0.2391  0.5729

 Free energy of the ion-electron system (eV)
  ---------------------------------------------------
  alpha Z        PSCENC =        33.62852870
  Ewald energy   TEWEN  =      5985.89955237
  -Hartree energ DENC   =     -8010.94249997
  -exchange      EXHF   =         0.00000000
  -V(xc)+E(xc)   XCENC  =       -62.29005719
  PAW double counting   =      1201.51769280    -1043.18844081
  entropy T*S    EENTRO =         0.00000000
  eigenvalues    EBANDS =      -468.09805254
  atomic energy  EATOM  =      2318.27820089
  Solvation  Ediel_sol  =         0.00000000
  ---------------------------------------------------
  free energy    TOTEN  =       -45.19507575 eV

  energy without entropy =      -45.19507575  energy(sigma->0) =      -45.19507575


--------------------------------------------------------------------------------------------------------




--------------------------------------- Iteration      1(  10)  ---------------------------------------


    POTLOK:  cpu time   38.7960: real time   59.6435
    SETDIJ:  cpu time    0.0280: real time    0.0566
     EDDAV:  cpu time   24.3000: real time   38.2842
 BZINTS: Fermi energy: -4.108316; 56.000000 electrons
         Band energy:-466.949708;  BLOECHL correction:  0.000000
       DOS:  cpu time    0.0080: real time    0.0221
    CHARGE:  cpu time    1.5760: real time    2.2030
    MIXING:  cpu time    0.0280: real time    0.0522
    --------------------------------------------
      LOOP:  cpu time   64.7360: real time  100.2616

 eigenvalue-minimisations  :  1296
 total energy-change (2. order) : 0.7706006E+00  (-0.3755611E+01)
 number of electron      55.9999995 magnetization       9.9283793
 augmentation part       -2.6970390 magnetization       8.5707336

 Broyden mixing:
  rms(total) = 0.29843E+00    rms(broyden)= 0.29836E+00
  rms(prec ) = 0.30020E+00
  weight for this iteration     100.00

 eigenvalues of (default mixing * dielectric matrix)
  average eigenvalue GAMMA=   0.8461
  1.8257  0.2394  0.9456  0.7318  0.4882

 Free energy of the ion-electron system (eV)
  ---------------------------------------------------
  alpha Z        PSCENC =        33.62852870
  Ewald energy   TEWEN  =      5985.89955237
  -Hartree energ DENC   =     -8011.95106400
  -exchange      EXHF   =         0.00000000
  -V(xc)+E(xc)   XCENC  =       -61.21706571
  PAW double counting   =      1201.47437413    -1043.58729344
  entropy T*S    EENTRO =         0.00000000
  eigenvalues    EBANDS =      -466.94970806
  atomic energy  EATOM  =      2318.27820089
  Solvation  Ediel_sol  =         0.00000000
  ---------------------------------------------------
  free energy    TOTEN  =       -44.42447512 eV

  energy without entropy =      -44.42447512  energy(sigma->0) =      -44.42447512


--------------------------------------------------------------------------------------------------------




--------------------------------------- Iteration      1(  11)  ---------------------------------------


    POTLOK:  cpu time   39.0000: real time   58.4931
    SETDIJ:  cpu time    0.0720: real time    0.0687
     EDDAV:  cpu time   25.3200: real time   37.6823
 BZINTS: Fermi energy: -4.104579; 56.000000 electrons
         Band energy:-466.450130;  BLOECHL correction:  0.000000
       DOS:  cpu time    0.0120: real time    0.0366
    CHARGE:  cpu time    1.4560: real time    2.1705
    MIXING:  cpu time    0.0680: real time    0.0652
    --------------------------------------------
      LOOP:  cpu time   65.9280: real time   98.5165

 eigenvalue-minimisations  :  1272
 total energy-change (2. order) :-0.4065894E+00  (-0.7802139E-01)
 number of electron      55.9999995 magnetization       9.0173462
 augmentation part       -2.6319693 magnetization       7.8224118

 Broyden mixing:
  rms(total) = 0.31517E+00    rms(broyden)= 0.31516E+00
  rms(prec ) = 0.31974E+00
  weight for this iteration     100.00

 eigenvalues of (default mixing * dielectric matrix)
  average eigenvalue GAMMA=   1.0205
  2.8206  0.2394  0.9456  0.9456  0.5858  0.5858

 Free energy of the ion-electron system (eV)
  ---------------------------------------------------
  alpha Z        PSCENC =        33.62852870
  Ewald energy   TEWEN  =      5985.89955237
  -Hartree energ DENC   =     -8013.34192311
  -exchange      EXHF   =         0.00000000
  -V(xc)+E(xc)   XCENC  =       -60.39222589
  PAW double counting   =      1203.80185426    -1046.25492193
  entropy T*S    EENTRO =         0.00000000
  eigenvalues    EBANDS =      -466.45012983
  atomic energy  EATOM  =      2318.27820089
  Solvation  Ediel_sol  =         0.00000000
  ---------------------------------------------------
  free energy    TOTEN  =       -44.83106453 eV

  energy without entropy =      -44.83106453  energy(sigma->0) =      -44.83106453


--------------------------------------------------------------------------------------------------------




--------------------------------------- Iteration      1(  12)  ---------------------------------------


    POTLOK:  cpu time   40.9280: real time   59.7798
    SETDIJ:  cpu time    0.0360: real time    0.0925
     EDDAV:  cpu time   27.0080: real time   40.3353
 BZINTS: Fermi energy: -4.118128; 56.000000 electrons
         Band energy:-465.166663;  BLOECHL correction:  0.000000
       DOS:  cpu time    0.0040: real time    0.0155
    CHARGE:  cpu time    1.4480: real time    2.2385
    MIXING:  cpu time    0.0280: real time    0.0540
    --------------------------------------------
      LOOP:  cpu time   69.4520: real time  102.5154

 eigenvalue-minimisations  :  1392
 total energy-change (2. order) :-0.1605228E+00  (-0.1186507E-01)
 number of electron      55.9999995 magnetization       7.2966123
 augmentation part       -2.6743499 magnetization       6.0854749

 Broyden mixing:
  rms(total) = 0.25762E+00    rms(broyden)= 0.25762E+00
  rms(prec ) = 0.26077E+00
  weight for this iteration     100.00

 eigenvalues of (default mixing * dielectric matrix)
  average eigenvalue GAMMA=   1.1841
  3.5695  1.2615  1.2615  0.2394  0.6917  0.6917  0.5733

 Free energy of the ion-electron system (eV)
  ---------------------------------------------------
  alpha Z        PSCENC =        33.62852870
  Ewald energy   TEWEN  =      5985.89955237
  -Hartree energ DENC   =     -8014.51804272
  -exchange      EXHF   =         0.00000000
  -V(xc)+E(xc)   XCENC  =       -60.50587051
  PAW double counting   =      1205.69336426    -1048.30065730
  entropy T*S    EENTRO =         0.00000000
  eigenvalues    EBANDS =      -465.16666306
  atomic energy  EATOM  =      2318.27820089
  Solvation  Ediel_sol  =         0.00000000
  ---------------------------------------------------
  free energy    TOTEN  =       -44.99158735 eV

  energy without entropy =      -44.99158735  energy(sigma->0) =      -44.99158735


--------------------------------------------------------------------------------------------------------




--------------------------------------- Iteration      1(  13)  ---------------------------------------


    POTLOK:  cpu time   40.8160: real time   58.8925
    SETDIJ:  cpu time    0.0800: real time    0.0779
     EDDAV:  cpu time   25.4880: real time   39.7001
 BZINTS: Fermi energy: -4.067543; 56.000000 electrons
         Band energy:-462.935587;  BLOECHL correction:  0.000000
       DOS:  cpu time    0.0040: real time    0.0034
    CHARGE:  cpu time    1.4240: real time    2.1879
    MIXING:  cpu time    0.0640: real time    0.0645
    --------------------------------------------
      LOOP:  cpu time   67.8760: real time  100.9263

 eigenvalue-minimisations  :  1368
 total energy-change (2. order) :-0.3027046E+00  (-0.2111107E-01)
 number of electron      55.9999995 magnetization       6.4386673
 augmentation part       -2.7842369 magnetization       5.0720720

 Broyden mixing:
  rms(total) = 0.93021E-01    rms(broyden)= 0.93020E-01
  rms(prec ) = 0.94509E-01
  weight for this iteration     100.00

 eigenvalues of (default mixing * dielectric matrix)
  average eigenvalue GAMMA=   1.5414
  6.1683  1.5078  1.5078  0.2394  0.8285  0.8285  0.6797  0.5709

 Free energy of the ion-electron system (eV)
  ---------------------------------------------------
  alpha Z        PSCENC =        33.62852870
  Ewald energy   TEWEN  =      5985.89955237
  -Hartree energ DENC   =     -8016.07649808
  -exchange      EXHF   =         0.00000000
  -V(xc)+E(xc)   XCENC  =       -61.40911006
  PAW double counting   =      1205.85617214    -1048.53555087
  entropy T*S    EENTRO =         0.00000000
  eigenvalues    EBANDS =      -462.93558707
  atomic energy  EATOM  =      2318.27820089
  Solvation  Ediel_sol  =         0.00000000
  ---------------------------------------------------
  free energy    TOTEN  =       -45.29429198 eV

  energy without entropy =      -45.29429198  energy(sigma->0) =      -45.29429198


--------------------------------------------------------------------------------------------------------




--------------------------------------- Iteration      1(  14)  ---------------------------------------


    POTLOK:  cpu time   39.0840: real time   58.5934
    SETDIJ:  cpu time    0.0360: real time    0.0670
     EDDAV:  cpu time   21.7560: real time   32.5418
 BZINTS: Fermi energy: -4.053791; 56.000000 electrons
         Band energy:-462.456367;  BLOECHL correction:  0.000000
       DOS:  cpu time    0.0040: real time    0.0111
    CHARGE:  cpu time    1.5680: real time    2.3069
    MIXING:  cpu time    0.0320: real time    0.0594
    --------------------------------------------
      LOOP:  cpu time   62.4800: real time   93.5795

 eigenvalue-minimisations  :  1056
 total energy-change (2. order) :-0.4866319E-01  (-0.8446276E-02)
 number of electron      55.9999995 magnetization       6.0925524
 augmentation part       -2.7977616 magnetization       4.6912657

 Broyden mixing:
  rms(total) = 0.41799E-01    rms(broyden)= 0.41799E-01
  rms(prec ) = 0.43394E-01
  weight for this iteration     100.00

 eigenvalues of (default mixing * dielectric matrix)
  average eigenvalue GAMMA=   1.7245
  8.1366  1.9730  0.2394  1.1870  1.1870  0.7959  0.7959  0.5896  0.6164

 Free energy of the ion-electron system (eV)
  ---------------------------------------------------
  alpha Z        PSCENC =        33.62852870
  Ewald energy   TEWEN  =      5985.89955237
  -Hartree energ DENC   =     -8016.43563565
  -exchange      EXHF   =         0.00000000
  -V(xc)+E(xc)   XCENC  =       -61.75773250
  PAW double counting   =      1204.33037346    -1046.82987533
  entropy T*S    EENTRO =         0.00000000
  eigenvalues    EBANDS =      -462.45636713
  atomic energy  EATOM  =      2318.27820089
  Solvation  Ediel_sol  =         0.00000000
  ---------------------------------------------------
  free energy    TOTEN  =       -45.34295518 eV

  energy without entropy =      -45.34295518  energy(sigma->0) =      -45.34295518


--------------------------------------------------------------------------------------------------------




--------------------------------------- Iteration      1(  15)  ---------------------------------------


    POTLOK:  cpu time   39.3360: real time   58.6098
    SETDIJ:  cpu time    0.0640: real time    0.0770
     EDDAV:  cpu time   21.8200: real time   34.1977
 BZINTS: Fermi energy: -4.063996; 56.000000 electrons
         Band energy:-462.367428;  BLOECHL correction:  0.000000
       DOS:  cpu time    0.0200: real time    0.0422
    CHARGE:  cpu time    1.4280: real time    2.2858
    MIXING:  cpu time    0.0400: real time    0.0639
    --------------------------------------------
      LOOP:  cpu time   62.7080: real time   95.2764

 eigenvalue-minimisations  :  1128
 total energy-change (2. order) :-0.1886187E-01  (-0.1778984E-02)
 number of electron      55.9999995 magnetization       6.0249612
 augmentation part       -2.7904227 magnetization       4.6093370

 Broyden mixing:
  rms(total) = 0.22538E-01    rms(broyden)= 0.22538E-01
  rms(prec ) = 0.23496E-01
  weight for this iteration     100.00

 eigenvalues of (default mixing * dielectric matrix)
  average eigenvalue GAMMA=   1.7730
  8.8902  2.2129  1.3925  1.3925  0.2394  0.8472  0.8472  0.5721  0.6682  0.6682

 Free energy of the ion-electron system (eV)
  ---------------------------------------------------
  alpha Z        PSCENC =        33.62852870
  Ewald energy   TEWEN  =      5985.89955237
  -Hartree energ DENC   =     -8016.46815850
  -exchange      EXHF   =         0.00000000
  -V(xc)+E(xc)   XCENC  =       -61.90449107
  PAW double counting   =      1202.73908271    -1045.16710404
  entropy T*S    EENTRO =         0.00000000
  eigenvalues    EBANDS =      -462.36742812
  atomic energy  EATOM  =      2318.27820089
  Solvation  Ediel_sol  =         0.00000000
  ---------------------------------------------------
  free energy    TOTEN  =       -45.36181705 eV

  energy without entropy =      -45.36181705  energy(sigma->0) =      -45.36181705


--------------------------------------------------------------------------------------------------------




--------------------------------------- Iteration      1(  16)  ---------------------------------------


    POTLOK:  cpu time   38.8280: real time   58.1778
    SETDIJ:  cpu time    0.0760: real time    0.0753
     EDDAV:  cpu time   23.1280: real time   34.3823
 BZINTS: Fermi energy: -4.037305; 56.000000 electrons
         Band energy:-462.477522;  BLOECHL correction:  0.000000
       DOS:  cpu time    0.0040: real time    0.0183
    CHARGE:  cpu time    1.3520: real time    2.3144
    MIXING:  cpu time    0.0280: real time    0.0572
    --------------------------------------------
      LOOP:  cpu time   63.4160: real time   95.0253

 eigenvalue-minimisations  :  1128
 total energy-change (2. order) :-0.2857063E-02  (-0.3837080E-03)
 number of electron      55.9999995 magnetization       6.0114537
 augmentation part       -2.7884941 magnetization       4.6031480

 Broyden mixing:
  rms(total) = 0.11200E-01    rms(broyden)= 0.11200E-01
  rms(prec ) = 0.11842E-01
  weight for this iteration     100.00

 eigenvalues of (default mixing * dielectric matrix)
  average eigenvalue GAMMA=   1.7783
  9.1909  2.5111  1.5542  1.5542  0.2394  0.9121  0.9121  0.7436  0.7436  0.5785
  0.6220

 Free energy of the ion-electron system (eV)
  ---------------------------------------------------
  alpha Z        PSCENC =        33.62852870
  Ewald energy   TEWEN  =      5985.89955237
  -Hartree energ DENC   =     -8016.40907011
  -exchange      EXHF   =         0.00000000
  -V(xc)+E(xc)   XCENC  =       -61.90564984
  PAW double counting   =      1202.36739991    -1044.74611400
  entropy T*S    EENTRO =         0.00000000
  eigenvalues    EBANDS =      -462.47752204
  atomic energy  EATOM  =      2318.27820089
  Solvation  Ediel_sol  =         0.00000000
  ---------------------------------------------------
  free energy    TOTEN  =       -45.36467411 eV

  energy without entropy =      -45.36467411  energy(sigma->0) =      -45.36467411


--------------------------------------------------------------------------------------------------------




--------------------------------------- Iteration      1(  17)  ---------------------------------------


    POTLOK:  cpu time   40.0160: real time   59.3949
    SETDIJ:  cpu time    0.0760: real time    0.0788
     EDDAV:  cpu time   23.6400: real time   35.4329
 BZINTS: Fermi energy: -4.057705; 56.000000 electrons
         Band energy:-462.495257;  BLOECHL correction:  0.000000
       DOS:  cpu time    0.0000: real time    0.0180
    CHARGE:  cpu time    1.8240: real time    2.2382
    MIXING:  cpu time    0.0640: real time    0.0607
    --------------------------------------------
      LOOP:  cpu time   65.6200: real time   97.2235

 eigenvalue-minimisations  :  1176
 total energy-change (2. order) :-0.3777057E-02  (-0.1938288E-03)
 number of electron      55.9999995 magnetization       6.0105149
 augmentation part       -2.7889679 magnetization       4.6043054

 Broyden mixing:
  rms(total) = 0.46950E-02    rms(broyden)= 0.46949E-02
  rms(prec ) = 0.54653E-02
  weight for this iteration     100.00

 eigenvalues of (default mixing * dielectric matrix)
  average eigenvalue GAMMA=   1.7622
  9.2547  2.6289  1.8489  1.3990  1.3990  0.2394  0.8865  0.8865  0.7065  0.7065
  0.5769  0.6140

 Free energy of the ion-electron system (eV)
  ---------------------------------------------------
  alpha Z        PSCENC =        33.62852870
  Ewald energy   TEWEN  =      5985.89955237
  -Hartree energ DENC   =     -8016.39266476
  -exchange      EXHF   =         0.00000000
  -V(xc)+E(xc)   XCENC  =       -61.88843877
  PAW double counting   =      1202.37686472    -1044.77523687
  entropy T*S    EENTRO =         0.00000000
  eigenvalues    EBANDS =      -462.49525745
  atomic energy  EATOM  =      2318.27820089
  Solvation  Ediel_sol  =         0.00000000
  ---------------------------------------------------
  free energy    TOTEN  =       -45.36845117 eV

  energy without entropy =      -45.36845117  energy(sigma->0) =      -45.36845117


--------------------------------------------------------------------------------------------------------




--------------------------------------- Iteration      1(  18)  ---------------------------------------


    POTLOK:  cpu time   39.3040: real time   60.0142
    SETDIJ:  cpu time    0.0360: real time    0.0771
     EDDAV:  cpu time   19.8760: real time   30.4923
 BZINTS: Fermi energy: -4.050388; 56.000000 electrons
         Band energy:-462.484686;  BLOECHL correction:  0.000000
       DOS:  cpu time    0.0000: real time    0.0019
    CHARGE:  cpu time    1.3160: real time    2.2463
    MIXING:  cpu time    0.0280: real time    0.0590
    --------------------------------------------
      LOOP:  cpu time   60.5600: real time   92.8907

 eigenvalue-minimisations  :  1008
 total energy-change (2. order) :-0.1503508E-02  (-0.9694336E-04)
 number of electron      55.9999995 magnetization       6.0055864
 augmentation part       -2.7896480 magnetization       4.6009633

 Broyden mixing:
  rms(total) = 0.38616E-02    rms(broyden)= 0.38615E-02
  rms(prec ) = 0.44808E-02
  weight for this iteration     100.00

 eigenvalues of (default mixing * dielectric matrix)
  average eigenvalue GAMMA=   1.7555
  9.2899  2.8348  2.2872  1.4523  1.4523  0.2394  0.9597  0.9597  0.7499  0.7499
  0.5762  0.6354  0.6354

 Free energy of the ion-electron system (eV)
  ---------------------------------------------------
  alpha Z        PSCENC =        33.62852870
  Ewald energy   TEWEN  =      5985.89955237
  -Hartree energ DENC   =     -8016.40583166
  -exchange      EXHF   =         0.00000000
  -V(xc)+E(xc)   XCENC  =       -61.88140859
  PAW double counting   =      1202.50448534    -1044.90879594
  entropy T*S    EENTRO =         0.00000000
  eigenvalues    EBANDS =      -462.48468579
  atomic energy  EATOM  =      2318.27820089
  Solvation  Ediel_sol  =         0.00000000
  ---------------------------------------------------
  free energy    TOTEN  =       -45.36995468 eV

  energy without entropy =      -45.36995468  energy(sigma->0) =      -45.36995468


--------------------------------------------------------------------------------------------------------




--------------------------------------- Iteration      1(  19)  ---------------------------------------


    POTLOK:  cpu time   37.6720: real time   58.7148
    SETDIJ:  cpu time    0.0840: real time    0.0806
     EDDAV:  cpu time   20.4440: real time   31.4101
 BZINTS: Fermi energy: -4.053541; 56.000000 electrons
         Band energy:-462.434628;  BLOECHL correction:  0.000000
       DOS:  cpu time    0.0160: real time    0.0387
    CHARGE:  cpu time    1.4920: real time    2.2795
    MIXING:  cpu time    0.0960: real time    0.0931
    --------------------------------------------
      LOOP:  cpu time   59.8040: real time   92.6168

 eigenvalue-minimisations  :  1008
 total energy-change (2. order) :-0.7541545E-03  (-0.2382189E-04)
 number of electron      55.9999995 magnetization       6.0024901
 augmentation part       -2.7903809 magnetization       4.5964742

 Broyden mixing:
  rms(total) = 0.18486E-02    rms(broyden)= 0.18486E-02
  rms(prec ) = 0.27708E-02
  weight for this iteration     100.00

 eigenvalues of (default mixing * dielectric matrix)
  average eigenvalue GAMMA=   1.7333
  9.3039  3.0564  2.4241  1.5506  1.5506  0.2394  1.0103  1.0103  0.7934  0.7934
  0.6728  0.6728  0.5769  0.6109

 Free energy of the ion-electron system (eV)
  ---------------------------------------------------
  alpha Z        PSCENC =        33.62852870
  Ewald energy   TEWEN  =      5985.89955237
  -Hartree energ DENC   =     -8016.44282883
  -exchange      EXHF   =         0.00000000
  -V(xc)+E(xc)   XCENC  =       -61.89439384
  PAW double counting   =      1202.54382757    -1044.94896741
  entropy T*S    EENTRO =         0.00000000
  eigenvalues    EBANDS =      -462.43462829
  atomic energy  EATOM  =      2318.27820089
  Solvation  Ediel_sol  =         0.00000000
  ---------------------------------------------------
  free energy    TOTEN  =       -45.37070883 eV

  energy without entropy =      -45.37070883  energy(sigma->0) =      -45.37070883


--------------------------------------------------------------------------------------------------------




--------------------------------------- Iteration      1(  20)  ---------------------------------------


    POTLOK:  cpu time   38.4400: real time   58.1509
    SETDIJ:  cpu time    0.0360: real time    0.0764
     EDDAV:  cpu time   17.4600: real time   27.7882
 BZINTS: Fermi energy: -4.055841; 56.000000 electrons
         Band energy:-462.358078;  BLOECHL correction:  0.000000
       DOS:  cpu time    0.0040: real time    0.0018
    CHARGE:  cpu time    1.4360: real time    2.3116
    MIXING:  cpu time    0.0320: real time    0.0847
    --------------------------------------------
      LOOP:  cpu time   57.4080: real time   88.4136

 eigenvalue-minimisations  :   864
 total energy-change (2. order) :-0.5377621E-03  (-0.1328337E-04)
 number of electron      55.9999995 magnetization       5.9999925
 augmentation part       -2.7904767 magnetization       4.5931912

 Broyden mixing:
  rms(total) = 0.60546E-03    rms(broyden)= 0.60545E-03
  rms(prec ) = 0.20030E-02
  weight for this iteration     100.00

 eigenvalues of (default mixing * dielectric matrix)
  average eigenvalue GAMMA=   1.7153
  9.3126  3.2580  2.4836  1.6267  1.6267  0.2394  1.0245  1.0245  0.9863  0.8088
  0.8088  0.5770  0.6132  0.6816  0.6582

 Free energy of the ion-electron system (eV)
  ---------------------------------------------------
  alpha Z        PSCENC =        33.62852870
  Ewald energy   TEWEN  =      5985.89955237
  -Hartree energ DENC   =     -8016.51244631
  -exchange      EXHF   =         0.00000000
  -V(xc)+E(xc)   XCENC  =       -61.90312208
  PAW double counting   =      1202.58108227    -1044.98496424
  entropy T*S    EENTRO =         0.00000000
  eigenvalues    EBANDS =      -462.35807820
  atomic energy  EATOM  =      2318.27820089
  Solvation  Ediel_sol  =         0.00000000
  ---------------------------------------------------
  free energy    TOTEN  =       -45.37124660 eV

  energy without entropy =      -45.37124660  energy(sigma->0) =      -45.37124660


--------------------------------------------------------------------------------------------------------




--------------------------------------- Iteration      1(  21)  ---------------------------------------


    POTLOK:  cpu time   38.8080: real time   58.6524
    SETDIJ:  cpu time    0.0760: real time    0.0912
     EDDAV:  cpu time   19.0880: real time   28.9390
 BZINTS: Fermi energy: -4.052856; 56.000000 electrons
         Band energy:-462.217220;  BLOECHL correction:  0.000000
       DOS:  cpu time    0.0160: real time    0.0172
    CHARGE:  cpu time    1.3800: real time    2.1923
    MIXING:  cpu time    0.0760: real time    0.0746
    --------------------------------------------
      LOOP:  cpu time   59.4440: real time   89.9666

 eigenvalue-minimisations  :   888
 total energy-change (2. order) :-0.3581414E-03  (-0.1467024E-04)
 number of electron      55.9999995 magnetization       5.9992570
 augmentation part       -2.7900779 magnetization       4.5921791

 Broyden mixing:
  rms(total) = 0.94658E-03    rms(broyden)= 0.94658E-03
  rms(prec ) = 0.19750E-02
  weight for this iteration     100.00

 eigenvalues of (default mixing * dielectric matrix)
  average eigenvalue GAMMA=   1.7192
  9.3145  3.3930  2.5721  1.8901  1.5697  1.5697  0.2394  1.0306  1.0306  0.8280
  0.8280  0.7107  0.7107  0.5760  0.6223  0.6223

 Free energy of the ion-electron system (eV)
  ---------------------------------------------------
  alpha Z        PSCENC =        33.62852870
  Ewald energy   TEWEN  =      5985.89955237
  -Hartree energ DENC   =     -8016.64948721
  -exchange      EXHF   =         0.00000000
  -V(xc)+E(xc)   XCENC  =       -61.90773074
  PAW double counting   =      1202.60933464    -1045.01278368
  entropy T*S    EENTRO =         0.00000000
  eigenvalues    EBANDS =      -462.21721971
  atomic energy  EATOM  =      2318.27820089
  Solvation  Ediel_sol  =         0.00000000
  ---------------------------------------------------
  free energy    TOTEN  =       -45.37160474 eV

  energy without entropy =      -45.37160474  energy(sigma->0) =      -45.37160474


--------------------------------------------------------------------------------------------------------




--------------------------------------- Iteration      1(  22)  ---------------------------------------


    POTLOK:  cpu time   38.6840: real time   59.6107
    SETDIJ:  cpu time    0.0800: real time    0.0819
     EDDAV:  cpu time   21.7080: real time   31.1482
 BZINTS: Fermi energy: -4.054675; 56.000000 electrons
         Band energy:-461.989519;  BLOECHL correction:  0.000000
       DOS:  cpu time    0.0040: real time    0.0219
    CHARGE:  cpu time    1.4920: real time    2.1875
    MIXING:  cpu time    0.0320: real time    0.0676
    --------------------------------------------
      LOOP:  cpu time   62.0000: real time   93.1178

 eigenvalue-minimisations  :   984
 total energy-change (2. order) :-0.2556846E-03  (-0.1058382E-04)
 number of electron      55.9999995 magnetization       5.9986211
 augmentation part       -2.7899838 magnetization       4.5917507

 Broyden mixing:
  rms(total) = 0.66291E-03    rms(broyden)= 0.66291E-03
  rms(prec ) = 0.16293E-02
  weight for this iteration     100.00

 eigenvalues of (default mixing * dielectric matrix)
  average eigenvalue GAMMA=   1.7231
  9.3133  3.5042  2.7266  2.3192  1.6225  1.6225  0.2394  1.0741  1.0741  0.8550
  0.8550  0.8101  0.5764  0.7207  0.7207  0.6294  0.6294

 Free energy of the ion-electron system (eV)
  ---------------------------------------------------
  alpha Z        PSCENC =        33.62852870
  Ewald energy   TEWEN  =      5985.89955237
  -Hartree energ DENC   =     -8016.87971680
  -exchange      EXHF   =         0.00000000
  -V(xc)+E(xc)   XCENC  =       -61.90511101
  PAW double counting   =      1202.60405868    -1045.00785395
  entropy T*S    EENTRO =         0.00000000
  eigenvalues    EBANDS =      -461.98951931
  atomic energy  EATOM  =      2318.27820089
  Solvation  Ediel_sol  =         0.00000000
  ---------------------------------------------------
  free energy    TOTEN  =       -45.37186042 eV

  energy without entropy =      -45.37186042  energy(sigma->0) =      -45.37186042


--------------------------------------------------------------------------------------------------------




--------------------------------------- Iteration      1(  23)  ---------------------------------------


    POTLOK:  cpu time   38.5640: real time   58.9629
    SETDIJ:  cpu time    0.0560: real time    0.0987
     EDDAV:  cpu time   21.2000: real time   31.7584
 BZINTS: Fermi energy: -4.026432; 56.000000 electrons
         Band energy:-461.612012;  BLOECHL correction:  0.000000
       DOS:  cpu time    0.0040: real time    0.0014
    --------------------------------------------
      LOOP:  cpu time   59.8240: real time   90.8214

 eigenvalue-minimisations  :  1008
 total energy-change (2. order) : 0.2104273E-04  (-0.1181930E-04)
 number of electron      55.9999995 magnetization       5.9986211
 augmentation part       -2.7899838 magnetization       4.5917507

 Free energy of the ion-electron system (eV)
  ---------------------------------------------------
  alpha Z        PSCENC =        33.62852870
  Ewald energy   TEWEN  =      5985.89955237
  -Hartree energ DENC   =     -8017.25928420
  -exchange      EXHF   =         0.00000000
  -V(xc)+E(xc)   XCENC  =       -61.90313339
  PAW double counting   =      1202.57637554    -1044.98006707
  entropy T*S    EENTRO =         0.00000000
  eigenvalues    EBANDS =      -461.61201222
  atomic energy  EATOM  =      2318.27820089
  Solvation  Ediel_sol  =         0.00000000
  ---------------------------------------------------
  free energy    TOTEN  =       -45.37183938 eV

  energy without entropy =      -45.37183938  energy(sigma->0) =      -45.37183938


--------------------------------------------------------------------------------------------------------




 average (electrostatic) potential at core
  the test charge radii are     1.1394  1.1631  1.0808
  (the norm of the test charge is              1.0000)
       1 -52.1919       2 -52.1919       3 -40.7430       4 -40.7430       5 -61.7248
       6 -61.7248       7 -61.7247       8 -61.7248       9 -61.7248      10 -61.7247



 E-fermi :  -4.0264     XC(G=0):  -3.2324     alpha+bet : -2.1509


 spin component 1

 k-point     1 :       0.0000    0.0000    0.0000
  band No.  band energies     occupation 
      1     -16.5504      1.00000
      2     -16.0272      1.00000
      3     -15.4955      1.00000
      4     -15.4954      1.00000
      5     -15.4538      1.00000
      6     -15.4538      1.00000
      7     -12.4815      1.00000
      8     -10.1753      1.00000
      9      -7.4748      1.00000
     10      -7.4748      1.00000
     11      -7.3706      1.00000
     12      -7.3062      1.00000
     13      -7.0097      1.00000
     14      -7.0097      1.00000
     15      -6.2059      1.00000
     16      -5.8282      1.00000
     17      -5.8282      1.00000
     18      -5.5991      1.00000
     19      -5.5991      1.00000
     20      -5.3340      1.00000
     21      -4.9728      1.00000
     22      -4.9728      1.00000
     23      -4.8098      1.00000
     24      -4.6391      1.00000
     25      -4.6391      1.00000
[...]
     34      -0.4306      0.00000
     35      -0.4276      0.00000
     36      -0.3133      0.00000
     37       0.1538      0.00000
     38       0.6492      0.00000
     39       0.7884      0.00000
     40       1.5790      0.00000
     41       1.6833      0.00000
     42       2.0559      0.00000
     43       2.1307      0.00000
     44       2.2078      0.00000
     45       2.5805      0.00000
     46       2.8970      0.00000
     47       3.3448      0.00000
     48       3.3635      0.00000

 k-point     5 :      -0.4000    0.2000    0.0000
  band No.  band energies     occupation 
      1     -16.4568      1.00000
      2     -16.1758      1.00000
      3     -15.9398      1.00000
      4     -15.8547      1.00000
      5     -15.7516      1.00000
      6     -15.5998      1.00000
      7     -11.8053      1.00000
      8     -10.0529      1.00000
      9      -7.6019      1.00000
     10      -7.2632      1.00000
     11      -7.0465      1.00000
     12      -6.7401      1.00000
     13      -6.5169      1.00000
     14      -6.1965      1.00000
     15      -5.8194      1.00000
     16      -5.5791      1.00000
     17      -5.4783      1.00000
     18      -5.3790      1.00000
     19      -5.2535      1.00000
     20      -5.1684      1.00000
     21      -4.8750      1.00000
     22      -4.5224      1.00000
     23      -4.3876      1.00000
     24      -4.1721      1.00000
     25      -3.9970      1.00000
     26      -2.5912      0.00000
     27      -1.8123      0.00000
     28      -1.6805      0.00000
     29      -1.6277      0.00000
     30      -1.1274      0.00000
     31      -1.0179      0.00000
     32      -0.9815      0.00000
     33      -0.6788      0.00000
     34      -0.6538      0.00000
     35      -0.3439      0.00000
     36      -0.2643      0.00000
     37       0.2835      0.00000
     38       0.4045      0.00000
     39       0.7077      0.00000
     40       1.5666      0.00000
     41       1.6223      0.00000
     42       1.6290      0.00000
     43       2.5304      0.00000
     44       2.6847      0.00000
     45       2.7407      0.00000
     46       2.8375      0.00000
     47       3.1388      0.00000
     48       3.3212      0.00000


--------------------------------------------------------------------------------------------------------


 soft charge-density along one line, spin component           1
         0         1         2         3         4         5         6         7         8         9
 total charge-density along one line

 soft charge-density along one line, spin component           2
         0         1         2         3         4         5         6         7         8         9
 total charge-density along one line

 pseudopotential strength for first ion, spin component:           1
 -9.060   0.098  -0.000  -0.000  -0.000   0.757  -0.026   0.000
  0.098  -8.983   0.000  -0.000  -0.000  -0.026   0.737  -0.000
 -0.000   0.000  -9.144   0.000   0.000   0.000  -0.000   0.781
 -0.000  -0.000   0.000  -8.983  -0.098   0.000   0.000  -0.000
 -0.000  -0.000   0.000  -0.098  -9.060   0.000   0.000  -0.000
  0.757  -0.026   0.000   0.000   0.000   0.343   0.007  -0.000
 -0.026   0.737  -0.000   0.000   0.000   0.007   0.348   0.000
  0.000  -0.000   0.781  -0.000  -0.000  -0.000   0.000   0.338
  0.000   0.000  -0.000   0.737   0.026  -0.000  -0.000   0.000
  0.000   0.000  -0.000   0.026   0.757  -0.000  -0.000   0.000
 -0.000  -0.000   0.001  -0.000   0.000  -0.000   0.000  -0.000
  0.000   0.000  -0.000   0.000  -0.000  -0.000  -0.000   0.000
 -0.000  -0.000   0.000  -0.000   0.001   0.000   0.000  -0.000
 -0.000  -0.000  -0.000  -0.000  -0.000   0.000   0.000   0.000
  0.001  -0.000   0.000  -0.000   0.000  -0.000   0.000  -0.000
  0.000   0.000  -0.000   0.000  -0.001  -0.000  -0.000   0.000
  0.000   0.000   0.000   0.000   0.000  -0.000  -0.000  -0.000
 -0.001   0.000  -0.000   0.000  -0.000   0.000  -0.000   0.000
 pseudopotential strength for first ion, spin component:           2
 -7.402  -0.182  -0.000   0.000  -0.000   0.289   0.048   0.000
 -0.182  -7.591   0.000   0.000   0.000   0.048   0.338  -0.000
 -0.000   0.000  -7.289   0.000   0.000   0.000  -0.000   0.260
  0.000   0.000   0.000  -7.591   0.182  -0.000  -0.000  -0.000
 -0.000   0.000   0.000   0.182  -7.402   0.000  -0.000  -0.000
  0.289   0.048   0.000  -0.000   0.000   0.472  -0.012  -0.000
  0.048   0.338  -0.000  -0.000  -0.000  -0.012   0.459   0.000
  0.000  -0.000   0.260  -0.000  -0.000  -0.000   0.000   0.479
 -0.000  -0.000  -0.000   0.338  -0.048   0.000   0.000   0.000
  0.000  -0.000  -0.000  -0.048   0.289  -0.000   0.000   0.000
 -0.000  -0.000   0.008  -0.000   0.000  -0.000   0.000  -0.001
  0.000   0.000  -0.001   0.000  -0.000  -0.000  -0.000   0.000
  0.000  -0.000   0.000  -0.000   0.000  -0.000   0.000  -0.000
 -0.000  -0.000  -0.000  -0.000   0.000   0.000   0.000   0.000
  0.000  -0.000   0.000  -0.000  -0.000   0.000   0.000  -0.000
  0.000   0.000  -0.000   0.000  -0.001  -0.000  -0.000   0.000
  0.000   0.000   0.000   0.000  -0.000  -0.000  -0.000  -0.000
 -0.001   0.000  -0.000   0.000  -0.000  -0.000  -0.000   0.000
 total augmentation occupancy for first ion, spin component:           1
  0.976  -0.060   0.000   0.000  -0.000   0.015   0.226  -0.000  -0.000  -0.000  -0.000  -0.000  -0.000   0.000   0.008   0.000
 -0.060   0.906  -0.000  -0.000   0.000   0.225   0.248   0.000  -0.000  -0.000   0.000   0.000  -0.000   0.000   0.003  -0.000
  0.000  -0.000   1.039  -0.000  -0.000  -0.000   0.000  -0.135   0.000   0.000  -0.007  -0.017  -0.000   0.000   0.000   0.000
  0.000  -0.000  -0.000   0.906   0.060  -0.000   0.000   0.000   0.248  -0.225  -0.000  -0.000  -0.003   0.000  -0.000  -0.000
 -0.000   0.000  -0.000   0.060   0.976   0.000  -0.000   0.000  -0.226   0.015   0.000   0.000   0.008  -0.000   0.000  -0.000
  0.015   0.225  -0.000  -0.000   0.000   0.164   0.063   0.000  -0.000  -0.000   0.000  -0.000  -0.000   0.000   0.025   0.000
  0.226   0.248   0.000   0.000  -0.000   0.063   0.239   0.000  -0.000  -0.000  -0.000  -0.000  -0.000   0.000  -0.005   0.000
 -0.000   0.000  -0.135   0.000   0.000   0.000   0.000   0.170   0.000  -0.000   0.061  -0.011  -0.000   0.000   0.000   0.000
 -0.000  -0.000   0.000   0.248  -0.226  -0.000  -0.000   0.000   0.239  -0.063   0.000   0.000   0.005   0.000  -0.000  -0.000
 -0.000  -0.000   0.000  -0.225   0.015  -0.000  -0.000  -0.000  -0.063   0.164  -0.000   0.000   0.025  -0.000   0.000  -0.001
 -0.000   0.000  -0.007  -0.000   0.000   0.000   0.000   0.061   0.000  -0.000   1.048  -0.155   0.000  -0.000  -0.000   0.000
 -0.000   0.000  -0.017   0.000   0.000  -0.000  -0.000  -0.011  -0.000   0.000  -0.155   0.060  -0.000   0.000  -0.000   0.000
 -0.000  -0.000  -0.000  -0.003   0.008  -0.000  -0.000  -0.000   0.005   0.025   0.000   0.000   0.211  -0.000  -0.000  -0.002
  0.000   0.000   0.000  -0.000  -0.000   0.000   0.000   0.000  -0.000  -0.000  -0.000   0.000  -0.000   0.231   0.000   0.000
  0.008   0.003   0.000  -0.000   0.000   0.025  -0.005   0.000  -0.000   0.000  -0.000  -0.000  -0.000   0.000   0.211   0.000
  0.000  -0.000   0.000  -0.000  -0.000   0.000   0.000   0.000  -0.000  -0.001   0.000   0.000  -0.002   0.000   0.000   0.000
 -0.000  -0.000  -0.000   0.000   0.000  -0.000   0.000  -0.000   0.000   0.000   0.000  -0.000   0.000  -0.003   0.000  -0.000
 -0.000   0.000  -0.000  -0.000  -0.000  -0.001   0.000  -0.000   0.000  -0.000  -0.000  -0.000  -0.000   0.000  -0.002  -0.000
 total augmentation occupancy for first ion, spin component:           2
  0.721  -0.303   0.000   0.000  -0.000  -0.172   0.067  -0.000  -0.000  -0.000  -0.000  -0.000   0.000  -0.000  -0.006   0.000
 -0.303   0.426  -0.000  -0.000   0.000   0.063  -0.099   0.000  -0.000  -0.000  -0.000   0.000  -0.000   0.000   0.007  -0.000
  0.000  -0.000   0.912  -0.000  -0.000  -0.000   0.000  -0.249   0.000   0.000  -0.037  -0.007   0.000  -0.000  -0.000  -0.000
  0.000  -0.000  -0.000   0.426   0.303  -0.000   0.000   0.000  -0.099  -0.063   0.000   0.000  -0.007  -0.000  -0.000   0.000
 -0.000   0.000  -0.000   0.303   0.721   0.000  -0.000   0.000  -0.067  -0.172   0.000   0.000  -0.006   0.000  -0.000   0.001
 -0.172   0.063  -0.000  -0.000   0.000   0.010  -0.057   0.000   0.000  -0.000   0.000   0.000   0.000   0.000  -0.000  -0.000
  0.067  -0.099   0.000   0.000  -0.000  -0.057  -0.046  -0.000   0.000   0.000  -0.000  -0.000   0.000  -0.000  -0.002  -0.000
 -0.000   0.000  -0.249   0.000   0.000   0.000  -0.000   0.065  -0.000  -0.000   0.015   0.006   0.000   0.000  -0.000  -0.000
 -0.000  -0.000   0.000  -0.099  -0.067   0.000   0.000  -0.000  -0.046   0.057   0.000   0.000   0.002   0.000   0.000  -0.000
 -0.000  -0.000   0.000  -0.063  -0.172  -0.000   0.000  -0.000   0.057   0.010  -0.000  -0.000  -0.000  -0.000  -0.000   0.000
 -0.000   0.000  -0.037   0.000   0.000   0.000   0.000   0.015  -0.000  -0.000   0.163   0.066   0.000  -0.000   0.000   0.000
 -0.000   0.000  -0.007  -0.000   0.000   0.000  -0.000   0.006   0.000  -0.000   0.066  -0.019   0.000  -0.000  -0.000  -0.000
  0.000  -0.000   0.000  -0.007  -0.006   0.000   0.000   0.000   0.002  -0.000   0.000   0.000   0.026  -0.000  -0.000   0.003
 -0.000   0.000  -0.000  -0.000   0.000   0.000  -0.000   0.000   0.000  -0.000  -0.000  -0.000  -0.000   0.022   0.000  -0.000
 -0.006   0.007  -0.000  -0.000  -0.000  -0.000  -0.002  -0.000   0.000  -0.000   0.000  -0.000  -0.000   0.000   0.026  -0.000
  0.000  -0.000  -0.000   0.000   0.001  -0.000  -0.000  -0.000  -0.000   0.000   0.000   0.000   0.003  -0.000  -0.000  -0.000
 -0.000   0.000  -0.000  -0.000   0.000   0.000  -0.000   0.000   0.000  -0.000  -0.000   0.000  -0.000   0.003   0.000   0.000
  0.001  -0.000   0.000  -0.000  -0.000   0.000   0.000   0.000  -0.000   0.000  -0.000  -0.000   0.000   0.000   0.003   0.000


------------------------ aborting loop because EDIFF is reached ----------------------------------------





 total charge     

# of ion       s       p       d       tot
------------------------------------------
    1        0.338   0.439   4.215   4.992
    2        0.338   0.439   4.215   4.992
    3        1.153   1.142   0.101   2.395
    4        1.153   1.142   0.101   2.395
    5        1.482   2.311   0.034   3.827
    6        1.478   2.313   0.033   3.824
    7        1.481   2.309   0.034   3.824
    8        1.482   2.311   0.034   3.827
    9        1.478   2.313   0.033   3.824
   10        1.481   2.309   0.034   3.824
--------------------------------------------------
tot         11.866  17.027   8.834  37.726



 magnetization (x)

# of ion       s       p       d       tot
------------------------------------------
    1        0.037   0.042   2.973   3.052
    2        0.037   0.042   2.973   3.052
    3        0.004   0.046  -0.002   0.048
    4        0.004   0.046  -0.002   0.048
    5       -0.001  -0.088   0.005  -0.083
    6       -0.002  -0.073   0.006  -0.069
    7       -0.001  -0.083   0.006  -0.078
    8       -0.001  -0.088   0.005  -0.083
    9       -0.002  -0.073   0.006  -0.069
   10       -0.001  -0.083   0.006  -0.078
--------------------------------------------------
tot          0.076  -0.311   5.976   5.741

    CHARGE:  cpu time    1.5400: real time    2.2033
    FORLOC:  cpu time    0.0320: real time    0.0913
    FORNL :  cpu time    4.8320: real time    7.0007
    STRESS:  cpu time   13.9720: real time   21.0245
    FORCOR:  cpu time   39.7360: real time   59.7556
    FORHAR:  cpu time    0.1400: real time    0.2745
    MIXING:  cpu time    0.0240: real time    0.0493
    OFIELD:  cpu time    0.0000: real time    0.0000

  FORCE on cell =-STRESS in cart. coord.  units (eV):
  Direction    XX          YY          ZZ          XY          YZ          ZX
  --------------------------------------------------------------------------------------
  Alpha Z    40.37885    40.37885    40.37885
  Ewald    8748.16997  8748.16795-10293.58557    -0.00115    -0.00038    -0.00069
  Hartree  9085.55985  9085.56024 -8916.51005    -0.00007     0.00004     0.00007
  E(xc)    -217.44874  -217.44875  -217.19818     0.00003     0.00001     0.00001
  Local  -18535.36481-18535.36435 18480.48115     0.00086     0.00017     0.00032
  n-local   269.59317   271.04917   273.29922     0.71556     0.34585     0.28393
  augment    37.29768    37.29767    34.50028     0.00004    -0.00004     0.00006
  Kinetic   573.30985   568.41509   598.44743    -3.62529     0.95756     0.95958
  Fock        0.00000     0.00000     0.00000     0.00000     0.00000     0.00000
  -------------------------------------------------------------------------------------
  Total      -0.22415    -0.22415    -0.18687     0.00000    -0.00000    -0.00000
  in kB      -0.44508    -0.44508    -0.37107     0.00000    -0.00000    -0.00000
  external pressure =       -0.42 kB  Pullay stress =        0.00 kB


 VOLUME and BASIS-vectors are now :
 -----------------------------------------------------------------------------
  energy-cutoff  :      520.00
  volume of cell :      806.87
      direct lattice vectors                 reciprocal lattice vectors
     6.371556699 -0.000000051 -0.000000000     0.156947516 -0.090613686 -0.000000000
     3.185778009  5.517929657 -0.000000000     0.000000001  0.181227391  0.000000000
    -0.000000000 -0.000000000 22.949966644     0.000000000  0.000000000  0.043573048

  length of vectors
     6.371556699  6.371556264 22.949966644     0.181227379  0.181227391  0.043573048


 FORCES acting on ions
    electron-ion (+dipol)            ewald-force                    non-local-force                 convergence-correction
 -----------------------------------------------------------------------------------------------
   -.105E-03 -.682E-04 0.367E+00   0.344E-03 0.205E-03 -.369E+00   -.694E-17 0.347E-17 0.114E-01   -.115E-06 -.672E-07 -.829E-04
   0.105E-03 0.682E-04 -.367E+00   -.344E-03 -.205E-03 0.369E+00   0.347E-17 -.693E-17 -.114E-01   0.115E-06 0.672E-07 0.829E-04
   -.295E-04 -.217E-04 0.192E+03   -.170E-03 -.945E-04 -.188E+03   0.121E-16 0.983E-17 -.322E+01   0.255E-07 0.325E-08 -.303E-01
   0.295E-04 0.217E-04 -.192E+03   0.170E-03 0.945E-04 0.188E+03   0.694E-17 -.983E-17 0.322E+01   -.255E-07 -.325E-08 0.303E-01
   -.673E+01 -.472E-01 -.405E+03   0.459E+01 0.503E-01 0.408E+03   0.217E+01 -.240E-02 -.227E+01   0.488E-02 -.183E-04 0.674E-01
   0.333E+01 0.585E+01 -.405E+03   -.225E+01 -.400E+01 0.408E+03   -.109E+01 -.187E+01 -.227E+01   -.245E-02 -.421E-02 0.674E-01
   0.341E+01 -.581E+01 -.405E+03   -.234E+01 0.395E+01 0.408E+03   -.108E+01 0.188E+01 -.227E+01   -.242E-02 0.423E-02 0.674E-01
   0.673E+01 0.472E-01 0.405E+03   -.459E+01 -.503E-01 -.408E+03   -.217E+01 0.240E-02 0.227E+01   -.488E-02 0.183E-04 -.674E-01
   -.333E+01 -.585E+01 0.405E+03   0.225E+01 0.400E+01 -.408E+03   0.109E+01 0.187E+01 0.227E+01   0.245E-02 0.421E-02 -.674E-01
   -.341E+01 0.581E+01 0.405E+03   0.234E+01 -.395E+01 -.408E+03   0.108E+01 -.188E+01 0.227E+01   0.242E-02 -.423E-02 -.674E-01
 -----------------------------------------------------------------------------------------------
   -.175E-10 0.148E-09 0.187E-09   -.355E-14 0.444E-14 0.000E+00   0.666E-15 0.000E+00 -.444E-15   -.104E-12 -.135E-12 0.569E-11


 POSITION                                       TOTAL-FORCE (eV/Angst)
 -----------------------------------------------------------------------------------
      3.18578      1.83931     11.47326         0.000000     -0.000000      0.009185
      6.37156      3.67862     11.47670         0.000000      0.000000     -0.009185
     -0.00000     -0.00000     10.28654         0.000000      0.000000     -0.092919
     -0.00000     -0.00000     12.66342         0.000000     -0.000000      0.092919
      3.98318      0.00057     13.11611         0.028875      0.001410     -0.059276
      1.19468      2.06811     13.11611        -0.013216     -0.025712     -0.059276
      4.37948      3.44925     13.11611        -0.015659      0.024302     -0.059276
      5.57415      5.51736      9.83386        -0.028875     -0.001410      0.059276
      8.36265      3.44981      9.83386         0.013216      0.025712      0.059276
      5.17785      2.06868      9.83386         0.015659     -0.024302      0.059276
 -----------------------------------------------------------------------------------
    total drift:                               -0.000000      0.000000      0.000000


--------------------------------------------------------------------------------------------------------



  FREE ENERGIE OF THE ION-ELECTRON SYSTEM (eV)
  ---------------------------------------------------
  free  energy   TOTEN  =       -47.36396687 eV

  energy  without entropy=      -47.36396687  energy(sigma->0) =      -47.36396687

 d Force = 0.1615828E-02[ 0.163E-02, 0.160E-02]  d Energy = 0.5182510E-03 0.110E-02
 d Force =-0.1194803E+02[-0.119E+02,-0.120E+02]  d Ewald  =-0.1659995E+02 0.465E+01


--------------------------------------------------------------------------------------------------------


    POTLOK:  cpu time   39.8520: real time   59.4474


--------------------------------------------------------------------------------------------------------




--------------------------------------------------------------------------------------------------------


  
 reached required accuracy - stopping structural energy minimisation
     LOOP+:  cpu time  423.6800: real time  633.7545
    4ORBIT:  cpu time    0.0000: real time    0.0000



 total charge     

# of ion       s       p       d       tot
------------------------------------------
    1        0.338   0.439   4.215   4.992
    2        0.338   0.439   4.215   4.992
    3        1.153   1.142   0.101   2.395
    4        1.153   1.142   0.101   2.395
    5        1.482   2.311   0.034   3.827
    6        1.478   2.313   0.033   3.824
    7        1.481   2.309   0.034   3.824
    8        1.482   2.311   0.034   3.827
    9        1.478   2.313   0.033   3.824
   10        1.481   2.309   0.034   3.824
--------------------------------------------------
tot         11.866  17.027   8.834  37.726



 magnetization (x)

# of ion       s       p       d       tot
------------------------------------------
    1        0.037   0.042   2.973   3.052
    2        0.037   0.042   2.973   3.052
    3        0.004   0.046  -0.002   0.048
    4        0.004   0.046  -0.002   0.048
    5       -0.001  -0.088   0.005  -0.083
    6       -0.002  -0.073   0.006  -0.069
    7       -0.001  -0.083   0.006  -0.078
    8       -0.001  -0.088   0.005  -0.083
    9       -0.002  -0.073   0.006  -0.069
   10       -0.001  -0.083   0.006  -0.078
--------------------------------------------------
tot          0.076  -0.311   5.976   5.741

 BZINTS: Fermi energy: -3.354571; 56.000000 electrons
         Band energy:-455.263089;  BLOECHL correction:  0.000000

 total amount of memory used by VASP MPI-rank0   116150. kBytes
=======================================================================

   base      :      30000. kBytes
   nonlr-proj:       9604. kBytes
   fftplans  :       8558. kBytes
   grid      :      59268. kBytes
   one-center:        311. kBytes
   wavefun   :       8409. kBytes

  
  
 General timing and accounting informations for this job:
 ========================================================
  
                  Total CPU time used (sec):     5401.740
                            User time (sec):     4907.164
                          System time (sec):      494.576
                         Elapsed time (sec):     8130.980
  
                   Maximum memory used (kb):      325976.
                   Average memory used (kb):           0.
  
                          Minor page faults:      4500845
                          Major page faults:            8
                 Voluntary context switches:         1235
