PROCAR lm decomposed
# of k-points:    5         # of bands:   48         # of ions:   10

 k-point     1 :    0.00000000 0.00000000 0.00000000     weight = 0.04000000

band     1 # energy  -17.12175142 # occ.  1.00000000

ion      s     py     pz     px    dxy    dyz    dz2    dxz  x2-y2    tot
    1  0.016  0.000  0.000  0.000  0.000  0.000  0.000  0.000  0.000  0.016
    2  0.016  0.000  0.000  0.000  0.000  0.000  0.000  0.000  0.000  0.016
    3  0.057  0.000  0.000  0.000  0.000  0.000  0.000  0.000  0.000  0.057
    4  0.057  0.000  0.000  0.000  0.000  0.000  0.000  0.000  0.000  0.057
    5  0.089  0.000  0.001  0.000  0.000  0.000  0.000  0.000  0.000  0.090
    6  0.089  0.000  0.001  0.000  0.000  0.000  0.000  0.000  0.000  0.090
    7  0.089  0.000  0.001  0.000  0.000  0.000  0.000  0.000  0.000  0.090
    8  0.089  0.000  0.001  0.000  0.000  0.000  0.000  0.000  0.000  0.090
    9  0.089  0.000  0.001  0.000  0.000  0.000  0.000  0.000  0.000  0.090
   10  0.089  0.000  0.001  0.000  0.000  0.000  0.000  0.000  0.000  0.090
tot    0.678  0.001  0.005  0.001  0.000  0.000  0.000  0.000  0.000  0.687

band     2 # energy  -16.34711898 # occ.  1.00000000

ion      s     py     pz     px    dxy    dyz    dz2    dxz  x2-y2    tot
    1  0.000  0.000  0.008  0.000  0.000  0.000  0.000  0.000  0.000  0.008
    2  0.000  0.000  0.008  0.000  0.000  0.000  0.000  0.000  0.000  0.008
    3  0.033  0.000  0.002  0.000  0.000  0.000  0.001  0.000  0.000  0.036
    4  0.033  0.000  0.002  0.000  0.000  0.000  0.001  0.000  0.000  0.036
    5  0.105  0.000  0.000  0.000  0.000  0.000  0.000  0.000  0.000  0.105
    6  0.105  0.000  0.000  0.000  0.000  0.000  0.000  0.000  0.000  0.105
    7  0.105  0.000  0.000  0.000  0.000  0.000  0.000  0.000  0.000  0.105
    8  0.105  0.000  0.000  0.000  0.000  0.000  0.000  0.000  0.000  0.105
    9  0.105  0.000  0.000  0.000  0.000  0.000  0.000  0.000  0.000  0.105
   10  0.105  0.000  0.000  0.000  0.000  0.000  0.000  0.000  0.000  0.105
tot    0.695  0.001  0.020  0.001  0.000  0.000  0.002  0.000  0.000  0.720

band     3 # energy  -15.37284399 # occ.  1.00000000

ion      s     py     pz     px    dxy    dyz    dz2    dxz  x2-y2    tot
    1  0.000  0.007  0.000  0.000  0.000  0.000  0.000  0.001  0.002  0.010
    2  0.000  0.007  0.000  0.000  0.000  0.000  0.000  0.001  0.002  0.010
    3  0.000  0.000  0.000  0.007  0.000  0.000  0.000  0.000  0.001  0.009
    4  0.000  0.000  0.000  0.007  0.000  0.000  0.000  0.000  0.001  0.009
    5  0.228  0.000  0.001  0.000  0.000  0.000  0.000  0.000  0.000  0.230
    6  0.117  0.000  0.000  0.000  0.000  0.000  0.000  0.000  0.000  0.118
    7  0.018  0.000  0.000  0.000  0.000  0.000  0.000  0.000  0.000  0.019
    8  0.228  0.000  0.001  0.000  0.000  0.000  0.000  0.000  0.000  0.230
    9  0.117  0.000  0.000  0.000  0.000  0.000  0.000  0.000  0.000  0.118
   10  0.018  0.000  0.000  0.000  0.000  0.000  0.000  0.000  0.000  0.019
tot    0.727  0.015  0.003  0.016  0.000  0.000  0.000  0.003  0.006  0.770

band     4 # energy  -15.37281344 # occ.  1.00000000

ion      s     py     pz     px    dxy    dyz    dz2    dxz  x2-y2    tot
    1  0.000  0.000  0.000  0.007  0.002  0.001  0.000  0.000  0.000  0.010
    2  0.000  0.000  0.000  0.007  0.002  0.001  0.000  0.000  0.000  0.010
    3  0.000  0.007  0.000  0.000  0.001  0.000  0.000  0.000  0.000  0.009
    4  0.000  0.007  0.000  0.000  0.001  0.000  0.000  0.000  0.000  0.009
    5  0.014  0.000  0.000  0.000  0.000  0.000  0.000  0.000  0.000  0.014
    6  0.126  0.000  0.000  0.000  0.000  0.000  0.000  0.000  0.000  0.126
    7  0.224  0.000  0.001  0.000  0.000  0.000  0.000  0.000  0.000  0.225
    8  0.014  0.000  0.000  0.000  0.000  0.000  0.000  0.000  0.000  0.014
    9  0.126  0.000  0.000  0.000  0.000  0.000  0.000  0.000  0.000  0.126
   10  0.224  0.000  0.001  0.000  0.000  0.000  0.000  0.000  0.000  0.225
tot    0.727  0.016  0.003  0.015  0.006  0.003  0.000  0.000  0.000  0.770

band     5 # energy  -15.34618754 # occ.  1.00000000

ion      s     py     pz     px    dxy    dyz    dz2    dxz  x2-y2    tot
    1  0.000  0.000  0.000  0.001  0.002  0.007  0.000  0.000  0.000  0.011
    2  0.000  0.000  0.000  0.001  0.002  0.007  0.000  0.000  0.000  0.011
    3  0.000  0.000  0.000  0.010  0.000  0.000  0.000  0.000  0.001  0.012
    4  0.000  0.000  0.000  0.010  0.000  0.000  0.000  0.000  0.001  0.012
    5  0.236  0.000  0.001  0.001  0.000  0.000  0.000  0.000  0.000  0.238
    6  0.091  0.000  0.000  0.000  0.000  0.000  0.000  0.000  0.000  0.091
    7  0.034  0.000  0.000  0.000  0.000  0.000  0.000  0.000  0.000  0.034
    8  0.236  0.000  0.001  0.001  0.000  0.000  0.000  0.000  0.000  0.238
    9  0.091  0.000  0.000  0.000  0.000  0.000  0.000  0.000  0.000  0.091
   10  0.034  0.000  0.000  0.000  0.000  0.000  0.000  0.000  0.000  0.034
tot    0.721  0.001  0.002  0.026  0.004  0.014  0.000  0.000  0.002  0.772

band     6 # energy  -15.34615251 # occ.  1.00000000

ion      s     py     pz     px    dxy    dyz    dz2    dxz  x2-y2    tot
    1  0.000  0.001  0.000  0.000  0.000  0.000  0.000  0.007  0.002  0.011
    2  0.000  0.001  0.000  0.000  0.000  0.000  0.000  0.007  0.002  0.011
    3  0.000  0.010  0.000  0.000  0.001  0.000  0.000  0.000  0.000  0.012
    4  0.000  0.010  0.000  0.000  0.001  0.000  0.000  0.000  0.000  0.012
    5  0.005  0.000  0.000  0.000  0.000  0.000  0.000  0.000  0.000  0.005
    6  0.150  0.000  0.000  0.000  0.000  0.000  0.000  0.000  0.000  0.151
    7  0.206  0.001  0.001  0.000  0.000  0.000  0.000  0.000  0.000  0.208
    8  0.005  0.000  0.000  0.000  0.000  0.000  0.000  0.000  0.000  0.005
    9  0.150  0.000  0.000  0.000  0.000  0.000  0.000  0.000  0.000  0.151
   10  0.206  0.001  0.001  0.000  0.000  0.000  0.000  0.000  0.000  0.208
tot    0.721  0.026  0.002  0.001  0.002  0.000  0.000  0.014  0.004  0.772

band     7 # energy  -12.11951000 # occ.  1.00000000

ion      s     py     pz     px    dxy    dyz    dz2    dxz  x2-y2    tot
    1  0.009  0.000  0.000  0.000  0.000  0.000  0.001  0.000  0.000  0.010
    2  0.009  0.000  0.000  0.000  0.000  0.000  0.001  0.000  0.000  0.010
    3  0.240  0.000  0.013  0.000  0.000  0.000  0.001  0.000  0.000  0.254
    4  0.240  0.000  0.013  0.000  0.000  0.000  0.001  0.000  0.000  0.254
    5  0.020  0.000  0.000  0.011  0.000  0.000  0.000  0.000  0.001  0.032
    6  0.020  0.008  0.000  0.003  0.001  0.000  0.000  0.000  0.000  0.032
    7  0.020  0.008  0.000  0.003  0.001  0.000  0.000  0.000  0.000  0.032
    8  0.020  0.000  0.000  0.011  0.000  0.000  0.000  0.000  0.001  0.032
    9  0.020  0.008  0.000  0.003  0.001  0.000  0.000  0.000  0.000  0.032
   10  0.020  0.008  0.000  0.003  0.001  0.000  0.000  0.000  0.000  0.032
tot    0.615  0.033  0.026  0.033  0.002  0.001  0.005  0.001  0.002  0.718

band     8 # energy   -9.94212252 # occ.  1.00000000

ion      s     py     pz     px    dxy    dyz    dz2    dxz  x2-y2    tot
    1  0.000  0.000  0.007  0.000  0.000  0.000  0.000  0.000  0.000  0.007
    2  0.000  0.000  0.007  0.000  0.000  0.000  0.000  0.000  0.000  0.007
    3  0.225  0.000  0.011  0.000  0.000  0.000  0.001  0.000  0.000  0.238
    4  0.225  0.000  0.011  0.000  0.000  0.000  0.001  0.000  0.000  0.238
    5  0.012  0.000  0.000  0.023  0.000  0.000  0.000  0.000  0.001  0.037
    6  0.012  0.018  0.000  0.006  0.001  0.000  0.000  0.000  0.000  0.037
    7  0.012  0.018  0.000  0.006  0.001  0.000  0.000  0.000  0.000  0.037
    8  0.012  0.000  0.000  0.023  0.000  0.000  0.000  0.000  0.001  0.037
    9  0.012  0.018  0.000  0.006  0.001  0.000  0.000  0.000  0.000  0.037
   10  0.012  0.018  0.000  0.006  0.001  0.000  0.000  0.000  0.000  0.037
tot    0.521  0.070  0.036  0.070  0.004  0.000  0.003  0.000  0.004  0.709

band     9 # energy   -7.91346303 # occ.  1.00000000

ion      s     py     pz     px    dxy    dyz    dz2    dxz  x2-y2    tot
    1  0.000  0.002  0.000  0.003  0.003  0.022  0.000  0.017  0.003  0.050
    2  0.000  0.002  0.000  0.003  0.003  0.022  0.000  0.017  0.003  0.050
    3  0.000  0.026  0.000  0.034  0.000  0.000  0.000  0.000  0.000  0.060
    4  0.000  0.026  0.000  0.034  0.000  0.000  0.000  0.000  0.000  0.060
    5  0.003  0.009  0.001  0.042  0.000  0.000  0.000  0.000  0.000  0.056
    6  0.005  0.061  0.002  0.008  0.000  0.000  0.000  0.000  0.000  0.077
    7  0.000  0.001  0.000  0.023  0.000  0.000  0.000  0.000  0.000  0.024
    8  0.003  0.009  0.001  0.042  0.000  0.000  0.000  0.000  0.000  0.056
    9  0.005  0.061  0.002  0.008  0.000  0.000  0.000  0.000  0.000  0.077
   10  0.000  0.001  0.000  0.023  0.000  0.000  0.000  0.000  0.000  0.024
tot    0.016  0.199  0.007  0.218  0.008  0.044  0.000  0.035  0.006  0.534

band    10 # energy   -7.91344367 # occ.  1.00000000

ion      s     py     pz     px    dxy    dyz    dz2    dxz  x2-y2    tot
    1  0.000  0.003  0.000  0.002  0.003  0.017  0.000  0.022  0.003  0.050
    2  0.000  0.003  0.000  0.002  0.003  0.017  0.000  0.022  0.003  0.050
    3  0.000  0.034  0.000  0.026  0.000  0.000  0.000  0.000  0.000  0.060
    4  0.000  0.034  0.000  0.026  0.000  0.000  0.000  0.000  0.000  0.060
    5  0.002  0.012  0.001  0.033  0.000  0.000  0.000  0.000  0.000  0.049
    6  0.001  0.000  0.000  0.027  0.000  0.000  0.000  0.000  0.000  0.028
    7  0.005  0.061  0.002  0.012  0.000  0.000  0.000  0.000  0.000  0.081
    8  0.002  0.012  0.001  0.033  0.000  0.000  0.000  0.000  0.000  0.049
    9  0.001  0.000  0.000  0.027  0.000  0.000  0.000  0.000  0.000  0.028
   10  0.005  0.061  0.002  0.012  0.000  0.000  0.000  0.000  0.000  0.081
tot    0.016  0.218  0.007  0.199  0.006  0.035  0.000  0.044  0.008  0.534

band    11 # energy   -7.74297137 # occ.  1.00000000

ion      s     py     pz     px    dxy    dyz    dz2    dxz  x2-y2    tot
    1  0.050  0.000  0.000  0.000  0.000  0.000  0.018  0.000  0.000  0.068
    2  0.050  0.000  0.000  0.000  0.000  0.000  0.018  0.000  0.000  0.068
    3  0.001  0.000  0.043  0.000  0.000  0.000  0.000  0.000  0.000  0.045
    4  0.001  0.000  0.043  0.000  0.000  0.000  0.000  0.000  0.000  0.045
    5  0.003  0.000  0.039  0.006  0.000  0.000  0.000  0.000  0.000  0.049
    6  0.003  0.005  0.039  0.002  0.000  0.000  0.000  0.000  0.000  0.049
    7  0.003  0.005  0.039  0.002  0.000  0.000  0.000  0.000  0.000  0.049
    8  0.003  0.000  0.039  0.006  0.000  0.000  0.000  0.000  0.000  0.049
    9  0.003  0.005  0.039  0.002  0.000  0.000  0.000  0.000  0.000  0.049
   10  0.003  0.005  0.039  0.002  0.000  0.000  0.000  0.000  0.000  0.049
tot    0.123  0.019  0.319  0.019  0.001  0.000  0.039  0.000  0.001  0.521

band    12 # energy   -7.66944327 # occ.  1.00000000

ion      s     py     pz     px    dxy    dyz    dz2    dxz  x2-y2    tot
    1  0.078  0.000  0.000  0.000  0.000  0.000  0.029  0.000  0.000  0.107
    2  0.078  0.000  0.000  0.000  0.000  0.000  0.029  0.000  0.000  0.107
    3  0.000  0.000  0.000  0.000  0.000  0.000  0.000  0.000  0.000  0.000
    4  0.000  0.000  0.000  0.000  0.000  0.000  0.000  0.000  0.000  0.000
    5  0.000  0.058  0.000  0.000  0.000  0.000  0.000  0.000  0.000  0.058
    6  0.000  0.014  0.000  0.043  0.000  0.000  0.000  0.000  0.000  0.058
    7  0.000  0.014  0.000  0.043  0.000  0.000  0.000  0.000  0.000  0.058
    8  0.000  0.058  0.000  0.000  0.000  0.000  0.000  0.000  0.000  0.058
    9  0.000  0.014  0.000  0.043  0.000  0.000  0.000  0.000  0.000  0.058
   10  0.000  0.014  0.000  0.043  0.000  0.000  0.000  0.000  0.000  0.058
tot    0.156  0.173  0.000  0.173  0.001  0.001  0.059  0.001  0.001  0.566

band    13 # energy   -7.43502747 # occ.  1.00000000

ion      s     py     pz     px    dxy    dyz    dz2    dxz  x2-y2    tot
    1  0.000  0.016  0.000  0.002  0.002  0.002  0.000  0.016  0.012  0.050
    2  0.000  0.016  0.000  0.002  0.002  0.002  0.000  0.016  0.012  0.050
    3  0.000  0.006  0.000  0.037  0.000  0.000  0.000  0.001  0.000  0.045
    4  0.000  0.006  0.000  0.037  0.000  0.000  0.000  0.001  0.000  0.045
    5  0.000  0.003  0.005  0.074  0.000  0.000  0.000  0.000  0.000  0.084
    6  0.000  0.061  0.004  0.001  0.000  0.000  0.000  0.000  0.000  0.066
    7  0.000  0.013  0.000  0.012  0.000  0.000  0.000  0.000  0.000  0.026
    8  0.000  0.003  0.005  0.074  0.000  0.000  0.000  0.000  0.000  0.084
    9  0.000  0.061  0.004  0.001  0.000  0.000  0.000  0.000  0.000  0.066
   10  0.000  0.013  0.000  0.012  0.000  0.000  0.000  0.000  0.000  0.026
tot    0.000  0.197  0.018  0.254  0.004  0.006  0.002  0.035  0.025  0.542

band    14 # energy   -7.43500760 # occ.  1.00000000

ion      s     py     pz     px    dxy    dyz    dz2    dxz  x2-y2    tot
    1  0.000  0.002  0.000  0.016  0.012  0.016  0.000  0.002  0.002  0.050
    2  0.000  0.002  0.000  0.016  0.012  0.016  0.000  0.002  0.002  0.050
    3  0.000  0.037  0.000  0.006  0.000  0.001  0.000  0.000  0.000  0.045
    4  0.000  0.037  0.000  0.006  0.000  0.001  0.000  0.000  0.000  0.045
    5  0.000  0.021  0.001  0.012  0.000  0.000  0.000  0.000  0.000  0.034
    6  0.000  0.009  0.002  0.038  0.000  0.000  0.000  0.000  0.000  0.051
    7  0.000  0.057  0.006  0.027  0.000  0.000  0.001  0.000  0.000  0.091
    8  0.000  0.021  0.001  0.012  0.000  0.000  0.000  0.000  0.000  0.034
    9  0.000  0.009  0.002  0.038  0.000  0.000  0.000  0.000  0.000  0.051
   10  0.000  0.057  0.006  0.027  0.000  0.000  0.001  0.000  0.000  0.091
tot    0.000  0.254  0.018  0.197  0.025  0.035  0.002  0.006  0.004  0.542

band    15 # energy   -6.46185430 # occ.  1.00000000

ion      s     py     pz     px    dxy    dyz    dz2    dxz  x2-y2    tot
    1  0.000  0.000  0.047  0.000  0.000  0.000  0.000  0.000  0.000  0.047
    2  0.000  0.000  0.047  0.000  0.000  0.000  0.000  0.000  0.000  0.047
    3  0.000  0.000  0.000  0.000  0.000  0.000  0.000  0.000  0.000  0.000
    4  0.000  0.000  0.000  0.000  0.000  0.000  0.000  0.000  0.000  0.000
    5  0.000  0.073  0.000  0.000  0.000  0.000  0.000  0.000  0.000  0.073
    6  0.000  0.018  0.000  0.055  0.000  0.000  0.000  0.000  0.000  0.073
    7  0.000  0.018  0.000  0.054  0.000  0.000  0.000  0.000  0.000  0.073
    8  0.000  0.073  0.000  0.000  0.000  0.000  0.000  0.000  0.000  0.073
    9  0.000  0.018  0.000  0.055  0.000  0.000  0.000  0.000  0.000  0.073
   10  0.000  0.018  0.000  0.054  0.000  0.000  0.000  0.000  0.000  0.073
tot    0.000  0.218  0.095  0.218  0.001  0.000  0.000  0.000  0.001  0.533

band    16 # energy   -5.70537850 # occ.  1.00000000

ion      s     py     pz     px    dxy    dyz    dz2    dxz  x2-y2    tot
    1  0.000  0.003  0.000  0.000  0.006  0.004  0.000  0.092  0.119  0.224
    2  0.000  0.003  0.000  0.000  0.006  0.004  0.000  0.092  0.119  0.224
    3  0.000  0.000  0.000  0.000  0.000  0.000  0.000  0.000  0.000  0.001
    4  0.000  0.000  0.000  0.000  0.000  0.000  0.000  0.000  0.000  0.001
    5  0.002  0.002  0.051  0.002  0.000  0.000  0.000  0.000  0.000  0.058
    6  0.001  0.003  0.024  0.021  0.000  0.000  0.000  0.001  0.000  0.049
    7  0.000  0.007  0.005  0.030  0.000  0.000  0.000  0.001  0.000  0.044
    8  0.002  0.002  0.051  0.002  0.000  0.000  0.000  0.000  0.000  0.058
    9  0.001  0.003  0.024  0.021  0.000  0.000  0.000  0.001  0.000  0.049
   10  0.000  0.007  0.005  0.030  0.000  0.000  0.000  0.001  0.000  0.044
tot    0.007  0.029  0.160  0.106  0.011  0.009  0.001  0.188  0.240  0.751

band    17 # energy   -5.70536612 # occ.  1.00000000

ion      s     py     pz     px    dxy    dyz    dz2    dxz  x2-y2    tot
    1  0.000  0.000  0.000  0.003  0.119  0.092  0.000  0.004  0.006  0.224
    2  0.000  0.000  0.000  0.003  0.119  0.092  0.000  0.004  0.006  0.224
    3  0.000  0.000  0.000  0.000  0.000  0.000  0.000  0.000  0.000  0.001
    4  0.000  0.000  0.000  0.000  0.000  0.000  0.000  0.000  0.000  0.001
    5  0.000  0.039  0.002  0.000  0.000  0.001  0.000  0.000  0.000  0.043
    6  0.001  0.009  0.029  0.010  0.000  0.000  0.000  0.000  0.000  0.051
    7  0.002  0.004  0.048  0.001  0.000  0.000  0.000  0.000  0.000  0.057
    8  0.000  0.039  0.002  0.000  0.000  0.001  0.000  0.000  0.000  0.043
    9  0.001  0.009  0.029  0.010  0.000  0.000  0.000  0.000  0.000  0.051
   10  0.002  0.004  0.048  0.001  0.000  0.000  0.000  0.000  0.000  0.057
tot    0.007  0.106  0.160  0.029  0.240  0.188  0.001  0.009  0.011  0.751

band    18 # energy   -5.43566202 # occ.  1.00000000

ion      s     py     pz     px    dxy    dyz    dz2    dxz  x2-y2    tot
    1  0.000  0.000  0.000  0.001  0.079  0.083  0.000  0.014  0.014  0.192
    2  0.000  0.000  0.000  0.001  0.079  0.083  0.000  0.014  0.014  0.192
    3  0.000  0.000  0.000  0.001  0.000  0.000  0.000  0.002  0.000  0.003
    4  0.000  0.000  0.000  0.001  0.000  0.000  0.000  0.002  0.000  0.003
    5  0.005  0.001  0.083  0.001  0.000  0.000  0.000  0.000  0.000  0.090
    6  0.003  0.002  0.061  0.001  0.000  0.000  0.000  0.000  0.000  0.068
    7  0.000  0.002  0.002  0.003  0.000  0.000  0.000  0.000  0.000  0.007
    8  0.005  0.001  0.083  0.001  0.000  0.000  0.000  0.000  0.000  0.090
    9  0.003  0.002  0.061  0.001  0.000  0.000  0.000  0.000  0.000  0.068
   10  0.000  0.002  0.002  0.003  0.000  0.000  0.000  0.000  0.000  0.007
tot    0.017  0.010  0.291  0.014  0.159  0.167  0.000  0.033  0.027  0.718

band    19 # energy   -5.43564602 # occ.  1.00000000

ion      s     py     pz     px    dxy    dyz    dz2    dxz  x2-y2    tot
    1  0.000  0.001  0.000  0.000  0.014  0.014  0.000  0.083  0.079  0.192
    2  0.000  0.001  0.000  0.000  0.014  0.014  0.000  0.083  0.079  0.192
    3  0.000  0.001  0.000  0.000  0.000  0.002  0.000  0.000  0.000  0.003
    4  0.000  0.001  0.000  0.000  0.000  0.002  0.000  0.000  0.000  0.003
    5  0.001  0.004  0.014  0.000  0.000  0.000  0.000  0.000  0.000  0.020
    6  0.002  0.000  0.036  0.004  0.000  0.000  0.000  0.000  0.000  0.042
    7  0.005  0.001  0.095  0.001  0.000  0.000  0.000  0.000  0.000  0.103
    8  0.001  0.004  0.014  0.000  0.000  0.000  0.000  0.000  0.000  0.020
    9  0.002  0.000  0.036  0.004  0.000  0.000  0.000  0.000  0.000  0.042
   10  0.005  0.001  0.095  0.001  0.000  0.000  0.000  0.000  0.000  0.103
tot    0.017  0.014  0.291  0.010  0.027  0.033  0.000  0.167  0.159  0.718

band    20 # energy   -4.91335713 # occ.  1.00000000

ion      s     py     pz     px    dxy    dyz    dz2    dxz  x2-y2    tot
    1  0.000  0.000  0.000  0.000  0.000  0.000  0.237  0.000  0.000  0.237
    2  0.000  0.000  0.000  0.000  0.000  0.000  0.237  0.000  0.000  0.237
    3  0.006  0.000  0.076  0.000  0.000  0.000  0.004  0.000  0.000  0.087
    4  0.006  0.000  0.076  0.000  0.000  0.000  0.004  0.000  0.000  0.087
    5  0.000  0.000  0.003  0.015  0.000  0.000  0.000  0.000  0.000  0.019
    6  0.000  0.011  0.003  0.004  0.000  0.000  0.000  0.000  0.000  0.019
    7  0.000  0.011  0.003  0.004  0.000  0.000  0.000  0.000  0.000  0.019
    8  0.000  0.000  0.003  0.015  0.000  0.000  0.000  0.000  0.000  0.019
    9  0.000  0.011  0.003  0.004  0.000  0.000  0.000  0.000  0.000  0.019
   10  0.000  0.011  0.003  0.004  0.000  0.000  0.000  0.000  0.000  0.019
tot    0.013  0.045  0.170  0.045  0.001  0.001  0.484  0.001  0.001  0.763

band    21 # energy   -4.77139564 # occ.  1.00000000

ion      s     py     pz     px    dxy    dyz    dz2    dxz  x2-y2    tot
    1  0.000  0.000  0.014  0.000  0.000  0.000  0.000  0.000  0.000  0.014
    2  0.000  0.000  0.014  0.000  0.000  0.000  0.000  0.000  0.000  0.014
    3  0.002  0.000  0.007  0.000  0.000  0.000  0.002  0.000  0.000  0.011
    4  0.002  0.000  0.007  0.000  0.000  0.000  0.002  0.000  0.000  0.011
    5  0.000  0.000  0.077  0.000  0.000  0.000  0.000  0.000  0.000  0.077
    6  0.000  0.000  0.077  0.000  0.000  0.000  0.000  0.000  0.000  0.077
    7  0.000  0.000  0.077  0.000  0.000  0.000  0.000  0.000  0.000  0.077
    8  0.000  0.000  0.077  0.000  0.000  0.000  0.000  0.000  0.000  0.077
    9  0.000  0.000  0.077  0.000  0.000  0.000  0.000  0.000  0.000  0.077
   10  0.000  0.000  0.077  0.000  0.000  0.000  0.000  0.000  0.000  0.077
tot    0.004  0.000  0.506  0.000  0.000  0.000  0.004  0.000  0.000  0.516

band    22 # energy   -4.60195527 # occ.  1.00000000

ion      s     py     pz     px    dxy    dyz    dz2    dxz  x2-y2    tot
    1  0.000  0.014  0.000  0.000  0.000  0.000  0.000  0.065  0.001  0.081
    2  0.000  0.014  0.000  0.000  0.000  0.000  0.000  0.065  0.001  0.081
    3  0.000  0.000  0.000  0.022  0.000  0.000  0.000  0.000  0.004  0.026
    4  0.000  0.000  0.000  0.022  0.000  0.000  0.000  0.000  0.004  0.026
    5  0.004  0.000  0.080  0.037  0.000  0.000  0.000  0.000  0.001  0.122
    6  0.001  0.000  0.014  0.027  0.000  0.000  0.000  0.001  0.000  0.043
    7  0.001  0.001  0.026  0.028  0.000  0.000  0.000  0.001  0.000  0.057
    8  0.004  0.000  0.080  0.037  0.000  0.000  0.000  0.000  0.001  0.122
    9  0.001  0.000  0.014  0.027  0.000  0.000  0.000  0.001  0.000  0.043
   10  0.001  0.001  0.026  0.028  0.000  0.000  0.000  0.001  0.000  0.057
tot    0.013  0.031  0.241  0.227  0.000  0.001  0.000  0.133  0.013  0.658

band    23 # energy   -4.60194385 # occ.  1.00000000

ion      s     py     pz     px    dxy    dyz    dz2    dxz  x2-y2    tot
    1  0.000  0.000  0.000  0.014  0.001  0.065  0.000  0.000  0.000  0.081
    2  0.000  0.000  0.000  0.014  0.001  0.065  0.000  0.000  0.000  0.081
    3  0.000  0.022  0.000  0.000  0.004  0.000  0.000  0.000  0.000  0.026
    4  0.000  0.022  0.000  0.000  0.004  0.000  0.000  0.000  0.000  0.026
    5  0.000  0.025  0.001  0.000  0.000  0.001  0.000  0.000  0.000  0.026
    6  0.003  0.034  0.066  0.001  0.001  0.000  0.000  0.000  0.000  0.105
    7  0.003  0.033  0.054  0.000  0.000  0.000  0.000  0.000  0.000  0.091
    8  0.000  0.025  0.001  0.000  0.000  0.001  0.000  0.000  0.000  0.026
    9  0.003  0.034  0.066  0.001  0.001  0.000  0.000  0.000  0.000  0.105
   10  0.003  0.033  0.054  0.000  0.000  0.000  0.000  0.000  0.000  0.091
tot    0.013  0.227  0.241  0.031  0.013  0.133  0.000  0.001  0.000  0.658

band    24 # energy   -4.06630884 # occ.  1.00000000

ion      s     py     pz     px    dxy    dyz    dz2    dxz  x2-y2    tot
    1  0.000  0.003  0.000  0.003  0.110  0.082  0.000  0.087  0.118  0.404
    2  0.000  0.003  0.000  0.003  0.110  0.082  0.000  0.087  0.118  0.404
    3  0.000  0.002  0.000  0.002  0.000  0.000  0.000  0.000  0.000  0.005
    4  0.000  0.002  0.000  0.002  0.000  0.000  0.000  0.000  0.000  0.005
    5  0.000  0.001  0.007  0.001  0.001  0.000  0.000  0.000  0.000  0.010
    6  0.000  0.001  0.012  0.000  0.000  0.000  0.000  0.000  0.000  0.014
    7  0.000  0.000  0.001  0.002  0.000  0.000  0.000  0.000  0.001  0.004
    8  0.000  0.001  0.007  0.001  0.001  0.000  0.000  0.000  0.000  0.010
    9  0.000  0.001  0.012  0.000  0.000  0.000  0.000  0.000  0.000  0.014
   10  0.000  0.000  0.001  0.002  0.000  0.000  0.000  0.000  0.001  0.004
tot    0.000  0.016  0.038  0.016  0.223  0.165  0.000  0.176  0.238  0.873

band    25 # energy   -4.06630557 # occ.  1.00000000

ion      s     py     pz     px    dxy    dyz    dz2    dxz  x2-y2    tot
    1  0.000  0.003  0.000  0.003  0.118  0.087  0.000  0.082  0.110  0.404
    2  0.000  0.003  0.000  0.003  0.118  0.087  0.000  0.082  0.110  0.404
    3  0.000  0.002  0.000  0.002  0.000  0.000  0.000  0.000  0.000  0.005
    4  0.000  0.002  0.000  0.002  0.000  0.000  0.000  0.000  0.000  0.005
    5  0.000  0.001  0.006  0.001  0.001  0.000  0.000  0.000  0.000  0.009
    6  0.000  0.000  0.001  0.002  0.001  0.000  0.000  0.000  0.001  0.005
    7  0.000  0.001  0.012  0.000  0.000  0.000  0.000  0.000  0.000  0.014
    8  0.000  0.001  0.006  0.001  0.001  0.000  0.000  0.000  0.000  0.009
    9  0.000  0.000  0.001  0.002  0.001  0.000  0.000  0.000  0.001  0.005
   10  0.000  0.001  0.012  0.000  0.000  0.000  0.000  0.000  0.000  0.014
tot    0.000  0.016  0.038  0.016  0.238  0.176  0.000  0.165  0.223  0.873

band    26 # energy   -3.93380826 # occ.  1.00000000

ion      s     py     pz     px    dxy    dyz    dz2    dxz  x2-y2    tot
    1  0.000  0.000  0.000  0.000  0.277  0.124  0.000  0.005  0.012  0.418
    2  0.000  0.000  0.000  0.000  0.277  0.124  0.000  0.005  0.012  0.418
    3  0.000  0.001  0.000  0.013  0.000  0.000  0.000  0.000  0.000  0.014
    4  0.000  0.001  0.000  0.013  0.000  0.000  0.000  0.000  0.000  0.014
    5  0.002  0.000  0.005  0.007  0.000  0.000  0.000  0.000  0.000  0.015
    6  0.000  0.001  0.001  0.000  0.000  0.000  0.000  0.000  0.000  0.002
    7  0.001  0.003  0.002  0.000  0.000  0.000  0.000  0.000  0.000  0.007
    8  0.002  0.000  0.005  0.007  0.000  0.000  0.000  0.000  0.000  0.015
    9  0.000  0.001  0.001  0.000  0.000  0.000  0.000  0.000  0.000  0.002
   10  0.001  0.003  0.002  0.000  0.000  0.000  0.000  0.000  0.000  0.007
tot    0.005  0.009  0.016  0.042  0.555  0.247  0.001  0.011  0.025  0.911

band    27 # energy   -3.93380321 # occ.  1.00000000

ion      s     py     pz     px    dxy    dyz    dz2    dxz  x2-y2    tot
    1  0.000  0.000  0.000  0.000  0.012  0.005  0.000  0.124  0.277  0.418
    2  0.000  0.000  0.000  0.000  0.012  0.005  0.000  0.124  0.277  0.418
    3  0.000  0.013  0.000  0.001  0.000  0.000  0.000  0.000  0.000  0.014
    4  0.000  0.013  0.000  0.001  0.000  0.000  0.000  0.000  0.000  0.014
    5  0.000  0.000  0.000  0.000  0.000  0.000  0.000  0.000  0.000  0.001
    6  0.002  0.005  0.005  0.002  0.000  0.000  0.000  0.000  0.000  0.014
    7  0.001  0.003  0.003  0.002  0.000  0.000  0.000  0.000  0.000  0.009
    8  0.000  0.000  0.000  0.000  0.000  0.000  0.000  0.000  0.000  0.001
    9  0.002  0.005  0.005  0.002  0.000  0.000  0.000  0.000  0.000  0.014
   10  0.001  0.003  0.003  0.002  0.000  0.000  0.000  0.000  0.000  0.009
tot    0.005  0.042  0.016  0.009  0.025  0.011  0.001  0.247  0.555  0.911

band    28 # energy   -3.92886517 # occ.  1.00000000

ion      s     py     pz     px    dxy    dyz    dz2    dxz  x2-y2    tot
    1  0.014  0.000  0.000  0.000  0.000  0.000  0.434  0.000  0.000  0.448
    2  0.014  0.000  0.000  0.000  0.000  0.000  0.434  0.000  0.000  0.448
    3  0.000  0.000  0.000  0.000  0.000  0.000  0.000  0.000  0.000  0.000
    4  0.000  0.000  0.000  0.000  0.000  0.000  0.000  0.000  0.000  0.000
    5  0.000  0.003  0.000  0.000  0.000  0.000  0.000  0.000  0.000  0.004
    6  0.000  0.001  0.000  0.002  0.000  0.000  0.000  0.000  0.000  0.004
    7  0.000  0.001  0.000  0.002  0.000  0.000  0.000  0.000  0.000  0.004
    8  0.000  0.003  0.000  0.000  0.000  0.000  0.000  0.000  0.000  0.004
    9  0.000  0.001  0.000  0.002  0.000  0.000  0.000  0.000  0.000  0.004
   10  0.000  0.001  0.000  0.002  0.000  0.000  0.000  0.000  0.000  0.004
tot    0.029  0.010  0.000  0.010  0.000  0.001  0.867  0.001  0.000  0.918

band    29 # energy   -3.54761654 # occ.  1.00000000

ion      s     py     pz     px    dxy    dyz    dz2    dxz  x2-y2    tot
    1  0.013  0.000  0.000  0.000  0.000  0.000  0.186  0.000  0.000  0.198
    2  0.013  0.000  0.000  0.000  0.000  0.000  0.186  0.000  0.000  0.198
    3  0.000  0.000  0.081  0.000  0.000  0.000  0.004  0.000  0.000  0.085
    4  0.000  0.000  0.081  0.000  0.000  0.000  0.004  0.000  0.000  0.085
    5  0.001  0.000  0.020  0.008  0.000  0.000  0.001  0.000  0.000  0.030
    6  0.001  0.006  0.020  0.002  0.000  0.000  0.001  0.000  0.000  0.030
    7  0.001  0.006  0.020  0.002  0.000  0.000  0.001  0.000  0.000  0.030
    8  0.001  0.000  0.020  0.008  0.000  0.000  0.001  0.000  0.000  0.030
    9  0.001  0.006  0.020  0.002  0.000  0.000  0.001  0.000  0.000  0.030
   10  0.001  0.006  0.020  0.002  0.000  0.000  0.001  0.000  0.000  0.030
tot    0.032  0.023  0.283  0.023  0.000  0.001  0.383  0.001  0.000  0.746

band    30 # energy   -3.36882218 # occ.  1.00000000

ion      s     py     pz     px    dxy    dyz    dz2    dxz  x2-y2    tot
    1  0.000  0.004  0.000  0.019  0.007  0.002  0.000  0.000  0.001  0.033
    2  0.000  0.004  0.000  0.019  0.007  0.002  0.000  0.000  0.001  0.033
    3  0.000  0.002  0.000  0.009  0.001  0.000  0.000  0.000  0.004  0.016
    4  0.000  0.002  0.000  0.009  0.001  0.000  0.000  0.000  0.004  0.016
    5  0.001  0.022  0.009  0.039  0.000  0.000  0.000  0.000  0.001  0.072
    6  0.000  0.026  0.000  0.108  0.000  0.000  0.000  0.000  0.000  0.135
    7  0.001  0.002  0.007  0.076  0.000  0.000  0.000  0.000  0.000  0.086
    8  0.001  0.022  0.009  0.039  0.000  0.000  0.000  0.000  0.001  0.072
    9  0.000  0.026  0.000  0.108  0.000  0.000  0.000  0.000  0.000  0.135
   10  0.001  0.002  0.007  0.076  0.000  0.000  0.000  0.000  0.000  0.086
tot    0.005  0.109  0.032  0.501  0.016  0.004  0.001  0.002  0.013  0.683

band    31 # energy   -3.36879806 # occ.  1.00000000

ion      s     py     pz     px    dxy    dyz    dz2    dxz  x2-y2    tot
    1  0.000  0.019  0.000  0.004  0.001  0.000  0.000  0.002  0.007  0.033
    2  0.000  0.019  0.000  0.004  0.001  0.000  0.000  0.002  0.007  0.033
    3  0.000  0.009  0.000  0.002  0.004  0.000  0.000  0.000  0.001  0.016
    4  0.000  0.009  0.000  0.002  0.004  0.000  0.000  0.000  0.001  0.016
    5  0.000  0.113  0.002  0.007  0.000  0.000  0.000  0.000  0.000  0.123
    6  0.002  0.042  0.010  0.005  0.001  0.000  0.000  0.000  0.000  0.061
    7  0.001  0.067  0.004  0.037  0.000  0.000  0.000  0.000  0.000  0.109
    8  0.000  0.113  0.002  0.007  0.000  0.000  0.000  0.000  0.000  0.123
    9  0.002  0.042  0.010  0.005  0.001  0.000  0.000  0.000  0.000  0.061