<?xml version="1.0" encoding="ISO-8859-1"?>
<modeling>
 <generator>
  <i name="program" type="string">vasp </i>
  <i name="version" type="string">5.4.4.18Apr17-6-g9f103f2a35  </i>
  <i name="subversion" type="string">(build May  1 2020 15:48:39) complex            parallel </i>
  <i name="platform" type="string">LinuxGNU </i>
  <i name="date" type="string">2020 06 15 </i>
  <i name="time" type="string">20:16:24 </i>
 </generator>
 <incar>
  <i type="int" name="ISTART">     1</i>
  <i type="string" name="PREC">accurate</i>
  <i type="string" name="ALGO"> Normal</i>
  <i type="int" name="ISPIN">     2</i>
  <i name="AMIN">      0.01000000</i>
  <i type="int" name="NELM">   400</i>
  <i type="int" name="IBRION">     2</i>
  <i name="EDIFF">      0.00010000</i>
  <i type="int" name="NSW">    99</i>
  <i type="int" name="ISIF">     3</i>
  <i name="ENCUT">    520.00000000</i>
  <v name="MAGMOM">      5.00000000      5.00000000      0.60000000      0.60000000      0.60000000      0.60000000      0.60000000      0.60000000      0.60000000      0.60000000</v>
  <i type="string" name="LREAL"> Auto</i>
  <i type="int" name="ISMEAR">    -5</i>
  <i name="SIGMA">      0.05000000</i>
  <i type="logical" name="LWAVE"> F  </i>
  <i type="int" name="LORBIT">    11</i>
  <v type="int" name="KPOINT_BSE">    -1     0     0     0</v>
  <i type="int" name="NELM">   400</i>
  <i type="string" name="GGA"> Bo</i>
  <i name="PARAM1">      0.18333333</i>
  <i name="PARAM2">      0.22000000</i>
  <i type="logical" name="LUSE_VDW"> T  </i>
  <i name="AGGAC">      0.00000000</i>
 </incar>
 <structure name="primitive_cell" >
  <crystal>
   <varray name="basis" >
    <v>       6.90777700      -0.00000000       0.00000000 </v>
    <v>       3.45388800       5.98231000       0.00000000 </v>
    <v>       0.00000000       0.00000000      23.44458800 </v>
   </varray>
   <i name="volume">    968.83501932 </i>
   <varray name="rec_basis" >
    <v>       0.14476437      -0.08357974       0.00000000 </v>
    <v>       0.00000000       0.16715951      -0.00000000 </v>
    <v>      -0.00000000       0.00000000       0.04265377 </v>
   </varray>
  </crystal>
  <varray name="positions" >
   <v>       0.33333300       0.33333300       0.49992500 </v>
   <v>       0.00042000       0.37322400      -0.42624800 </v>
   <v>      -0.37364300       0.00042000      -0.42624800 </v>
   <v>       0.37322400      -0.37364300      -0.42624800 </v>
   <v>       0.37364300      -0.00042000       0.42624800 </v>
   <v>      -0.37322400       0.37364300       0.42624800 </v>
   <v>      -0.00042000      -0.37322400       0.42624800 </v>
   <v>      -0.33333300      -0.33333300      -0.49992500 </v>
   <v>       0.00000000       0.00000000       0.44821600 </v>
   <v>       0.00000000       0.00000000      -0.44821600 </v>
  </varray>
 </structure>
 <varray name="primitive_index" >
  <v type="int" >        1 </v>
  <v type="int" >        6 </v>
  <v type="int" >        5 </v>
  <v type="int" >        7 </v>
  <v type="int" >        8 </v>
  <v type="int" >       10 </v>
  <v type="int" >        9 </v>
  <v type="int" >        2 </v>
  <v type="int" >        3 </v>
  <v type="int" >        4 </v>
 </varray>
 <kpoints>
  <generation param="Gamma">
   <v type="int" name="divisions">       5        5        1 </v>
   <v name="usershift">      0.00000000       0.00000000       0.00000000 </v>
   <v name="genvec1">      0.20000000       0.00000000       0.00000000 </v>
   <v name="genvec2">      0.00000000       0.20000000       0.00000000 </v>
   <v name="genvec3">      0.00000000       0.00000000       1.00000000 </v>
   <v name="shift">      0.00000000       0.00000000       0.00000000 </v>
  </generation>
  <varray name="kpointlist" >
   <v>       0.00000000       0.00000000       0.00000000 </v>
   <v>       0.20000000       0.00000000       0.00000000 </v>
   <v>       0.40000000       0.00000000       0.00000000 </v>
   <v>       0.40000000       0.20000000       0.00000000 </v>
   <v>      -0.40000000       0.20000000       0.00000000 </v>
  </varray>
  <varray name="weights" >
   <v>       0.04000000 </v>
   <v>       0.24000000 </v>
   <v>       0.24000000 </v>
   <v>       0.24000000 </v>
   <v>       0.24000000 </v>
  </varray>
  <varray name="tetrahedronlist"  type="int" >
   <v type="int" >        6        1        1        2        2 </v>
   <v type="int" >       12        1        2        2        2 </v>
   <v type="int" >       12        2        2        3        4 </v>
   <v type="int" >       12        2        2        2        4 </v>
   <v type="int" >       12        2        3        3        4 </v>
   <v type="int" >       12        2        3        4        4 </v>
   <v type="int" >        6        2        2        4        4 </v>
   <v type="int" >       12        3        3        3        5 </v>
   <v type="int" >       12        3        3        4        5 </v>
   <v type="int" >       12        3        4        4        5 </v>
   <v type="int" >        6        3        3        5        5 </v>
   <v type="int" >       12        3        4        5        5 </v>
   <v type="int" >        6        4        4        5        5 </v>
   <v type="int" >       12        4        5        5        5 </v>
   <v type="int" >        6        5        5        5        5 </v>
  </varray>
  <i name="volumeweight">      0.00666667 </i>
 </kpoints>
 <parameters>
  <separator name="general" >
   <i type="string" name="SYSTEM">unknown system</i>
   <i type="logical" name="LCOMPAT"> F  </i>
  </separator>
  <separator name="electronic" >
   <i type="string" name="PREC">accura</i>
   <i name="ENMAX">    520.00000000</i>
   <i name="ENAUG">    446.84200000</i>
   <i name="EDIFF">      0.00010000</i>
   <i type="int" name="IALGO">    38</i>
   <i type="int" name="IWAVPR">    11</i>
   <i type="int" name="NBANDS">    48</i>
   <i name="NELECT">     56.00000000</i>
   <i type="int" name="TURBO">     0</i>
   <i type="int" name="IRESTART">     0</i>
   <i type="int" name="NREBOOT">     0</i>
   <i type="int" name="NMIN">     0</i>
   <i name="EREF">      0.00000000</i>
   <separator name="electronic smearing" >
    <i type="int" name="ISMEAR">    -5</i>
    <i name="SIGMA">      0.05000000</i>
    <i name="KSPACING">      0.50000000</i>
    <i type="logical" name="KGAMMA"> T  </i>
   </separator>
   <separator name="electronic projectors" >
    <i type="logical" name="LREAL"> T  </i>
    <v name="ROPT">     -0.00025000     -0.00025000     -0.00025000</v>
    <i type="int" name="LMAXPAW">  -100</i>
    <i type="int" name="LMAXMIX">     2</i>
    <i type="logical" name="NLSPLINE"> F  </i>
   </separator>
   <separator name="electronic startup" >
    <i type="int" name="ISTART">     0</i>
    <i type="int" name="ICHARG">     2</i>
    <i type="int" name="INIWAV">     1</i>
   </separator>
   <separator name="electronic spin" >
    <i type="int" name="ISPIN">     2</i>
    <i type="logical" name="LNONCOLLINEAR"> F  </i>
    <v name="MAGMOM">      5.00000000      5.00000000      0.60000000      0.60000000      0.60000000      0.60000000      0.60000000      0.60000000      0.60000000      0.60000000</v>
    <i name="NUPDOWN">     -1.00000000</i>
    <i type="logical" name="LSORBIT"> F  </i>
    <v name="SAXIS">      0.00000000      0.00000000      1.00000000</v>
    <i type="logical" name="LSPIRAL"> F  </i>
    <v name="QSPIRAL">      0.00000000      0.00000000      0.00000000</v>
    <i type="logical" name="LZEROZ"> F  </i>
   </separator>
   <separator name="electronic exchange-correlation" >
    <i type="logical" name="LASPH"> F  </i>
    <i type="logical" name="LMETAGGA"> F  </i>
   </separator>
   <separator name="electronic convergence" >
    <i type="int" name="NELM">   400</i>
    <i type="int" name="NELMDL">     0</i>
    <i type="int" name="NELMIN">     2</i>
    <i name="ENINI">    520.00000000</i>
    <separator name="electronic convergence detail" >
     <i type="logical" name="LDIAG"> T  </i>
     <i type="logical" name="LSUBROT"> F  </i>
     <i name="WEIMIN">      0.00100000</i>
     <i name="EBREAK">      0.00000052</i>
     <i name="DEPER">      0.30000000</i>
     <i type="int" name="NRMM">     4</i>
     <i name="TIME">      0.40000000</i>
    </separator>
   </separator>
   <separator name="electronic mixer" >
    <i name="AMIX">      0.40000000</i>
    <i name="BMIX">      1.00000000</i>
    <i name="AMIN">      0.01000000</i>
    <i name="AMIX_MAG">      1.60000000</i>
    <i name="BMIX_MAG">      1.00000000</i>
    <separator name="electronic mixer details" >
     <i type="int" name="IMIX">     4</i>
     <i type="logical" name="MIXFIRST"> F  </i>
     <i type="int" name="MAXMIX">   -45</i>
     <i name="WC">    100.00000000</i>
     <i type="int" name="INIMIX">     1</i>
     <i type="int" name="MIXPRE">     1</i>
     <i type="int" name="MREMOVE">     5</i>
    </separator>
   </separator>
   <separator name="electronic dipolcorrection" >
    <i type="logical" name="LDIPOL"> F  </i>
    <i type="logical" name="LMONO"> F  </i>
    <i type="int" name="IDIPOL">     0</i>
    <i name="EPSILON">      1.00000000</i>
    <v name="DIPOL">   -100.00000000   -100.00000000   -100.00000000</v>
    <i name="EFIELD">      0.00000000</i>
   </separator>
  </separator>
  <separator name="grids" >
   <i type="int" name="NGX">    54</i>
   <i type="int" name="NGY">    54</i>
   <i type="int" name="NGZ">   180</i>
   <i type="int" name="NGXF">   108</i>
   <i type="int" name="NGYF">   108</i>
   <i type="int" name="NGZF">   360</i>
   <i type="logical" name="ADDGRID"> F  </i>
  </separator>
  <separator name="ionic" >
   <i type="int" name="NSW">    99</i>
   <i type="int" name="IBRION">     2</i>
   <i type="int" name="MDALGO">     0</i>
   <i type="int" name="ISIF">     3</i>
   <i name="PSTRESS">      0.00000000</i>
   <i name="EDIFFG">      0.00100000</i>
   <i type="int" name="NFREE">     1</i>
   <i name="POTIM">      0.50000000</i>
   <i name="SMASS">     -3.00000000</i>
   <i name="SCALEE">      1.00000000</i>
  </separator>
  <separator name="ionic md" >
   <i name="TEBEG">      0.00010000</i>
   <i name="TEEND">      0.00010000</i>
   <i type="int" name="NBLOCK">     1</i>
   <i type="int" name="KBLOCK">    99</i>
   <i type="int" name="NPACO">   256</i>
   <i name="APACO">     16.00000000</i>
  </separator>
  <separator name="symmetry" >
   <i type="int" name="ISYM">     2</i>
   <i name="SYMPREC">      0.00001000</i>
  </separator>
  <separator name="dos" >
   <i type="int" name="LORBIT">    11</i>
   <v name="RWIGS">     -1.00000000     -1.00000000     -1.00000000</v>
   <i type="int" name="NEDOS">   301</i>
   <i name="EMIN">     10.00000000</i>
   <i name="EMAX">    -10.00000000</i>
   <i name="EFERMI">      0.00000000</i>
  </separator>
  <separator name="writing" >
   <i type="int" name="NWRITE">     2</i>
   <i type="logical" name="LWAVE"> F  </i>
   <i type="logical" name="LDOWNSAMPLE"> F  </i>
   <i type="logical" name="LCHARG"> T  </i>
   <i type="logical" name="LPARD"> F  </i>
   <i type="logical" name="LVTOT"> F  </i>
   <i type="logical" name="LVHAR"> F  </i>
   <i type="logical" name="LELF"> F  </i>
   <i type="logical" name="LOPTICS"> F  </i>
   <v name="STM">      0.00000000      0.00000000      0.00000000      0.00000000      0.00000000      0.00000000      0.00000000</v>
  </separator>
  <separator name="performance" >
   <i type="int" name="NPAR">    24</i>
   <i type="int" name="NSIM">     4</i>
   <i type="int" name="NBLK">    -1</i>
   <i type="logical" name="LPLANE"> T  </i>
   <i type="logical" name="LSCALAPACK"> T  </i>
   <i type="logical" name="LSCAAWARE"> F  </i>
   <i type="logical" name="LSCALU"> F  </i>
   <i type="logical" name="LASYNC"> F  </i>
   <i type="logical" name="LORBITALREAL"> F  </i>
  </separator>
  <separator name="miscellaneous" >
   <i type="int" name="IDIOT">     3</i>
   <i type="int" name="ISPECIAL">     0</i>
   <i type="logical" name="LMUSIC"> F  </i>
   <v name="POMASS">     51.99600000     72.61000000     78.96000000</v>
   <v name="DARWINR">      0.00000000      0.00000000      0.00000000</v>
   <v name="DARWINV">      1.00000000      1.00000000      1.00000000</v>
   <i type="logical" name="LCORR"> T  </i>
  </separator>
  <i type="logical" name="GGA_COMPAT"> T  </i>
  <i type="logical" name="LBERRY"> F  </i>
  <i type="int" name="ICORELEVEL">     0</i>
  <i type="logical" name="LDAU"> F  </i>
  <i type="int" name="I_CONSTRAINED_M">     0</i>
  <separator name="electronic exchange-correlation" >
   <i type="string" name="GGA">BO</i>
   <i type="int" name="VOSKOWN">     0</i>
   <i type="logical" name="LHFCALC"> F  </i>
   <i type="string" name="PRECFOCK"></i>
   <i type="logical" name="LSYMGRAD"> F  </i>
   <i type="logical" name="LHFONE"> F  </i>
   <i type="logical" name="LRHFCALC"> F  </i>
   <i type="logical" name="LTHOMAS"> F  </i>
   <i type="logical" name="LMODELHF"> F  </i>
   <i name="ENCUT4O">     -1.00000000</i>
   <i type="int" name="EXXOEP">     0</i>
   <i type="int" name="FOURORBIT">     0</i>
   <i name="AEXX">      0.00000000</i>
   <i name="HFALPHA">      0.00000000</i>
   <i name="MCALPHA">      0.00000000</i>
   <i name="ALDAX">      1.00000000</i>
   <i name="AGGAX">      1.00000000</i>
   <i name="ALDAC">      1.00000000</i>
   <i name="AGGAC">      0.00000000</i>
   <i type="int" name="NKREDX">     1</i>
   <i type="int" name="NKREDY">     1</i>
   <i type="int" name="NKREDZ">     1</i>
   <i type="logical" name="SHIFTRED"> F  </i>
   <i type="logical" name="ODDONLY"> F  </i>
   <i type="logical" name="EVENONLY"> F  </i>
   <i type="int" name="LMAXFOCK">     0</i>
   <i type="int" name="NMAXFOCKAE">     0</i>
   <i type="logical" name="LFOCKAEDFT"> F  </i>
   <i name="HFSCREEN">      0.00000000</i>
   <i name="HFSCREENC">      0.00000000</i>
   <i type="int" name="NBANDSGWLOW">     0</i>
  </separator>
  <separator name="vdW DFT" >
   <i type="logical" name="LUSE_VDW"> T  </i>
   <i name="Zab_VDW">     -0.84910000</i>
   <i name="PARAM1">      0.18333333</i>
   <i name="PARAM2">      0.22000000</i>
   <i name="PARAM3">      0.00000000</i>
  </separator>
  <separator name="model GW" >
   <i type="int" name="MODEL_GW">     0</i>
   <i name="MODEL_EPS0">     58.13010116</i>
   <i name="MODEL_ALPHA">      1.00000000</i>
  </separator>
  <separator name="linear response parameters" >
   <i type="logical" name="LEPSILON"> F  </i>
   <i type="logical" name="LRPA"> F  </i>
   <i type="logical" name="LNABLA"> F  </i>
   <i type="logical" name="LVEL"> F  </i>
   <i type="int" name="KINTER">     0</i>
   <i name="CSHIFT">      0.10000000</i>
   <i name="OMEGAMAX">     -1.00000000</i>
   <i name="DEG_THRESHOLD">      0.00200000</i>
   <i name="RTIME">     -0.10000000</i>
   <i name="WPLASMAI">      0.00000000</i>
   <v name="DFIELD">      0.00000000      0.00000000      0.00000000</v>
   <v name="WPLASMA">      0.00000000      0.00000000      0.00000000      0.00000000      0.00000000      0.00000000      0.00000000      0.00000000      0.00000000</v>
  </separator>
  <separator name="orbital magnetization" >
   <i type="logical" name="NUCIND"> F  </i>
   <v name="MAGPOS">      0.00000000      0.00000000      0.00000000</v>
   <i type="logical" name="LNICSALL"> T  </i>
   <i type="logical" name="ORBITALMAG"> F  </i>
   <i type="logical" name="LMAGBLOCH"> F  </i>
   <i type="logical" name="LCHIMAG"> F  </i>
   <i type="logical" name="LGAUGE"> T  </i>
   <i type="int" name="MAGATOM">     0</i>
   <v name="MAGDIPOL">      0.00000000      0.00000000      0.00000000</v>
   <v name="AVECCONST">      0.00000000      0.00000000      0.00000000</v>
  </separator>
  <separator name="response functions" >
   <i type="logical" name="LADDER"> F  </i>
   <i type="logical" name="LRPAFORCE"> F  </i>
   <i type="logical" name="LFXC"> F  </i>
   <i type="logical" name="LHARTREE"> T  </i>
   <i type="int" name="IBSE">     0</i>
   <v type="int" name="KPOINT">    -1     0     0     0</v>
   <i type="logical" name="LTCTE"> F  </i>
   <i type="logical" name="LTETE"> F  </i>
   <i type="logical" name="LTRIPLET"> F  </i>
   <i type="logical" name="LFXCEPS"> F  </i>
   <i type="logical" name="LFXHEG"> F  </i>
   <i type="int" name="NATURALO">     2</i>
   <i type="logical" name="L2ORDER"> F  </i>
   <i type="logical" name="LMP2LT"> F  </i>
   <i type="logical" name="LUSEW"> F  </i>
   <i name="ENCUTGW">     -2.00000000</i>
   <i name="ENCUTGWSOFT">     -2.00000000</i>
   <i name="ENCUTLF">     -1.00000000</i>
   <i type="int" name="LMAXMP2">    -1</i>
   <i name="SCISSOR">      0.00000000</i>
   <i type="int" name="NOMEGA">     0</i>
   <i type="int" name="NOMEGAR">     0</i>
   <i type="int" name="NBANDSGW">    -1</i>
   <i type="int" name="NBANDSO">    -1</i>
   <i type="int" name="NBANDSV">    -1</i>
   <i type="int" name="NELM">   400</i>
   <i type="int" name="NELMHF">     1</i>
   <i type="int" name="DIM">     3</i>
   <i type="int" name="ANTIRES">     0</i>
   <i name="OMEGAMAX">    -30.00000000</i>
   <i name="OMEGAMIN">    -30.00000000</i>
   <i name="OMEGATL">   -200.00000000</i>
   <i type="int" name="OMEGAGRID">   140</i>
   <i name="CSHIFT">     -0.10000000</i>
   <i type="logical" name="SELFENERGY"> F  </i>
   <i type="logical" name="LSPECTRAL"> F  </i>
   <i type="logical" name="LSPECTRALGW"> F  </i>
   <i type="logical" name="LSINGLES"> F  </i>
   <i type="logical" name="LFERMIGW"> F  </i>
   <i type="logical" name="ODDONLYGW"> F  </i>
   <i type="logical" name="EVENONLYGW"> F  </i>
   <i type="int" name="NKREDLFX">     1</i>
   <i type="int" name="NKREDLFY">     1</i>
   <i type="int" name="NKREDLFZ">     1</i>
   <i type="int" name="MAXMEM">  2800</i>
   <i type="int" name="TELESCOPE">     0</i>
   <i type="int" name="TAUPAR">     1</i>
   <i type="int" name="OMEGAPAR">    -1</i>
   <i name="LAMBDA">      1.00000000</i>
  </separator>
  <separator name="External order field" >
   <i name="OFIELD_KAPPA">      0.00000000</i>
   <v name="OFIELD_K">      0.00000000      0.00000000      0.00000000</v>
   <i name="OFIELD_Q6_NEAR">      0.00000000</i>
   <i name="OFIELD_Q6_FAR">      0.00000000</i>
   <i name="OFIELD_A">      0.00000000</i>
  </separator>
 </parameters>
 <atominfo>
  <atoms>      10 </atoms>
  <types>       3 </types>
  <array name="atoms" >
   <dimension dim="1">ion</dimension>
   <field type="string">element</field>
   <field type="int">atomtype</field>
   <set>
    <rc><c>Cr</c><c>   1</c></rc>
    <rc><c>Cr</c><c>   1</c></rc>
    <rc><c>Ge</c><c>   2</c></rc>
    <rc><c>Ge</c><c>   2</c></rc>
    <rc><c>Se</c><c>   3</c></rc>
    <rc><c>Se</c><c>   3</c></rc>
    <rc><c>Se</c><c>   3</c></rc>
    <rc><c>Se</c><c>   3</c></rc>
    <rc><c>Se</c><c>   3</c></rc>
    <rc><c>Se</c><c>   3</c></rc>
   </set>
  </array>
  <array name="atomtypes" >
   <dimension dim="1">type</dimension>
   <field type="int">atomspertype</field>
   <field type="string">element</field>
   <field>mass</field>
   <field>valence</field>
   <field type="string">pseudopotential</field>
   <set>
    <rc><c>   2</c><c>Cr</c><c>     51.99600000</c><c>      6.00000000</c><c> PAW_PBE Cr 06Sep2000                   </c></rc>
    <rc><c>   2</c><c>Ge</c><c>     72.61000000</c><c>      4.00000000</c><c> PAW_PBE Ge 05Jan2001                   </c></rc>
    <rc><c>   6</c><c>Se</c><c>     78.96000000</c><c>      6.00000000</c><c> PAW_PBE Se 06Sep2000                   </c></rc>
   </set>
  </array>
 </atominfo>
 <structure name="initialpos" >
  <crystal>
   <varray name="basis" >
    <v>       6.90777700      -0.00000000       0.00000000 </v>
    <v>       3.45388800       5.98231000       0.00000000 </v>
    <v>       0.00000000       0.00000000      23.44458800 </v>
   </varray>
   <i name="volume">    968.83501932 </i>
   <varray name="rec_basis" >
    <v>       0.14476437      -0.08357974       0.00000000 </v>
    <v>       0.00000000       0.16715951      -0.00000000 </v>
    <v>      -0.00000000       0.00000000       0.04265377 </v>
   </varray>
  </crystal>
  <varray name="positions" >
   <v>       0.33333300       0.33333300       0.49992500 </v>
   <v>       0.66666700       0.66666700       0.50007500 </v>
   <v>       0.00000000       0.00000000       0.44821600 </v>
   <v>       0.00000000       0.00000000       0.55178400 </v>
   <v>       0.62635700       0.00042000       0.57375200 </v>
   <v>       0.00042000       0.37322400       0.57375200 </v>
   <v>       0.37322400       0.62635700       0.57375200 </v>
   <v>       0.37364300       0.99958000       0.42624800 </v>
   <v>       0.99958000       0.62677600       0.42624800 </v>
   <v>       0.62677600       0.37364300       0.42624800 </v>
  </varray>
  <varray name="selective"  type="logical" >
   <v type="logical" >  F  F  F </v>
   <v type="logical" >  F  F  F </v>
   <v type="logical" >  F  F  F </v>
   <v type="logical" >  F  F  F </v>
   <v type="logical" >  T  T  T </v>
   <v type="logical" >  T  T  T </v>
   <v type="logical" >  T  T  T </v>
   <v type="logical" >  T  T  T </v>
   <v type="logical" >  T  T  T </v>
   <v type="logical" >  T  T  T </v>
  </varray>
  <nose>
   <v>      -3.00000000       0.00000000       0.00010000       0.00010000 </v>
  </nose>
 </structure>
 <calculation>
  <scstep>
   <time name="dav">   20.23   31.40</time>
   <time name="total">   59.20   92.16</time>
   <energy>
    <i name="alphaZ">     33.62852870 </i>
    <i name="ewald">   5985.89955237 </i>
    <i name="hartreedc">  -8013.07032120 </i>
    <i name="XCdc">    -61.95823998 </i>
    <i name="pawpsdc">   1166.73580725 </i>
    <i name="pawaedc">  -1008.38558627 </i>
    <i name="eentropy">      0.00000000 </i>
    <i name="bandstr">    -40.79524355 </i>
    <i name="atom">   2318.27820089 </i>
    <i name="e_fr_energy">    380.33269821 </i>
    <i name="e_wo_entrp">    380.33269821 </i>
    <i name="e_0_energy">    380.33269821 </i>
   </energy>
  </scstep>
  <scstep>
   <time name="dav">   28.80   43.50</time>
   <time name="total">   28.80   43.51</time>
   <energy>
    <i name="e_fr_energy">      1.77066069 </i>
    <i name="e_wo_entrp">      1.77066069 </i>
    <i name="e_0_energy">      1.77066069 </i>
   </energy>
  </scstep>
  <scstep>
   <time name="dav">   27.34   40.11</time>
   <time name="total">   27.35   40.13</time>
   <energy>
    <i name="e_fr_energy">    -47.13428923 </i>
    <i name="e_wo_entrp">    -47.13428923 </i>
    <i name="e_0_energy">    -47.13428923 </i>
   </energy>
  </scstep>
  <scstep>
   <time name="dav">   24.56   37.30</time>
   <time name="total">   24.58   37.32</time>
   <energy>
    <i name="e_fr_energy">    -48.97246171 </i>
    <i name="e_wo_entrp">    -48.97246171 </i>
    <i name="e_0_energy">    -48.97246171 </i>
   </energy>
  </scstep>
  <scstep>
   <time name="dav">   25.69   39.42</time>
   <time name="total">   27.18   41.74</time>
   <energy>
    <i name="e_fr_energy">    -49.03256514 </i>
    <i name="e_wo_entrp">    -49.03256514 </i>
    <i name="e_0_energy">    -49.03256514 </i>
   </energy>
  </scstep>
  <scstep>
   <time name="dav">   25.12   39.53</time>
   <time name="total">   66.40  102.36</time>
   <energy>
    <i name="e_fr_energy">    -96.05535050 </i>
    <i name="e_wo_entrp">    -96.05535050 </i>
    <i name="e_0_energy">    -96.05535050 </i>
   </energy>
  </scstep>
  <scstep>
   <time name="dav">   23.50   35.50</time>
   <time name="total">   64.04   96.58</time>
   <energy>
    <i name="e_fr_energy">    -41.24718479 </i>
    <i name="e_wo_entrp">    -41.24718479 </i>
    <i name="e_0_energy">    -41.24718479 </i>
   </energy>
  </scstep>
  <scstep>
   <time name="dav">   23.22   36.40</time>
   <time name="total">   64.22   97.70</time>
   <energy>
    <i name="e_fr_energy">    -43.01080937 </i>
    <i name="e_wo_entrp">    -43.01080937 </i>
    <i name="e_0_energy">    -43.01080937 </i>
   </energy>
  </scstep>
  <scstep>
   <time name="dav">   30.22   44.67</time>
   <time name="total">   71.14  105.66</time>
   <energy>
    <i name="e_fr_energy">    -45.19507575 </i>
    <i name="e_wo_entrp">    -45.19507575 </i>
    <i name="e_0_energy">    -45.19507575 </i>
   </energy>
  </scstep>
  <scstep>
   <time name="dav">   24.30   38.28</time>
   <time name="total">   64.74  100.26</time>
   <energy>
    <i name="e_fr_energy">    -44.42447512 </i>
    <i name="e_wo_entrp">    -44.42447512 </i>
    <i name="e_0_energy">    -44.42447512 </i>
   </energy>
  </scstep>
  <scstep>
   <time name="dav">   25.32   37.68</time>
   <time name="total">   65.93   98.52</time>
   <energy>
    <i name="e_fr_energy">    -44.83106453 </i>
    <i name="e_wo_entrp">    -44.83106453 </i>
    <i name="e_0_energy">    -44.83106453 </i>
   </energy>
  </scstep>
  <scstep>
   <time name="dav">   27.01   40.34</time>
   <time name="total">   69.45  102.52</time>
   <energy>
    <i name="e_fr_energy">    -44.99158735 </i>
    <i name="e_wo_entrp">    -44.99158735 </i>
    <i name="e_0_energy">    -44.99158735 </i>
   </energy>
  </scstep>
  <scstep>
   <time name="dav">   25.49   39.70</time>
   <time name="total">   67.88  100.93</time>
   <energy>
    <i name="e_fr_energy">    -45.29429198 </i>
    <i name="e_wo_entrp">    -45.29429198 </i>
    <i name="e_0_energy">    -45.29429198 </i>
   </energy>
  </scstep>
  <scstep>
   <time name="dav">   21.76   32.54</time>
   <time name="total">   62.48   93.58</time>
   <energy>
    <i name="e_fr_energy">    -45.34295518 </i>
    <i name="e_wo_entrp">    -45.34295518 </i>
    <i name="e_0_energy">    -45.34295518 </i>
   </energy>
  </scstep>
  <scstep>
   <time name="dav">   21.82   34.20</time>
   <time name="total">   62.71   95.28</time>
   <energy>
    <i name="e_fr_energy">    -45.36181705 </i>
    <i name="e_wo_entrp">    -45.36181705 </i>
    <i name="e_0_energy">    -45.36181705 </i>
   </energy>
  </scstep>
  <scstep>
   <time name="dav">   23.13   34.38</time>
   <time name="total">   63.42   95.03</time>
   <energy>
    <i name="e_fr_energy">    -45.36467411 </i>
    <i name="e_wo_entrp">    -45.36467411 </i>
    <i name="e_0_energy">    -45.36467411 </i>
   </energy>
  </scstep>
  <scstep>
   <time name="dav">   23.64   35.43</time>
   <time name="total">   65.62   97.22</time>
   <energy>
    <i name="e_fr_energy">    -45.36845117 </i>
    <i name="e_wo_entrp">    -45.36845117 </i>
    <i name="e_0_energy">    -45.36845117 </i>
   </energy>
  </scstep>
  <scstep>
   <time name="dav">   19.88   30.49</time>
   <time name="total">   60.56   92.89</time>
   <energy>
    <i name="e_fr_energy">    -45.36995468 </i>
    <i name="e_wo_entrp">    -45.36995468 </i>
    <i name="e_0_energy">    -45.36995468 </i>
   </energy>
  </scstep>
  <scstep>
   <time name="dav">   20.44   31.41</time>
   <time name="total">   59.80   92.62</time>
   <energy>
    <i name="e_fr_energy">    -45.37070883 </i>
    <i name="e_wo_entrp">    -45.37070883 </i>
    <i name="e_0_energy">    -45.37070883 </i>
   </energy>
  </scstep>
  <scstep>
   <time name="dav">   17.46   27.79</time>
   <time name="total">   57.41   88.41</time>
   <energy>
    <i name="e_fr_energy">    -45.37124660 </i>
    <i name="e_wo_entrp">    -45.37124660 </i>
    <i name="e_0_energy">    -45.37124660 </i>
   </energy>
  </scstep>
  <scstep>
   <time name="dav">   19.09   28.94</time>
   <time name="total">   59.44   89.97</time>
   <energy>
    <i name="e_fr_energy">    -45.37160474 </i>
    <i name="e_wo_entrp">    -45.37160474 </i>
    <i name="e_0_energy">    -45.37160474 </i>
   </energy>
  </scstep>
  <scstep>
   <time name="dav">   21.71   31.15</time>
   <time name="total">   62.00   93.12</time>
   <energy>
    <i name="e_fr_energy">    -45.37186042 </i>
    <i name="e_wo_entrp">    -45.37186042 </i>
    <i name="e_0_energy">    -45.37186042 </i>
   </energy>
  </scstep>
  <scstep>
   <time name="dav">   21.20   31.76</time>
   <time name="total">   59.82   90.82</time>
   <energy>
    <i name="alphaZ">     33.62852870 </i>
    <i name="ewald">   5985.89955237 </i>
    <i name="hartreedc">  -8017.25928420 </i>
    <i name="XCdc">    -61.90313339 </i>
    <i name="pawpsdc">   1202.57637554 </i>
    <i name="pawaedc">  -1044.98006707 </i>
    <i name="eentropy">      0.00000000 </i>
    <i name="bandstr">   -461.61201222 </i>
    <i name="atom">   2318.27820089 </i>
    <i name="e_fr_energy">    -45.37183938 </i>
    <i name="e_wo_entrp">    -45.37183938 </i>
    <i name="e_0_energy">    -45.37183938 </i>
   </energy>
  </scstep>
  <structure>
   <crystal>
    <varray name="basis" >
     <v>       6.90777700      -0.00000000       0.00000000 </v>
     <v>       3.45388800       5.98231000       0.00000000 </v>
     <v>       0.00000000       0.00000000      23.44458800 </v>
    </varray>
    <i name="volume">    968.83501932 </i>
    <varray name="rec_basis" >
     <v>       0.14476437      -0.08357974       0.00000000 </v>
     <v>       0.00000000       0.16715951      -0.00000000 </v>
     <v>      -0.00000000       0.00000000       0.04265377 </v>
    </varray>
   </crystal>
   <varray name="positions" >
    <v>       0.33333300       0.33333300       0.49992500 </v>
    <v>       0.66666700       0.66666700       0.50007500 </v>
    <v>       0.00000000       0.00000000       0.44821600 </v>
    <v>       0.00000000       0.00000000       0.55178400 </v>
    <v>       0.62635700       0.00042000       0.57375200 </v>
    <v>       0.00042000       0.37322400       0.57375200 </v>
    <v>       0.37322400       0.62635700       0.57375200 </v>
    <v>       0.37364300       0.99958000       0.42624800 </v>
    <v>       0.99958000       0.62677600       0.42624800 </v>
    <v>       0.62677600       0.37364300       0.42624800 </v>
   </varray>
  </structure>
  <varray name="forces" >
   <v>       0.00000000       0.00000000       0.00472997 </v>
   <v>       0.00000000      -0.00000000      -0.00472997 </v>
   <v>       0.00000000       0.00000000      -0.54768464 </v>
   <v>       0.00000000      -0.00000000       0.54768464 </v>
   <v>       0.57502927      -0.00621686      -1.03146052 </v>
   <v>      -0.29289855      -0.49488149      -1.03146052 </v>
   <v>      -0.28213072       0.50109836      -1.03146052 </v>
   <v>      -0.57502927       0.00621686       1.03146052 </v>
   <v>       0.29289855       0.49488149       1.03146052 </v>
   <v>       0.28213072      -0.50109836       1.03146052 </v>
  </varray>
  <varray name="stress" >
   <v>     -31.04593136       0.00000199      -0.00000000 </v>
   <v>       0.00000320     -31.04592756      -0.00000000 </v>
   <v>       0.00000000      -0.00000000     -15.46404226 </v>
  </varray>
  <energy>
   <i name="e_fr_energy">    -45.37183938 </i>
   <i name="e_wo_entrp">    -45.37183938 </i>
   <i name="e_0_energy">      0.00000000 </i>
  </energy>
  <time name="totalsc"> 1428.58 2160.24</time>
 </calculation>
 <calculation>
  <scstep>
   <time name="dav">   26.20   39.76</time>
   <time name="total">   66.20  101.97</time>
   <energy>
    <i name="alphaZ">     42.58092570 </i>
    <i name="ewald">   7186.50722365 </i>
    <i name="hartreedc">  -9349.38755794 </i>
    <i name="XCdc">    -53.94996388 </i>
    <i name="pawpsdc">   1202.56105883 </i>
    <i name="pawaedc">  -1044.96289735 </i>
    <i name="eentropy">      0.00000000 </i>
    <i name="bandstr">   -357.98619908 </i>
    <i name="atom">   2318.27820089 </i>
    <i name="e_fr_energy">    -56.35920917 </i>
    <i name="e_wo_entrp">    -56.35920917 </i>
    <i name="e_0_energy">    -56.35920917 </i>
   </energy>
  </scstep>
  <scstep>
   <time name="dav">   28.98   42.80</time>
   <time name="total">   71.78  104.85</time>
   <energy>
    <i name="e_fr_energy">    -49.90068878 </i>
    <i name="e_wo_entrp">    -49.90068878 </i>
    <i name="e_0_energy">    -49.90068878 </i>
   </energy>
  </scstep>
  <scstep>
   <time name="dav">   27.28   40.68</time>
   <time name="total">   68.31  103.05</time>
   <energy>
    <i name="e_fr_energy">    -48.85438193 </i>
    <i name="e_wo_entrp">    -48.85438193 </i>
    <i name="e_0_energy">    -48.85438193 </i>
   </energy>
  </scstep>
  <scstep>
   <time name="dav">   27.28   42.16</time>
   <time name="total">   68.27  103.86</time>
   <energy>
    <i name="e_fr_energy">    -47.23041608 </i>
    <i name="e_wo_entrp">    -47.23041608 </i>
    <i name="e_0_energy">    -47.23041608 </i>
   </energy>
  </scstep>
  <scstep>
   <time name="dav">   27.26   40.89</time>
   <time name="total">   67.50  103.23</time>
   <energy>
    <i name="e_fr_energy">    -47.18863895 </i>
    <i name="e_wo_entrp">    -47.18863895 </i>
    <i name="e_0_energy">    -47.18863895 </i>
   </energy>
  </scstep>
  <scstep>
   <time name="dav">   23.56   37.19</time>
   <time name="total">   65.28   99.60</time>
   <energy>
    <i name="e_fr_energy">    -47.18833476 </i>
    <i name="e_wo_entrp">    -47.18833476 </i>
    <i name="e_0_energy">    -47.18833476 </i>
   </energy>
  </scstep>
  <scstep>
   <time name="dav">   22.59   34.97</time>
   <time name="total">   65.38   98.58</time>
   <energy>
    <i name="e_fr_energy">    -47.18940661 </i>
    <i name="e_wo_entrp">    -47.18940661 </i>
    <i name="e_0_energy">    -47.18940661 </i>
   </energy>
  </scstep>
  <scstep>
   <time name="dav">   22.61   33.50</time>
   <time name="total">   62.56   94.84</time>
   <energy>
    <i name="e_fr_energy">    -47.19188009 </i>
    <i name="e_wo_entrp">    -47.19188009 </i>
    <i name="e_0_energy">    -47.19188009 </i>
   </energy>
  </scstep>
  <scstep>
   <time name="dav">   25.09   36.54</time>
   <time name="total">   66.92   99.45</time>
   <energy>
    <i name="e_fr_energy">    -47.19280740 </i>
    <i name="e_wo_entrp">    -47.19280740 </i>
    <i name="e_0_energy">    -47.19280740 </i>
   </energy>
  </scstep>
  <scstep>
   <time name="dav">   21.31   32.34</time>
   <time name="total">   61.65   94.40</time>
   <energy>
    <i name="e_fr_energy">    -47.19389743 </i>
    <i name="e_wo_entrp">    -47.19389743 </i>
    <i name="e_0_energy">    -47.19389743 </i>
   </energy>
  </scstep>
  <scstep>
   <time name="dav">   25.11   37.05</time>
   <time name="total">   66.16   99.25</time>
   <energy>
    <i name="e_fr_energy">    -47.19437368 </i>
    <i name="e_wo_entrp">    -47.19437368 </i>
    <i name="e_0_energy">    -47.19437368 </i>
   </energy>
  </scstep>
  <scstep>
   <time name="dav">   22.15   33.13</time>
   <time name="total">   62.74   95.14</time>
   <energy>
    <i name="e_fr_energy">    -47.19368814 </i>
    <i name="e_wo_entrp">    -47.19368814 </i>
    <i name="e_0_energy">    -47.19368814 </i>
   </energy>
  </scstep>
  <scstep>
   <time name="dav">   23.60   34.87</time>
   <time name="total">   66.26   96.71</time>
   <energy>
    <i name="e_fr_energy">    -47.19309873 </i>
    <i name="e_wo_entrp">    -47.19309873 </i>
    <i name="e_0_energy">    -47.19309873 </i>
   </energy>
  </scstep>
  <scstep>
   <time name="dav">   19.42   29.40</time>
   <time name="total">   60.92   90.87</time>
   <energy>
    <i name="e_fr_energy">    -47.19267755 </i>
    <i name="e_wo_entrp">    -47.19267755 </i>
    <i name="e_0_energy">    -47.19267755 </i>
   </energy>
  </scstep>
  <scstep>
   <time name="dav">   19.12   28.76</time>
   <time name="total">   61.04   91.75</time>
   <energy>
    <i name="e_fr_energy">    -47.19211962 </i>
    <i name="e_wo_entrp">    -47.19211962 </i>
    <i name="e_0_energy">    -47.19211962 </i>
   </energy>
  </scstep>
  <scstep>
   <time name="dav">   19.70   30.50</time>
   <time name="total">   60.95   91.48</time>
   <energy>
    <i name="e_fr_energy">    -47.19184314 </i>
    <i name="e_wo_entrp">    -47.19184314 </i>
    <i name="e_0_energy">    -47.19184314 </i>
   </energy>
  </scstep>
  <scstep>
   <time name="dav">   23.82   35.78</time>
   <time name="total">   65.57   98.70</time>
   <energy>
    <i name="e_fr_energy">    -47.19145400 </i>
    <i name="e_wo_entrp">    -47.19145400 </i>
    <i name="e_0_energy">    -47.19145400 </i>
   </energy>
  </scstep>
  <scstep>
   <time name="dav">   21.10   31.23</time>
   <time name="total">   61.20   92.31</time>
   <energy>
    <i name="alphaZ">     42.58092570 </i>
    <i name="ewald">   7186.50722365 </i>
    <i name="hartreedc">  -9242.01851743 </i>
    <i name="XCdc">    -57.84443946 </i>
    <i name="pawpsdc">   1307.64243892 </i>
    <i name="pawaedc">  -1151.70483405 </i>
    <i name="eentropy">      0.00000000 </i>
    <i name="bandstr">   -450.63247213 </i>
    <i name="atom">   2318.27820089 </i>
    <i name="e_fr_energy">    -47.19147392 </i>
    <i name="e_wo_entrp">    -47.19147392 </i>
    <i name="e_0_energy">    -47.19147392 </i>
   </energy>
  </scstep>
  <structure>
   <crystal>
    <varray name="basis" >
     <v>       6.28215294       0.00000004      -0.00000000 </v>
     <v>       3.14107607       5.44050379      -0.00000000 </v>
     <v>       0.00000000      -0.00000000      22.38695237 </v>
    </varray>
    <i name="volume">    765.14297706 </i>
    <varray name="rec_basis" >
     <v>       0.15918110      -0.09190324      -0.00000000 </v>
     <v>      -0.00000000       0.18380651       0.00000000 </v>
     <v>       0.00000000       0.00000000       0.04466888 </v>
    </varray>
   </crystal>
   <varray name="positions" >
    <v>       0.33333300       0.33333300       0.49992500 </v>
    <v>       0.66666700       0.66666700       0.50007500 </v>
    <v>       0.00000000       0.00000000       0.44821600 </v>
    <v>       0.00000000       0.00000000       0.55178400 </v>
    <v>       0.63039797       0.00036987       0.57162953 </v>
    <v>       0.00036987       0.36923317       0.57162953 </v>
    <v>       0.36923317       0.63039797       0.57162953 </v>
    <v>       0.36960203       0.99963013       0.42837047 </v>
    <v>       0.99963013       0.63076683       0.42837047 </v>
    <v>       0.63076683       0.36960203       0.42837047 </v>
   </varray>
  </structure>
  <varray name="forces" >
   <v>       0.00000000      -0.00000000      -0.00185580 </v>
   <v>       0.00000000       0.00000000       0.00185580 </v>
   <v>       0.00000000       0.00000000      -0.32801868 </v>
   <v>       0.00000000      -0.00000000       0.32801868 </v>
   <v>      -0.50416752      -0.00832630       0.35176690 </v>
   <v>       0.24487294       0.44078501       0.35176690 </v>
   <v>       0.25929458      -0.43245871       0.35176690 </v>
   <v>       0.50416752       0.00832630      -0.35176690 </v>
   <v>      -0.24487294      -0.44078501      -0.35176690 </v>
   <v>      -0.25929458       0.43245871      -0.35176690 </v>
  </varray>
  <varray name="stress" >
   <v>      13.21299758      -0.00000150       0.00000000 </v>
   <v>      -0.00000027      13.21299628       0.00000000 </v>
   <v>       0.00000000       0.00000000       8.65698456 </v>
  </varray>
  <energy>
   <i name="e_fr_energy">    -47.19147392 </i>
   <i name="e_wo_entrp">    -47.19147392 </i>
   <i name="e_0_energy">      0.00000000 </i>
  </energy>
  <time name="totalsc"> 1272.66 1912.75</time>
 </calculation>
 <calculation>
  <scstep>
   <time name="dav">   24.35   36.94</time>
   <time name="total">   65.55   98.59</time>
   <energy>
    <i name="alphaZ">     40.65342229 </i>
    <i name="ewald">   6931.65707468 </i>
    <i name="hartreedc">  -8963.27533540 </i>
    <i name="XCdc">    -59.36553059 </i>
    <i name="pawpsdc">   1307.66127660 </i>
    <i name="pawaedc">  -1151.72265701 </i>
    <i name="eentropy">      0.00000000 </i>
    <i name="bandstr">   -471.56358627 </i>
    <i name="atom">   2318.27820089 </i>
    <i name="e_fr_energy">    -47.67713481 </i>
    <i name="e_wo_entrp">    -47.67713481 </i>
    <i name="e_0_energy">    -47.67713481 </i>
   </energy>
  </scstep>
  <scstep>
   <time name="dav">   23.21   36.26</time>
   <time name="total">   65.06   98.08</time>
   <energy>
    <i name="e_fr_energy">    -47.46100390 </i>
    <i name="e_wo_entrp">    -47.46100390 </i>
    <i name="e_0_energy">    -47.46100390 </i>
   </energy>
  </scstep>
  <scstep>
   <time name="dav">   23.64   36.92</time>
   <time name="total">   63.68   98.76</time>
   <energy>
    <i name="e_fr_energy">    -47.39090556 </i>
    <i name="e_wo_entrp">    -47.39090556 </i>
    <i name="e_0_energy">    -47.39090556 </i>
   </energy>
  </scstep>
  <scstep>
   <time name="dav">   25.57   38.29</time>
   <time name="total">   66.60   99.90</time>
   <energy>
    <i name="e_fr_energy">    -47.34633538 </i>
    <i name="e_wo_entrp">    -47.34633538 </i>
    <i name="e_0_energy">    -47.34633538 </i>
   </energy>
  </scstep>
  <scstep>
   <time name="dav">   25.68   38.57</time>
   <time name="total">   66.33  100.36</time>
   <energy>
    <i name="e_fr_energy">    -47.34355836 </i>
    <i name="e_wo_entrp">    -47.34355836 </i>
    <i name="e_0_energy">    -47.34355836 </i>
   </energy>
  </scstep>
  <scstep>
   <time name="dav">   20.67   30.69</time>
   <time name="total">   62.19   92.30</time>
   <energy>
    <i name="e_fr_energy">    -47.34313008 </i>
    <i name="e_wo_entrp">    -47.34313008 </i>
    <i name="e_0_energy">    -47.34313008 </i>
   </energy>
  </scstep>
  <scstep>
   <time name="dav">   19.46   29.04</time>
   <time name="total">   60.46   88.57</time>
   <energy>
    <i name="alphaZ">     40.65342229 </i>
    <i name="ewald">   6931.65707468 </i>
    <i name="hartreedc">  -8979.70228350 </i>
    <i name="XCdc">    -58.76664951 </i>
    <i name="pawpsdc">   1282.37571565 </i>
    <i name="pawaedc">  -1126.01297714 </i>
    <i name="eentropy">      0.00000000 </i>
    <i name="bandstr">   -455.82559550 </i>
    <i name="atom">   2318.27820089 </i>
    <i name="e_fr_energy">    -47.34309214 </i>
    <i name="e_wo_entrp">    -47.34309214 </i>
    <i name="e_0_energy">    -47.34309214 </i>
   </energy>
  </scstep>
  <structure>
   <crystal>
    <varray name="basis" >
     <v>       6.40075686       0.00000003      -0.00000000 </v>
     <v>       3.20037801       5.54321777      -0.00000000 </v>
     <v>       0.00000000      -0.00000000      22.58745573 </v>
    </varray>
    <i name="volume">    801.42075183 </i>
    <varray name="rec_basis" >
     <v>       0.15623152      -0.09020031      -0.00000000 </v>
     <v>      -0.00000000       0.18040063       0.00000000 </v>
     <v>       0.00000000       0.00000000       0.04427236 </v>
    </varray>
   </crystal>
   <varray name="positions" >
    <v>       0.33333300       0.33333300       0.49992500 </v>
    <v>       0.66666700       0.66666700       0.50007500 </v>
    <v>       0.00000000       0.00000000       0.44821600 </v>
    <v>       0.00000000       0.00000000       0.55178400 </v>
    <v>       0.62955560       0.00038032       0.57205091 </v>
    <v>       0.00038032       0.37006508       0.57205091 </v>
    <v>       0.37006508       0.62955560       0.57205091 </v>
    <v>       0.37044440       0.99961968       0.42794909 </v>
    <v>       0.99961968       0.62993492       0.42794909 </v>
    <v>       0.62993492       0.37044440       0.42794909 </v>
   </varray>
  </structure>
  <varray name="forces" >
   <v>      -0.00000000      -0.00000000      -0.00021327 </v>
   <v>      -0.00000000      -0.00000000       0.00021327 </v>
   <v>      -0.00000000      -0.00000000      -0.39162709 </v>
   <v>      -0.00000000      -0.00000000       0.39162709 </v>
   <v>      -0.18949400      -0.00714811      -0.02114185 </v>
   <v>       0.08855654       0.16768067      -0.02114185 </v>
   <v>       0.10093746      -0.16053255      -0.02114185 </v>
   <v>       0.18949400       0.00714811       0.02114185 </v>
   <v>      -0.08855654      -0.16768067       0.02114185 </v>
   <v>      -0.10093746       0.16053255       0.02114185 </v>
  </varray>
  <varray name="stress" >
   <v>      -0.74000737      -0.00000096       0.00000000 </v>
   <v>       0.00000106      -0.74000729       0.00000000 </v>
   <v>       0.00000000       0.00000000       1.66446241 </v>
  </varray>
  <energy>
   <i name="e_fr_energy">    -47.34309214 </i>
   <i name="e_wo_entrp">    -47.34309214 </i>
   <i name="e_0_energy">      0.00000000 </i>
  </energy>
  <time name="totalsc">  551.49  828.76</time>
 </calculation>
 <calculation>
  <scstep>
   <time name="dav">   22.05   31.96</time>
   <time name="total">   61.58   93.05</time>
   <energy>
    <i name="alphaZ">     40.65933962 </i>
    <i name="ewald">   7005.29395314 </i>
    <i name="hartreedc">  -9049.93208845 </i>
    <i name="XCdc">    -58.78070160 </i>
    <i name="pawpsdc">   1281.39820680 </i>
    <i name="pawaedc">  -1125.01065572 </i>
    <i name="eentropy">      0.00000000 </i>
    <i name="bandstr">   -459.26295544 </i>
    <i name="atom">   2318.27820089 </i>
    <i name="e_fr_energy">    -47.35670076 </i>
    <i name="e_wo_entrp">    -47.35670076 </i>
    <i name="e_0_energy">    -47.35670076 </i>
   </energy>
  </scstep>
  <scstep>
   <time name="dav">   24.94   36.08</time>
   <time name="total">   65.62   97.13</time>
   <energy>
    <i name="e_fr_energy">    -47.35722124 </i>
    <i name="e_wo_entrp">    -47.35722124 </i>
    <i name="e_0_energy">    -47.35722124 </i>
   </energy>
  </scstep>
  <scstep>
   <time name="dav">   23.74   35.39</time>
   <time name="total">   66.36   99.20</time>
   <energy>
    <i name="e_fr_energy">    -47.35585924 </i>
    <i name="e_wo_entrp">    -47.35585924 </i>
    <i name="e_0_energy">    -47.35585924 </i>
   </energy>
  </scstep>
  <scstep>
   <time name="dav">   25.34   39.73</time>
   <time name="total">   66.88  101.56</time>
   <energy>
    <i name="e_fr_energy">    -47.35489709 </i>
    <i name="e_wo_entrp">    -47.35489709 </i>
    <i name="e_0_energy">    -47.35489709 </i>
   </energy>
  </scstep>
  <scstep>
   <time name="dav">   21.92   32.94</time>
   <time name="total">   62.64   94.03</time>
   <energy>
    <i name="e_fr_energy">    -47.35465914 </i>
    <i name="e_wo_entrp">    -47.35465914 </i>
    <i name="e_0_energy">    -47.35465914 </i>
   </energy>
  </scstep>
  <scstep>
   <time name="dav">   18.62   30.91</time>
   <time name="total">   59.37   91.54</time>
   <energy>
    <i name="alphaZ">     40.65933962 </i>
    <i name="ewald">   7005.29395314 </i>
    <i name="hartreedc">  -9052.40716864 </i>
    <i name="XCdc">    -58.77218973 </i>
    <i name="pawpsdc">   1281.78139771 </i>
    <i name="pawaedc">  -1125.40079343 </i>
    <i name="eentropy">      0.00000000 </i>
    <i name="bandstr">   -456.78734750 </i>
    <i name="atom">   2318.27820089 </i>
    <i name="e_fr_energy">    -47.35460794 </i>
    <i name="e_wo_entrp">    -47.35460794 </i>
    <i name="e_0_energy">    -47.35460794 </i>
   </energy>
  </scstep>
  <structure>
   <crystal>
    <varray name="basis" >
     <v>       6.38831772       0.00000002       0.00000000 </v>
     <v>       3.19415846       5.53244516       0.00000000 </v>
     <v>      -0.00000000      -0.00000000      22.67220450 </v>
    </varray>
    <i name="volume">    801.30411750 </i>
    <varray name="rec_basis" >
     <v>       0.15653573      -0.09037594      -0.00000000 </v>
     <v>      -0.00000000       0.18075191       0.00000000 </v>
     <v>      -0.00000000       0.00000000       0.04410687 </v>
    </varray>
   </crystal>
   <varray name="positions" >
    <v>       0.33333300       0.33333300       0.49992500 </v>
    <v>       0.66666700       0.66666700       0.50007500 </v>
    <v>       0.00000000       0.00000000       0.44821600 </v>
    <v>       0.00000000       0.00000000       0.55178400 </v>
    <v>       0.62822231       0.00032033       0.57200199 </v>
    <v>       0.00032033       0.37145836       0.57200199 </v>
    <v>       0.37145836       0.62822231       0.57200199 </v>
    <v>       0.37177769       0.99967967       0.42799801 </v>
    <v>       0.99967967       0.62854164       0.42799801 </v>
    <v>       0.62854164       0.37177769       0.42799801 </v>
   </varray>
  </structure>
  <varray name="forces" >
   <v>      -0.00000000       0.00000000       0.00142674 </v>
   <v>      -0.00000000       0.00000000      -0.00142674 </v>
   <v>      -0.00000000       0.00000000      -0.33092573 </v>
   <v>      -0.00000000       0.00000000       0.33092573 </v>
   <v>      -0.12445784      -0.00240111      -0.03185946 </v>
   <v>       0.06014949       0.10898420      -0.03185946 </v>
   <v>       0.06430834      -0.10658309      -0.03185946 </v>
   <v>       0.12445784       0.00240111       0.03185946 </v>
   <v>      -0.06014949      -0.10898420       0.03185946 </v>
   <v>      -0.06430834       0.10658309       0.03185946 </v>
  </varray>
  <varray name="stress" >
   <v>      -0.16995325      -0.00000083       0.00000000 </v>
   <v>       0.00000085      -0.16995323      -0.00000000 </v>
   <v>       0.00000000      -0.00000000       1.63520076 </v>
  </varray>
  <energy>
   <i name="e_fr_energy">    -47.35460794 </i>
   <i name="e_wo_entrp">    -47.35460794 </i>
   <i name="e_0_energy">      0.00000000 </i>
  </energy>
  <time name="totalsc">  485.36  729.18</time>
 </calculation>
 <calculation>
  <scstep>
   <time name="dav">   20.28   31.35</time>
   <time name="total">   61.26   93.30</time>
   <energy>
    <i name="alphaZ">     40.67583922 </i>
    <i name="ewald">   7172.77854126 </i>
    <i name="hartreedc">  -9212.24445772 </i>
    <i name="XCdc">    -58.80730845 </i>
    <i name="pawpsdc">   1281.66494056 </i>
    <i name="pawaedc">  -1125.28490341 </i>
    <i name="eentropy">      0.00000000 </i>
    <i name="bandstr">   -464.43287840 </i>
    <i name="atom">   2318.27820089 </i>
    <i name="e_fr_energy">    -47.37202603 </i>
    <i name="e_wo_entrp">    -47.37202603 </i>
    <i name="e_0_energy">    -47.37202603 </i>
   </energy>
  </scstep>
  <scstep>
   <time name="dav">   21.26   31.93</time>
   <time name="total">   62.14   93.81</time>
   <energy>
    <i name="e_fr_energy">    -47.37567828 </i>
    <i name="e_wo_entrp">    -47.37567828 </i>
    <i name="e_0_energy">    -47.37567828 </i>
   </energy>
  </scstep>
  <scstep>
   <time name="dav">   23.30   35.38</time>
   <time name="total">   64.40   99.39</time>
   <energy>
    <i name="e_fr_energy">    -47.36962453 </i>
    <i name="e_wo_entrp">    -47.36962453 </i>
    <i name="e_0_energy">    -47.36962453 </i>
   </energy>
  </scstep>
  <scstep>
   <time name="dav">   26.78   38.48</time>
   <time name="total">   66.73   99.41</time>
   <energy>
    <i name="e_fr_energy">    -47.36551075 </i>
    <i name="e_wo_entrp">    -47.36551075 </i>
    <i name="e_0_energy">    -47.36551075 </i>
   </energy>
  </scstep>
  <scstep>
   <time name="dav">   22.38   33.82</time>
   <time name="total">   63.73   95.05</time>
   <energy>
    <i name="e_fr_energy">    -47.36449483 </i>
    <i name="e_wo_entrp">    -47.36449483 </i>
    <i name="e_0_energy">    -47.36449483 </i>
   </energy>
  </scstep>
  <scstep>
   <time name="dav">   20.88   32.36</time>
   <time name="total">   63.03   95.47</time>
   <energy>
    <i name="e_fr_energy">    -47.36426705 </i>
    <i name="e_wo_entrp">    -47.36426705 </i>
    <i name="e_0_energy">    -47.36426705 </i>
   </energy>
  </scstep>
  <scstep>
   <time name="dav">   20.60   30.38</time>
   <time name="total">   60.26   92.52</time>
   <energy>
    <i name="e_fr_energy">    -47.36404023 </i>
    <i name="e_wo_entrp">    -47.36404023 </i>
    <i name="e_0_energy">    -47.36404023 </i>
   </energy>
  </scstep>
  <scstep>
   <time name="dav">   19.64   29.88</time>
   <time name="total">   58.90   89.57</time>
   <energy>
    <i name="alphaZ">     40.67583922 </i>
    <i name="ewald">   7172.77854126 </i>
    <i name="hartreedc">  -9218.92282414 </i>
    <i name="XCdc">    -58.78095710 </i>
    <i name="pawpsdc">   1282.39284019 </i>
    <i name="pawaedc">  -1126.00755522 </i>
    <i name="eentropy">      0.00000000 </i>
    <i name="bandstr">   -457.77814421 </i>
    <i name="atom">   2318.27820089 </i>
    <i name="e_fr_energy">    -47.36405910 </i>
    <i name="e_wo_entrp">    -47.36405910 </i>
    <i name="e_0_energy">    -47.36405910 </i>
   </energy>
  </scstep>
  <structure>
   <crystal>
    <varray name="basis" >
     <v>       6.36035749      -0.00000001       0.00000000 </v>
     <v>       3.18017837       5.50823087       0.00000000 </v>
     <v>      -0.00000000      -0.00000000      22.86269967 </v>
    </varray>
    <i name="volume">    800.97907940 </i>
    <varray name="rec_basis" >
     <v>       0.15722387      -0.09077324      -0.00000000 </v>
     <v>       0.00000000       0.18154649       0.00000000 </v>
     <v>      -0.00000000      -0.00000000       0.04373937 </v>
    </varray>
   </crystal>
   <varray name="positions" >
    <v>       0.33333300       0.33333300       0.49992500 </v>
    <v>       0.66666700       0.66666700       0.50007500 </v>
    <v>       0.00000000       0.00000000       0.44821600 </v>
    <v>       0.00000000       0.00000000       0.55178400 </v>
    <v>       0.62521955       0.00018523       0.57189243 </v>
    <v>       0.00018523       0.37459622       0.57189243 </v>
    <v>       0.37459622       0.62521955       0.57189243 </v>
    <v>       0.37478045       0.99981477       0.42810757 </v>
    <v>       0.99981477       0.62540378       0.42810757 </v>
    <v>       0.62540378       0.37478045       0.42810757 </v>
   </varray>
  </structure>
  <varray name="forces" >
   <v>       0.00000000      -0.00000000       0.00658494 </v>
   <v>       0.00000000      -0.00000000      -0.00658494 </v>
   <v>       0.00000000      -0.00000000      -0.17884715 </v>
   <v>       0.00000000      -0.00000000       0.17884715 </v>
   <v>       0.01370218      -0.00223155      -0.05552721 </v>
   <v>      -0.00878367      -0.01075066      -0.05552721 </v>
   <v>      -0.00491851       0.01298221      -0.05552721 </v>
   <v>      -0.01370218       0.00223155       0.05552721 </v>
   <v>       0.00878367       0.01075066       0.05552721 </v>
   <v>       0.00491851      -0.01298221       0.05552721 </v>
  </varray>
  <varray name="stress" >
   <v>       0.32465278      -0.00000067      -0.00000000 </v>
   <v>       0.00000062       0.32465274      -0.00000000 </v>
   <v>       0.00000000      -0.00000000       0.32927876 </v>
  </varray>
  <energy>
   <i name="e_fr_energy">    -47.36405910 </i>
   <i name="e_wo_entrp">    -47.36405910 </i>
   <i name="e_0_energy">      0.00000000 </i>
  </energy>
  <time name="totalsc">  602.16  913.26</time>
 </calculation>
 <calculation>
  <scstep>
   <time name="dav">   23.15   34.57</time>
   <time name="total">   64.93   96.97</time>
   <energy>
    <i name="alphaZ">     40.54312428 </i>
    <i name="ewald">   7186.15420844 </i>
    <i name="hartreedc">  -9230.31310463 </i>
    <i name="XCdc">    -58.83693268 </i>
    <i name="pawpsdc">   1282.22533621 </i>
    <i name="pawaedc">  -1125.83483789 </i>
    <i name="eentropy">      0.00000000 </i>
    <i name="bandstr">   -459.58242772 </i>
    <i name="atom">   2318.27820089 </i>
    <i name="e_fr_energy">    -47.36643311 </i>
    <i name="e_wo_entrp">    -47.36643311 </i>
    <i name="e_0_energy">    -47.36643311 </i>
   </energy>
  </scstep>
  <scstep>
   <time name="dav">   23.70   34.43</time>
   <time name="total">   65.21   96.09</time>
   <energy>
    <i name="e_fr_energy">    -47.36542111 </i>
    <i name="e_wo_entrp">    -47.36542111 </i>
    <i name="e_0_energy">    -47.36542111 </i>
   </energy>
  </scstep>
  <scstep>
   <time name="dav">   25.83   38.47</time>
   <time name="total">   65.12   99.42</time>
   <energy>
    <i name="e_fr_energy">    -47.36455149 </i>
    <i name="e_wo_entrp">    -47.36455149 </i>
    <i name="e_0_energy">    -47.36455149 </i>
   </energy>
  </scstep>
  <scstep>
   <time name="dav">   25.20   38.58</time>
   <time name="total">   68.36  101.88</time>
   <energy>
    <i name="e_fr_energy">    -47.36409640 </i>
    <i name="e_wo_entrp">    -47.36409640 </i>
    <i name="e_0_energy">    -47.36409640 </i>
   </energy>
  </scstep>
  <scstep>
   <time name="dav">   19.28   27.94</time>
   <time name="total">   60.07   90.10</time>
   <energy>
    <i name="e_fr_energy">    -47.36396019 </i>
    <i name="e_wo_entrp">    -47.36396019 </i>
    <i name="e_0_energy">    -47.36396019 </i>
   </energy>
  </scstep>
  <scstep>
   <time name="dav">   17.81   26.60</time>
   <time name="total">   58.93   88.25</time>
   <energy>
    <i name="e_fr_energy">    -47.36379836 </i>
    <i name="e_wo_entrp">    -47.36379836 </i>
    <i name="e_0_energy">    -47.36379836 </i>
   </energy>
  </scstep>
  <scstep>
   <time name="dav">   21.22   32.24</time>
   <time name="total">   63.26   93.67</time>
   <energy>
    <i name="e_fr_energy">    -47.36350939 </i>
    <i name="e_wo_entrp">    -47.36350939 </i>
    <i name="e_0_energy">    -47.36350939 </i>
   </energy>
  </scstep>
  <scstep>
   <time name="dav">   21.94   31.76</time>
   <time name="total">   61.73   91.76</time>
   <energy>
    <i name="alphaZ">     40.54312428 </i>
    <i name="ewald">   7186.15420844 </i>
    <i name="hartreedc">  -9234.94462504 </i>
    <i name="XCdc">    -58.78991713 </i>
    <i name="pawpsdc">   1281.18266718 </i>
    <i name="pawaedc">  -1124.76801992 </i>
    <i name="eentropy">      0.00000000 </i>
    <i name="bandstr">   -455.01908731 </i>
    <i name="atom">   2318.27820089 </i>
    <i name="e_fr_energy">    -47.36344861 </i>
    <i name="e_wo_entrp">    -47.36344861 </i>
    <i name="e_0_energy">    -47.36344861 </i>
   </energy>
  </scstep>
  <structure>
   <crystal>
    <varray name="basis" >
     <v>       6.36534797      -0.00000003       0.00000000 </v>
     <v>       3.18267363       5.51255275       0.00000000 </v>
     <v>      -0.00000000      -0.00000000      22.90158672 </v>
    </varray>
    <i name="volume">    803.60102576 </i>
    <varray name="rec_basis" >
     <v>       0.15710060      -0.09070207      -0.00000000 </v>
     <v>       0.00000000       0.18140416       0.00000000 </v>
     <v>      -0.00000000       0.00000000       0.04366510 </v>
    </varray>
   </crystal>
   <varray name="positions" >
    <v>       0.33333300       0.33333300       0.49992500 </v>
    <v>       0.66666700       0.66666700       0.50007500 </v>
    <v>       0.00000000       0.00000000       0.44821600 </v>
    <v>       0.00000000       0.00000000       0.55178400 </v>
    <v>       0.62516592       0.00014843       0.57172138 </v>
    <v>       0.00014843       0.37468665       0.57172138 </v>
    <v>       0.37468665       0.62516592       0.57172138 </v>
    <v>       0.37483408       0.99985157       0.42827862 </v>
    <v>       0.99985157       0.62531335       0.42827862 </v>
    <v>       0.62531335       0.37483408       0.42827862 </v>
   </varray>
  </structure>
  <varray name="forces" >
   <v>       0.00000000       0.00000000       0.00741146 </v>
   <v>       0.00000000       0.00000000      -0.00741146 </v>
   <v>       0.00000000       0.00000000      -0.14207421 </v>
   <v>       0.00000000       0.00000000       0.14207421 </v>
   <v>       0.01942768      -0.00061842      -0.05689021 </v>
   <v>      -0.01024940      -0.01651565      -0.05689021 </v>
   <v>      -0.00917827       0.01713407      -0.05689021 </v>
   <v>      -0.01942768       0.00061842       0.05689021 </v>
   <v>       0.01024940       0.01651565       0.05689021 </v>
   <v>       0.00917827      -0.01713407       0.05689021 </v>
  </varray>
  <varray name="stress" >
   <v>      -0.02083852      -0.00000059      -0.00000000 </v>
   <v>       0.00000059      -0.02083852       0.00000000 </v>
   <v>       0.00000000       0.00000000      -0.31231938 </v>
  </varray>
  <energy>
   <i name="e_fr_energy">    -47.36344861 </i>
   <i name="e_wo_entrp">    -47.36344861 </i>
   <i name="e_0_energy">      0.00000000 </i>
  </energy>
  <time name="totalsc">  611.06  912.26</time>
 </calculation>
 <calculation>
  <scstep>
   <time name="dav">   24.07   36.63</time>
   <time name="total">   65.06   99.05</time>
   <energy>
    <i name="alphaZ">     40.37884782 </i>
    <i name="ewald">   7202.75416035 </i>
    <i name="hartreedc">  -9248.96186235 </i>
    <i name="XCdc">    -58.86324122 </i>
    <i name="pawpsdc">   1281.33766370 </i>
    <i name="pawaedc">  -1124.93236309 </i>
    <i name="eentropy">      0.00000000 </i>
    <i name="bandstr">   -457.35754249 </i>
    <i name="atom">   2318.27820089 </i>
    <i name="e_fr_energy">    -47.36613639 </i>
    <i name="e_wo_entrp">    -47.36613639 </i>
    <i name="e_0_energy">    -47.36613639 </i>
   </energy>
  </scstep>
  <scstep>
   <time name="dav">   22.54   33.79</time>
   <time name="total">   62.72   95.00</time>
   <energy>
    <i name="e_fr_energy">    -47.36547566 </i>
    <i name="e_wo_entrp">    -47.36547566 </i>
    <i name="e_0_energy">    -47.36547566 </i>
   </energy>
  </scstep>
  <scstep>
   <time name="dav">   25.48   36.61</time>
   <time name="total">   67.44   99.06</time>
   <energy>
    <i name="e_fr_energy">    -47.36430029 </i>
    <i name="e_wo_entrp">    -47.36430029 </i>
    <i name="e_0_energy">    -47.36430029 </i>
   </energy>
  </scstep>
  <scstep>
   <time name="dav">   26.68   39.24</time>
   <time name="total">   68.24  101.89</time>
   <energy>
    <i name="e_fr_energy">    -47.36399302 </i>
    <i name="e_wo_entrp">    -47.36399302 </i>
    <i name="e_0_energy">    -47.36399302 </i>
   </energy>
  </scstep>
  <scstep>
   <time name="dav">   20.18   29.37</time>
   <time name="total">   59.94   88.62</time>
   <energy>
    <i name="alphaZ">     40.37884782 </i>
    <i name="ewald">   7202.75416035 </i>
    <i name="hartreedc">  -9251.08757673 </i>
    <i name="XCdc">    -58.82855993 </i>
    <i name="pawpsdc">   1281.36976658 </i>
    <i name="pawaedc">  -1124.96571676 </i>
    <i name="eentropy">      0.00000000 </i>
    <i name="bandstr">   -455.26308910 </i>
    <i name="atom">   2318.27820089 </i>
    <i name="e_fr_energy">    -47.36396687 </i>
    <i name="e_wo_entrp">    -47.36396687 </i>
    <i name="e_0_energy">    -47.36396687 </i>
   </energy>
  </scstep>
  <structure>
   <crystal>
    <varray name="basis" >
     <v>       6.37155670      -0.00000005      -0.00000000 </v>
     <v>       3.18577801       5.51792966      -0.00000000 </v>
     <v>      -0.00000000      -0.00000000      22.94996664 </v>
    </varray>
    <i name="volume">    806.87037931 </i>
    <varray name="rec_basis" >
     <v>       0.15694752      -0.09061369      -0.00000000 </v>
     <v>       0.00000000       0.18122739       0.00000000 </v>
     <v>       0.00000000       0.00000000       0.04357305 </v>
    </varray>
   </crystal>
   <varray name="positions" >
    <v>       0.33333300       0.33333300       0.49992500 </v>
    <v>       0.66666700       0.66666700       0.50007500 </v>
    <v>       0.00000000       0.00000000       0.44821600 </v>
    <v>       0.00000000       0.00000000       0.55178400 </v>
    <v>       0.62509925       0.00010268       0.57150894 </v>
    <v>       0.00010268       0.37479907       0.57150894 </v>
    <v>       0.37479907       0.62509925       0.57150894 </v>
    <v>       0.37490075       0.99989732       0.42849106 </v>
    <v>       0.99989732       0.62520093       0.42849106 </v>
    <v>       0.62520093       0.37490075       0.42849106 </v>
   </varray>
  </structure>
  <varray name="forces" >
   <v>       0.00000000      -0.00000000       0.00918500 </v>
   <v>       0.00000000       0.00000000      -0.00918500 </v>
   <v>       0.00000000       0.00000000      -0.09291925 </v>
   <v>       0.00000000      -0.00000000       0.09291925 </v>
   <v>       0.02887522       0.00141005      -0.05927640 </v>
   <v>      -0.01321647      -0.02571170      -0.05927640 </v>
   <v>      -0.01565875       0.02430165      -0.05927640 </v>
   <v>      -0.02887522      -0.00141005       0.05927640 </v>
   <v>       0.01321647       0.02571170       0.05927640 </v>
   <v>       0.01565875      -0.02430165       0.05927640 </v>
  </varray>
  <varray name="stress" >
   <v>      -0.44508447      -0.00000098      -0.00000000 </v>
   <v>       0.00000104      -0.44508442      -0.00000000 </v>
   <v>      -0.00000000      -0.00000000      -0.37106671 </v>
  </varray>
  <energy>
   <i name="e_fr_energy">    -47.36396687 </i>
   <i name="e_wo_entrp">    -47.36396687 </i>
   <i name="e_0_energy">      0.00000000 </i>
  </energy>
  <time name="totalsc">  423.68  633.75</time>
  <eigenvalues>
   <array>
    <dimension dim="1">band</dimension>
    <dimension dim="2">kpoint</dimension>
    <dimension dim="3">spin</dimension>
    <field>eigene</field>
    <field>occ</field>
    <set>
     <set comment="spin 1">
      <set comment="kpoint 1">
       <r>  -17.1218    1.0000 </r>
       <r>  -16.3471    1.0000 </r>
       <r>  -15.3728    1.0000 </r>
       <r>  -15.3728    1.0000 </r>
       <r>  -15.3462    1.0000 </r>
       <r>  -15.3462    1.0000 </r>
       <r>  -12.1195    1.0000 </r>
       <r>   -9.9421    1.0000 </r>
       <r>   -7.9135    1.0000 </r>
       <r>   -7.9134    1.0000 </r>
       <r>   -7.7430    1.0000 </r>
       <r>   -7.6694    1.0000 </r>
       <r>   -7.4350    1.0000 </r>
       <r>   -7.4350    1.0000 </r>
       <r>   -6.4619    1.0000 </r>
       <r>   -5.7054    1.0000 </r>
       <r>   -5.7054    1.0000 </r>
       <r>   -5.4357    1.0000 </r>
       <r>   -5.4356    1.0000 </r>
       <r>   -4.9134    1.0000 </r>
       <r>   -4.7714    1.0000 </r>
       <r>   -4.6020    1.0000 </r>
       <r>   -4.6019    1.0000 </r>
       <r>   -4.0663    1.0000 </r>
       <r>   -4.0663    1.0000 </r>
       <r>   -3.9338    1.0000 </r>
       <r>   -3.9338    1.0000 </r>
       <r>   -3.9289    1.0000 </r>
       <r>   -3.5476    1.0000 </r>
       <r>   -3.3688    1.0000 </r>
       <r>   -3.3688    1.0000 </r>
       <r>   -1.8172    0.0000 </r>
       <r>   -1.8172    0.0000 </r>
       <r>   -1.4649    0.0000 </r>
       <r>   -1.3007    0.0000 </r>
       <r>   -1.3007    0.0000 </r>
       <r>   -1.2141    0.0000 </r>
       <r>    0.9099    0.0000 </r>
       <r>    0.9100    0.0000 </r>
       <r>    1.2489    0.0000 </r>
       <r>    1.5019    0.0000 </r>
       <r>    1.9606    0.0000 </r>
       <r>    2.0572    0.0000 </r>
       <r>    2.1029    0.0000 </r>
       <r>    2.4592    0.0000 </r>
       <r>    2.4592    0.0000 </r>
       <r>    2.8973    0.0000 </r>
       <r>    3.2586    0.0000 </r>
      </set>
      <set comment="kpoint 2">
       <r>  -16.9915    1.0000 </r>
       <r>  -16.2537    1.0000 </r>
       <r>  -15.5707    1.0000 </r>
       <r>  -15.4586    1.0000 </r>
       <r>  -15.4145    1.0000 </r>
       <r>  -15.3942    1.0000 </r>
       <r>  -12.0446    1.0000 </r>
       <r>  -10.0403    1.0000 </r>
       <r>   -7.9541    1.0000 </r>
       <r>   -7.8733    1.0000 </r>
       <r>   -7.6766    1.0000 </r>
       <r>   -7.3785    1.0000 </r>
       <r>   -6.9897    1.0000 </r>
       <r>   -6.7759    1.0000 </r>
       <r>   -6.2976    1.0000 </r>
       <r>   -5.8553    1.0000 </r>
       <r>   -5.8213    1.0000 </r>
       <r>   -5.6834    1.0000 </r>
       <r>   -5.2661    1.0000 </r>
       <r>   -5.0027    1.0000 </r>
       <r>   -4.9868    1.0000 </r>
       <r>   -4.9199    1.0000 </r>
       <r>   -4.5681    1.0000 </r>
       <r>   -4.2658    1.0000 </r>
       <r>   -4.2636    1.0000 </r>
       <r>   -4.0279    1.0000 </r>
       <r>   -3.9311    1.0000 </r>
       <r>   -3.8814    1.0000 </r>
       <r>   -3.8100    1.0000 </r>
       <r>   -3.4747    1.0000 </r>
       <r>   -3.4585    1.0000 </r>
       <r>   -2.2052    0.0000 </r>
       <r>   -1.7760    0.0000 </r>
       <r>   -1.7134    0.0000 </r>
       <r>   -1.4940    0.0000 </r>
       <r>   -0.6962    0.0000 </r>
       <r>   -0.6880    0.0000 </r>
       <r>    0.7390    0.0000 </r>
       <r>    0.8642    0.0000 </r>
       <r>    1.4561    0.0000 </r>
       <r>    1.5228    0.0000 </r>
       <r>    1.8641    0.0000 </r>
       <r>    2.1203    0.0000 </r>
       <r>    2.1666    0.0000 </r>
       <r>    2.2332    0.0000 </r>
       <r>    2.4916    0.0000 </r>
       <r>    3.0323    0.0000 </r>
       <r>    3.1709    0.0000 </r>
      </set>
      <set comment="kpoint 3">
       <r>  -16.6384    1.0000 </r>
       <r>  -16.0403    1.0000 </r>
       <r>  -16.0136    1.0000 </r>
       <r>  -15.6345    1.0000 </r>
       <r>  -15.5282    1.0000 </r>
       <r>  -15.5100    1.0000 </r>
       <r>  -11.9152    1.0000 </r>
       <r>  -10.1343    1.0000 </r>
       <r>   -7.8259    1.0000 </r>
       <r>   -7.6814    1.0000 </r>
       <r>   -7.1828    1.0000 </r>
       <r>   -6.7164    1.0000 </r>
       <r>   -6.3331    1.0000 </r>
       <r>   -6.3163    1.0000 </r>
       <r>   -6.2529    1.0000 </r>
       <r>   -6.1331    1.0000 </r>
       <r>   -5.9783    1.0000 </r>
       <r>   -5.9567    1.0000 </r>
       <r>   -5.5173    1.0000 </r>
       <r>   -5.3752    1.0000 </r>
       <r>   -5.3080    1.0000 </r>
       <r>   -4.8901    1.0000 </r>
       <r>   -4.6151    1.0000 </r>
       <r>   -4.4344    1.0000 </r>
       <r>   -4.4320    1.0000 </r>
       <r>   -4.2035    1.0000 </r>
       <r>   -4.0792    1.0000 </r>
       <r>   -3.8236    1.0000 </r>
       <r>   -3.7084    1.0000 </r>
       <r>   -3.6835    1.0000 </r>
       <r>   -3.5445    1.0000 </r>
       <r>   -2.1928    0.0000 </r>
       <r>   -1.9762    0.0000 </r>
       <r>   -1.7769    0.0000 </r>
       <r>   -1.6484    0.0000 </r>
       <r>   -1.1164    0.0000 </r>
       <r>   -0.5620    0.0000 </r>
       <r>    0.6502    0.0000 </r>
       <r>    0.9616    0.0000 </r>
       <r>    1.3460    0.0000 </r>
       <r>    1.6600    0.0000 </r>
       <r>    1.7892    0.0000 </r>
       <r>    2.1235    0.0000 </r>
       <r>    2.2971    0.0000 </r>
       <r>    2.3116    0.0000 </r>
       <r>    2.7450    0.0000 </r>
       <r>    2.8760    0.0000 </r>
       <r>    2.8920    0.0000 </r>
      </set>
      <set comment="kpoint 4">
       <r>  -16.7470    1.0000 </r>
       <r>  -16.0851    1.0000 </r>
       <r>  -15.7909    1.0000 </r>
       <r>  -15.7032    1.0000 </r>
       <r>  -15.5279    1.0000 </r>
       <r>  -15.4652    1.0000 </r>
       <r>  -11.9218    1.0000 </r>
       <r>  -10.1067    1.0000 </r>
       <r>   -8.0041    1.0000 </r>
       <r>   -7.5773    1.0000 </r>
       <r>   -7.4235    1.0000 </r>
       <r>   -6.9210    1.0000 </r>
       <r>   -6.3497    1.0000 </r>
       <r>   -6.2597    1.0000 </r>
       <r>   -6.1594    1.0000 </r>
       <r>   -6.1181    1.0000 </r>
       <r>   -6.0361    1.0000 </r>
       <r>   -5.7825    1.0000 </r>
       <r>   -5.6714    1.0000 </r>
       <r>   -5.3768    1.0000 </r>
       <r>   -5.3376    1.0000 </r>
       <r>   -4.8266    1.0000 </r>
       <r>   -4.4975    1.0000 </r>
       <r>   -4.3720    1.0000 </r>
       <r>   -4.2848    1.0000 </r>
       <r>   -4.2177    1.0000 </r>
       <r>   -4.0123    1.0000 </r>
       <r>   -3.8329    1.0000 </r>
       <r>   -3.7676    1.0000 </r>
       <r>   -3.6222    1.0000 </r>
       <r>   -3.5200    1.0000 </r>
       <r>   -2.4195    0.0000 </r>
       <r>   -1.7641    0.0000 </r>
       <r>   -1.7352    0.0000 </r>
       <r>   -1.4916    0.0000 </r>
       <r>   -1.0490    0.0000 </r>
       <r>   -0.5692    0.0000 </r>
       <r>    0.5483    0.0000 </r>
       <r>    0.6919    0.0000 </r>
       <r>    1.3984    0.0000 </r>
       <r>    1.4388    0.0000 </r>
       <r>    1.9159    0.0000 </r>
       <r>    1.9352    0.0000 </r>
       <r>    2.1680    0.0000 </r>
       <r>    2.4811    0.0000 </r>
       <r>    2.5559    0.0000 </r>
       <r>    3.1488    0.0000 </r>
       <r>    3.2102    0.0000 </r>
      </set>
      <set comment="kpoint 5">
       <r>  -16.4217    1.0000 </r>
       <r>  -16.1401    1.0000 </r>
       <r>  -15.8865    1.0000 </r>
       <r>  -15.8042    1.0000 </r>
       <r>  -15.6834    1.0000 </r>
       <r>  -15.5334    1.0000 </r>
       <r>  -11.8289    1.0000 </r>
       <r>  -10.1186    1.0000 </r>
       <r>   -7.7764    1.0000 </r>
       <r>   -7.3640    1.0000 </r>
       <r>   -7.2349    1.0000 </r>
       <r>   -6.8904    1.0000 </r>
       <r>   -6.6312    1.0000 </r>
       <r>   -6.4503    1.0000 </r>
       <r>   -6.2018    1.0000 </r>
       <r>   -5.8146    1.0000 </r>
       <r>   -5.7855    1.0000 </r>
       <r>   -5.7208    1.0000 </r>
       <r>   -5.6596    1.0000 </r>
       <r>   -5.5978    1.0000 </r>
       <r>   -5.2684    1.0000 </r>
       <r>   -4.8061    1.0000 </r>
       <r>   -4.5349    1.0000 </r>
       <r>   -4.5223    1.0000 </r>
       <r>   -4.3961    1.0000 </r>
       <r>   -4.0805    1.0000 </r>
       <r>   -3.9874    1.0000 </r>
       <r>   -3.8454    1.0000 </r>
       <r>   -3.7780    1.0000 </r>
       <r>   -3.6760    1.0000 </r>
       <r>   -3.6497    1.0000 </r>
       <r>   -2.0807    0.0000 </r>
       <r>   -1.9484    0.0000 </r>
       <r>   -1.9129    0.0000 </r>
       <r>   -1.5693    0.0000 </r>
       <r>   -1.4494    0.0000 </r>
       <r>   -0.5992    0.0000 </r>
       <r>    0.2949    0.0000 </r>
       <r>    0.5078    0.0000 </r>
       <r>    1.2654    0.0000 </r>
       <r>    1.3097    0.0000 </r>
       <r>    1.3914    0.0000 </r>
       <r>    2.4667    0.0000 </r>
       <r>    2.5828    0.0000 </r>
       <r>    2.6124    0.0000 </r>
       <r>    2.6884    0.0000 </r>
       <r>    2.9602    0.0000 </r>
       <r>    3.3050    0.0000 </r>
      </set>
     </set>
     <set comment="spin 2">
      <set comment="kpoint 1">
       <r>  -17.1360    1.0000 </r>
       <r>  -16.4032    1.0000 </r>
       <r>  -15.4421    1.0000 </r>
       <r>  -15.4420    1.0000 </r>
       <r>  -15.4137    1.0000 </r>
       <r>  -15.4136    1.0000 </r>
       <r>  -12.0727    1.0000 </r>
       <r>   -9.8881    1.0000 </r>
       <r>   -7.7750    1.0000 </r>
       <r>   -7.7750    1.0000 </r>
       <r>   -7.5258    1.0000 </r>
       <r>   -7.3836    1.0000 </r>
       <r>   -7.3142    1.0000 </r>
       <r>   -7.3142    1.0000 </r>
       <r>   -6.4277    1.0000 </r>
       <r>   -5.1781    1.0000 </r>
       <r>   -5.1781    1.0000 </r>
       <r>   -4.9637    1.0000 </r>
       <r>   -4.9636    1.0000 </r>
       <r>   -4.8143    1.0000 </r>
       <r>   -4.3467    1.0000 </r>
       <r>   -4.3467    1.0000 </r>
       <r>   -4.2962    1.0000 </r>
       <r>   -3.3981    1.0000 </r>
       <r>   -3.3981    1.0000 </r>
       <r>   -1.6209    0.0000 </r>
       <r>   -1.4371    0.0000 </r>
       <r>   -1.4129    0.0000 </r>
       <r>   -1.4129    0.0000 </r>
       <r>   -1.1642    0.0000 </r>
       <r>   -1.1642    0.0000 </r>
       <r>   -1.0170    0.0000 </r>
       <r>   -0.8956    0.0000 </r>
       <r>   -0.4905    0.0000 </r>
       <r>   -0.4905    0.0000 </r>
       <r>   -0.1531    0.0000 </r>
       <r>   -0.1531    0.0000 </r>
       <r>    0.9600    0.0000 </r>
       <r>    0.9600    0.0000 </r>
       <r>    1.3546    0.0000 </r>
       <r>    1.5069    0.0000 </r>
       <r>    1.9869    0.0000 </r>
       <r>    2.1617    0.0000 </r>
       <r>    2.5450    0.0000 </r>
       <r>    2.5450    0.0000 </r>
       <r>    2.6692    0.0000 </r>
       <r>    2.9098    0.0000 </r>
       <r>    3.4461    0.0000 </r>
      </set>
      <set comment="kpoint 2">
       <r>  -17.0087    1.0000 </r>
       <r>  -16.3100    1.0000 </r>
       <r>  -15.6306    1.0000 </r>
       <r>  -15.5270    1.0000 </r>
       <r>  -15.4777    1.0000 </r>
       <r>  -15.4615    1.0000 </r>
       <r>  -12.0042    1.0000 </r>
       <r>   -9.9834    1.0000 </r>
       <r>   -7.7647    1.0000 </r>
       <r>   -7.7533    1.0000 </r>
       <r>   -7.4845    1.0000 </r>
       <r>   -7.2232    1.0000 </r>
       <r>   -6.8446    1.0000 </r>
       <r>   -6.5486    1.0000 </r>
       <r>   -6.1167    1.0000 </r>
       <r>   -5.4686    1.0000 </r>
       <r>   -5.3604    1.0000 </r>
       <r>   -5.1770    1.0000 </r>
       <r>   -5.0489    1.0000 </r>
       <r>   -4.7933    1.0000 </r>
       <r>   -4.6049    1.0000 </r>
       <r>   -4.5437    1.0000 </r>
       <r>   -4.4820    1.0000 </r>
       <r>   -3.8516    1.0000 </r>
       <r>   -3.7108    1.0000 </r>
       <r>   -1.6898    0.0000 </r>
       <r>   -1.5461    0.0000 </r>
       <r>   -1.4363    0.0000 </r>
       <r>   -1.3117    0.0000 </r>
       <r>   -1.1838    0.0000 </r>
       <r>   -1.1813    0.0000 </r>
       <r>   -1.0147    0.0000 </r>
       <r>   -0.4664    0.0000 </r>
       <r>   -0.4154    0.0000 </r>
       <r>   -0.4103    0.0000 </r>
       <r>   -0.1978    0.0000 </r>
       <r>   -0.1489    0.0000 </r>
       <r>    0.8410    0.0000 </r>
       <r>    0.8776    0.0000 </r>
       <r>    1.5468    0.0000 </r>
       <r>    1.6020    0.0000 </r>
       <r>    1.9166    0.0000 </r>
       <r>    2.1706    0.0000 </r>
       <r>    2.3800    0.0000 </r>
       <r>    2.5096    0.0000 </r>
       <r>    2.8233    0.0000 </r>
       <r>    3.0683    0.0000 </r>
       <r>    3.4444    0.0000 </r>
      </set>
      <set comment="kpoint 3">
       <r>  -16.6653    1.0000 </r>
       <r>  -16.0810    1.0000 </r>
       <r>  -16.0696    1.0000 </r>
       <r>  -15.7007    1.0000 </r>
       <r>  -15.5967    1.0000 </r>
       <r>  -15.5676    1.0000 </r>
       <r>  -11.8839    1.0000 </r>
       <r>  -10.0731    1.0000 </r>
       <r>   -7.6411    1.0000 </r>
       <r>   -7.5785    1.0000 </r>
       <r>   -6.9639    1.0000 </r>
       <r>   -6.6051    1.0000 </r>
       <r>   -6.1896    1.0000 </r>
       <r>   -6.0842    1.0000 </r>
       <r>   -5.9378    1.0000 </r>
       <r>   -5.8139    1.0000 </r>
       <r>   -5.5494    1.0000 </r>
       <r>   -5.5451    1.0000 </r>
       <r>   -5.3159    1.0000 </r>
       <r>   -5.1471    1.0000 </r>
       <r>   -4.8202    1.0000 </r>
       <r>   -4.7199    1.0000 </r>
       <r>   -4.4283    1.0000 </r>
       <r>   -4.3160    1.0000 </r>
       <r>   -3.8531    1.0000 </r>
       <r>   -2.4010    0.0000 </r>
       <r>   -1.6277    0.0000 </r>
       <r>   -1.4437    0.0000 </r>
       <r>   -1.3181    0.0000 </r>
       <r>   -1.2269    0.0000 </r>
       <r>   -1.1035    0.0000 </r>
       <r>   -0.9628    0.0000 </r>
       <r>   -0.8212    0.0000 </r>
       <r>   -0.5472    0.0000 </r>
       <r>   -0.3396    0.0000 </r>
       <r>   -0.3176    0.0000 </r>
       <r>    0.2077    0.0000 </r>
       <r>    0.6850    0.0000 </r>
       <r>    1.1386    0.0000 </r>
       <r>    1.5199    0.0000 </r>
       <r>    1.8306    0.0000 </r>
       <r>    1.9652    0.0000 </r>
       <r>    2.2961    0.0000 </r>
       <r>    2.3337    0.0000 </r>
       <r>    2.6999    0.0000 </r>
       <r>    2.7760    0.0000 </r>
       <r>    2.9666    0.0000 </r>
       <r>    3.0242    0.0000 </r>
      </set>
      <set comment="kpoint 4">
       <r>  -16.7705    1.0000 </r>
       <r>  -16.1416    1.0000 </r>
       <r>  -15.8420    1.0000 </r>
       <r>  -15.7579    1.0000 </r>
       <r>  -15.5930    1.0000 </r>
       <r>  -15.5323    1.0000 </r>
       <r>  -11.8911    1.0000 </r>
       <r>  -10.0450    1.0000 </r>
       <r>   -7.8297    1.0000 </r>
       <r>   -7.4836    1.0000 </r>
       <r>   -7.2268    1.0000 </r>
       <r>   -6.7723    1.0000 </r>
       <r>   -6.1683    1.0000 </r>
       <r>   -5.9074    1.0000 </r>
       <r>   -5.8910    1.0000 </r>
       <r>   -5.7421    1.0000 </r>
       <r>   -5.7244    1.0000 </r>
       <r>   -5.5059    1.0000 </r>
       <r>   -5.4858    1.0000 </r>
       <r>   -5.0862    1.0000 </r>
       <r>   -4.8155    1.0000 </r>
       <r>   -4.5733    1.0000 </r>
       <r>   -4.4885    1.0000 </r>
       <r>   -3.9835    1.0000 </r>
       <r>   -3.8114    1.0000 </r>
       <r>   -2.2179    0.0000 </r>
       <r>   -1.6791    0.0000 </r>
       <r>   -1.5826    0.0000 </r>
       <r>   -1.4222    0.0000 </r>
[...]
        <r>  0.0002  0.0004  0.0009  0.0050  0.0017  0.0001  0.0003  0.0003  0.0006 </r>
        <r>  0.0019  0.0008  0.0072  0.0003  0.0020  0.0002  0.0022  0.0001  0.0007 </r>
        <r>  0.0002  0.0043  0.0009  0.0012  0.0007  0.0002  0.0003  0.0002  0.0017 </r>
       </set>
       <set comment="band 30">
        <r>  0.0000  0.0001  0.0000  0.0001  0.1355  0.0130  0.0235  0.0138  0.2503 </r>
        <r>  0.0000  0.0001  0.0000  0.0001  0.1355  0.0130  0.0235  0.0138  0.2503 </r>
        <r>  0.0000  0.0001  0.0000  0.0003  0.0000  0.0000  0.0000  0.0000  0.0001 </r>
        <r>  0.0000  0.0001  0.0000  0.0003  0.0000  0.0000  0.0000  0.0000  0.0001 </r>
        <r>  0.0002  0.0020  0.0011  0.0002  0.0006  0.0001  0.0002  0.0000  0.0002 </r>
        <r>  0.0000  0.0008  0.0000  0.0026  0.0002  0.0002  0.0000  0.0005  0.0006 </r>
        <r>  0.0002  0.0005  0.0011  0.0016  0.0001  0.0001  0.0002  0.0001  0.0006 </r>
        <r>  0.0002  0.0020  0.0011  0.0002  0.0006  0.0001  0.0002  0.0000  0.0002 </r>
        <r>  0.0000  0.0008  0.0000  0.0026  0.0002  0.0002  0.0000  0.0005  0.0006 </r>
        <r>  0.0002  0.0005  0.0011  0.0016  0.0001  0.0001  0.0002  0.0001  0.0006 </r>
       </set>
       <set comment="band 31">
        <r>  0.0014  0.0002  0.0000  0.0002  0.0748  0.0016  0.2115  0.0006  0.1197 </r>
        <r>  0.0014  0.0002  0.0000  0.0002  0.0748  0.0016  0.2115  0.0006  0.1197 </r>
        <r>  0.0021  0.0023  0.0019  0.0008  0.0003  0.0001  0.0002  0.0000  0.0001 </r>
        <r>  0.0021  0.0023  0.0019  0.0008  0.0003  0.0001  0.0002  0.0000  0.0001 </r>
        <r>  0.0001  0.0013  0.0010  0.0024  0.0001  0.0005  0.0000  0.0004  0.0000 </r>
        <r>  0.0013  0.0000  0.0054  0.0000  0.0005  0.0000  0.0011  0.0000  0.0002 </r>
        <r>  0.0001  0.0011  0.0009  0.0027  0.0000  0.0001  0.0000  0.0008  0.0002 </r>
        <r>  0.0001  0.0013  0.0010  0.0024  0.0001  0.0005  0.0000  0.0004  0.0000 </r>
        <r>  0.0013  0.0000  0.0054  0.0000  0.0005  0.0000  0.0011  0.0000  0.0002 </r>
        <r>  0.0001  0.0011  0.0009  0.0027  0.0000  0.0001  0.0000  0.0008  0.0002 </r>
       </set>
       <set comment="band 32">
        <r>  0.0022  0.0001  0.0001  0.0002  0.1795  0.0012  0.1716  0.0032  0.0710 </r>
        <r>  0.0022  0.0001  0.0001  0.0002  0.1795  0.0012  0.1716  0.0032  0.0710 </r>
        <r>  0.0000  0.0019  0.0000  0.0055  0.0000  0.0000  0.0000  0.0001  0.0000 </r>
        <r>  0.0000  0.0019  0.0000  0.0055  0.0000  0.0000  0.0000  0.0001  0.0000 </r>
        <r>  0.0008  0.0028  0.0016  0.0005  0.0000  0.0004  0.0006  0.0000  0.0001 </r>
        <r>  0.0000  0.0005  0.0000  0.0014  0.0001  0.0002  0.0000  0.0006  0.0002 </r>
        <r>  0.0008  0.0017  0.0016  0.0015  0.0001  0.0002  0.0006  0.0002  0.0000 </r>
        <r>  0.0008  0.0028  0.0016  0.0005  0.0000  0.0004  0.0006  0.0000  0.0001 </r>
        <r>  0.0000  0.0005  0.0000  0.0014  0.0001  0.0002  0.0000  0.0006  0.0002 </r>
        <r>  0.0008  0.0017  0.0016  0.0015  0.0001  0.0002  0.0006  0.0002  0.0000 </r>
       </set>
       <set comment="band 33">
        <r>  0.0007  0.0000  0.0001  0.0000  0.1055  0.0404  0.0119  0.0880  0.0697 </r>
        <r>  0.0007  0.0000  0.0001  0.0000  0.1055  0.0404  0.0119  0.0880  0.0697 </r>
        <r>  0.0043  0.0018  0.0136  0.0006  0.0000  0.0000  0.0039  0.0000  0.0000 </r>
        <r>  0.0043  0.0018  0.0136  0.0006  0.0000  0.0000  0.0039  0.0000  0.0000 </r>
        <r>  0.0026  0.0012  0.0076  0.0017  0.0000  0.0002  0.0003  0.0014  0.0006 </r>
        <r>  0.0070  0.0029  0.0062  0.0010  0.0002  0.0011  0.0001  0.0004  0.0001 </r>
        <r>  0.0026  0.0012  0.0075  0.0017  0.0004  0.0008  0.0003  0.0008  0.0002 </r>
        <r>  0.0026  0.0012  0.0076  0.0017  0.0000  0.0002  0.0003  0.0014  0.0006 </r>
        <r>  0.0070  0.0029  0.0062  0.0010  0.0002  0.0011  0.0001  0.0004  0.0001 </r>
        <r>  0.0026  0.0012  0.0075  0.0017  0.0004  0.0008  0.0003  0.0008  0.0002 </r>
       </set>
       <set comment="band 34">
        <r>  0.0003  0.0001  0.0010  0.0002  0.0040  0.1736  0.0422  0.0823  0.0042 </r>
        <r>  0.0003  0.0001  0.0010  0.0002  0.0040  0.1736  0.0422  0.0823  0.0042 </r>
        <r>  0.0000  0.0034  0.0000  0.0102  0.0010  0.0001  0.0000  0.0004  0.0030 </r>
        <r>  0.0000  0.0034  0.0000  0.0102  0.0010  0.0001  0.0000  0.0004  0.0030 </r>
        <r>  0.0046  0.0058  0.0061  0.0088  0.0015  0.0009  0.0000  0.0002  0.0002 </r>
        <r>  0.0000  0.0010  0.0000  0.0030  0.0005  0.0004  0.0000  0.0011  0.0015 </r>
        <r>  0.0047  0.0032  0.0061  0.0114  0.0001  0.0001  0.0000  0.0011  0.0015 </r>
        <r>  0.0046  0.0058  0.0061  0.0088  0.0015  0.0009  0.0000  0.0002  0.0002 </r>
        <r>  0.0000  0.0010  0.0000  0.0030  0.0005  0.0004  0.0000  0.0011  0.0015 </r>
        <r>  0.0047  0.0032  0.0061  0.0114  0.0001  0.0001  0.0000  0.0011  0.0015 </r>
       </set>
       <set comment="band 35">
        <r>  0.0000  0.0002  0.0000  0.0002  0.0493  0.1221  0.0320  0.1196  0.0185 </r>
        <r>  0.0000  0.0002  0.0000  0.0002  0.0493  0.1221  0.0320  0.1196  0.0185 </r>
        <r>  0.0017  0.0001  0.0009  0.0000  0.0002  0.0002  0.0003  0.0001  0.0001 </r>
        <r>  0.0017  0.0001  0.0009  0.0000  0.0002  0.0002  0.0003  0.0001  0.0001 </r>
        <r>  0.0025  0.0096  0.0064  0.0001  0.0001  0.0015  0.0000  0.0002  0.0002 </r>
        <r>  0.0044  0.0139  0.0122  0.0046  0.0005  0.0002  0.0003  0.0001  0.0002 </r>
        <r>  0.0024  0.0021  0.0064  0.0076  0.0002  0.0008  0.0000  0.0009  0.0001 </r>
        <r>  0.0025  0.0096  0.0064  0.0001  0.0001  0.0015  0.0000  0.0002  0.0002 </r>
        <r>  0.0044  0.0139  0.0122  0.0046  0.0005  0.0002  0.0003  0.0001  0.0002 </r>
        <r>  0.0024  0.0021  0.0064  0.0076  0.0002  0.0008  0.0000  0.0009  0.0001 </r>
       </set>
       <set comment="band 36">
        <r>  0.0008  0.0003  0.0002  0.0003  0.0043  0.0910  0.0080  0.1997  0.0125 </r>
        <r>  0.0008  0.0003  0.0002  0.0003  0.0043  0.0910  0.0080  0.1997  0.0125 </r>
        <r>  0.0000  0.0012  0.0000  0.0037  0.0001  0.0001  0.0000  0.0002  0.0002 </r>
        <r>  0.0000  0.0012  0.0000  0.0037  0.0001  0.0001  0.0000  0.0002  0.0002 </r>
        <r>  0.0028  0.0249  0.0016  0.0012  0.0006  0.0007  0.0001  0.0001  0.0002 </r>
        <r>  0.0000  0.0069  0.0000  0.0207  0.0002  0.0008  0.0000  0.0023  0.0007 </r>
        <r>  0.0028  0.0029  0.0016  0.0232  0.0000  0.0000  0.0001  0.0007  0.0008 </r>
        <r>  0.0028  0.0249  0.0016  0.0012  0.0006  0.0007  0.0001  0.0001  0.0002 </r>
        <r>  0.0000  0.0069  0.0000  0.0207  0.0002  0.0008  0.0000  0.0023  0.0007 </r>
        <r>  0.0028  0.0029  0.0016  0.0232  0.0000  0.0000  0.0001  0.0007  0.0008 </r>
       </set>
       <set comment="band 37">
        <r>  0.0006  0.0001  0.0004  0.0001  0.0302  0.0985  0.0015  0.0617  0.0167 </r>
        <r>  0.0006  0.0001  0.0004  0.0001  0.0302  0.0985  0.0015  0.0617  0.0167 </r>
        <r>  0.0202  0.0073  0.0419  0.0025  0.0006  0.0007  0.0007  0.0002  0.0002 </r>
        <r>  0.0202  0.0073  0.0419  0.0025  0.0006  0.0007  0.0007  0.0002  0.0002 </r>
        <r>  0.0003  0.0003  0.0076  0.0271  0.0004  0.0000  0.0002  0.0001  0.0019 </r>
        <r>  0.0011  0.0172  0.0021  0.0057  0.0002  0.0005  0.0002  0.0002  0.0001 </r>
        <r>  0.0003  0.0186  0.0077  0.0088  0.0017  0.0000  0.0002  0.0001  0.0006 </r>
        <r>  0.0003  0.0003  0.0076  0.0271  0.0004  0.0000  0.0002  0.0001  0.0019 </r>
        <r>  0.0011  0.0172  0.0021  0.0057  0.0002  0.0005  0.0002  0.0002  0.0001 </r>
        <r>  0.0003  0.0186  0.0077  0.0088  0.0017  0.0000  0.0002  0.0001  0.0006 </r>
       </set>
       <set comment="band 38">
        <r>  0.0091  0.0007  0.0027  0.0020  0.0037  0.0124  0.0035  0.0042  0.0019 </r>
        <r>  0.0091  0.0007  0.0027  0.0020  0.0037  0.0124  0.0035  0.0042  0.0019 </r>
        <r>  0.0030  0.0599  0.0053  0.0200  0.0057  0.0057  0.0000  0.0019  0.0019 </r>
        <r>  0.0030  0.0599  0.0053  0.0200  0.0057  0.0057  0.0000  0.0019  0.0019 </r>
        <r>  0.0018  0.0015  0.0032  0.0091  0.0038  0.0011  0.0000  0.0005  0.0007 </r>
        <r>  0.0120  0.0413  0.0041  0.0138  0.0019  0.0019  0.0004  0.0006  0.0006 </r>
        <r>  0.0018  0.0041  0.0032  0.0064  0.0026  0.0006  0.0000  0.0010  0.0019 </r>
        <r>  0.0018  0.0015  0.0032  0.0091  0.0038  0.0011  0.0000  0.0005  0.0007 </r>
        <r>  0.0120  0.0413  0.0041  0.0138  0.0019  0.0019  0.0004  0.0006  0.0006 </r>
        <r>  0.0018  0.0041  0.0032  0.0064  0.0026  0.0006  0.0000  0.0010  0.0019 </r>
       </set>
       <set comment="band 39">
        <r>  0.0068  0.0021  0.0025  0.0018  0.0087  0.0270  0.0118  0.0100  0.0030 </r>
        <r>  0.0068  0.0021  0.0025  0.0018  0.0087  0.0270  0.0118  0.0100  0.0030 </r>
        <r>  0.0000  0.0163  0.0000  0.0488  0.0011  0.0019  0.0000  0.0058  0.0032 </r>
        <r>  0.0000  0.0163  0.0000  0.0488  0.0011  0.0019  0.0000  0.0058  0.0032 </r>
        <r>  0.0071  0.0200  0.0017  0.0263  0.0009  0.0009  0.0002  0.0014  0.0020 </r>
        <r>  0.0000  0.0045  0.0000  0.0136  0.0010  0.0001  0.0000  0.0002  0.0031 </r>
        <r>  0.0071  0.0441  0.0017  0.0022  0.0014  0.0019  0.0002  0.0004  0.0015 </r>
        <r>  0.0071  0.0200  0.0017  0.0263  0.0009  0.0009  0.0002  0.0014  0.0020 </r>
        <r>  0.0000  0.0045  0.0000  0.0136  0.0010  0.0001  0.0000  0.0002  0.0031 </r>
        <r>  0.0071  0.0441  0.0017  0.0022  0.0014  0.0019  0.0002  0.0004  0.0015 </r>
       </set>
       <set comment="band 40">
        <r>  0.0171  0.0011  0.0031  0.0018  0.0071  0.0018  0.0115  0.0031  0.0174 </r>
        <r>  0.0171  0.0011  0.0031  0.0018  0.0071  0.0018  0.0115  0.0031  0.0174 </r>
        <r>  0.0034  0.0541  0.0121  0.0177  0.0060  0.0010  0.0039  0.0003  0.0020 </r>
        <r>  0.0034  0.0541  0.0121  0.0177  0.0060  0.0010  0.0039  0.0003  0.0020 </r>
        <r>  0.0005  0.0018  0.0020  0.0001  0.0054  0.0002  0.0007  0.0005  0.0021 </r>
        <r>  0.0179  0.0148  0.0028  0.0050  0.0021  0.0018  0.0004  0.0006  0.0007 </r>
        <r>  0.0006  0.0002  0.0020  0.0018  0.0050  0.0006  0.0007  0.0001  0.0025 </r>
        <r>  0.0005  0.0018  0.0020  0.0001  0.0054  0.0002  0.0007  0.0005  0.0021 </r>
        <r>  0.0179  0.0148  0.0028  0.0050  0.0021  0.0018  0.0004  0.0006  0.0007 </r>
        <r>  0.0006  0.0002  0.0020  0.0018  0.0050  0.0006  0.0007  0.0001  0.0025 </r>
       </set>
       <set comment="band 41">
        <r>  0.0131  0.0003  0.0014  0.0002  0.0116  0.0109  0.0058  0.0165  0.0168 </r>
        <r>  0.0131  0.0003  0.0014  0.0002  0.0116  0.0109  0.0058  0.0165  0.0168 </r>
        <r>  0.0000  0.0188  0.0000  0.0613  0.0022  0.0002  0.0000  0.0007  0.0072 </r>
        <r>  0.0000  0.0188  0.0000  0.0613  0.0022  0.0002  0.0000  0.0007  0.0072 </r>
        <r>  0.0067  0.0060  0.0006  0.0170  0.0019  0.0001  0.0017  0.0004  0.0041 </r>
        <r>  0.0000  0.0043  0.0000  0.0120  0.0021  0.0001  0.0000  0.0001  0.0065 </r>
        <r>  0.0062  0.0222  0.0008  0.0007  0.0015  0.0001  0.0016  0.0002  0.0046 </r>
        <r>  0.0067  0.0060  0.0006  0.0170  0.0019  0.0001  0.0017  0.0004  0.0041 </r>
        <r>  0.0000  0.0043  0.0000  0.0120  0.0021  0.0001  0.0000  0.0001  0.0065 </r>
        <r>  0.0062  0.0222  0.0008  0.0007  0.0015  0.0001  0.0016  0.0002  0.0046 </r>
       </set>
       <set comment="band 42">
        <r>  0.0039  0.0060  0.0000  0.0026  0.0221  0.0053  0.0047  0.0092  0.0156 </r>
        <r>  0.0039  0.0060  0.0000  0.0026  0.0221  0.0053  0.0047  0.0092  0.0156 </r>
        <r>  0.0186  0.0133  0.0424  0.0032  0.0022  0.0002  0.0099  0.0001  0.0006 </r>
        <r>  0.0186  0.0133  0.0424  0.0032  0.0022  0.0002  0.0099  0.0001  0.0006 </r>
        <r>  0.0017  0.0010  0.0085  0.0006  0.0016  0.0004  0.0004  0.0043  0.0000 </r>
        <r>  0.0014  0.0023  0.0232  0.0010  0.0017  0.0014  0.0007  0.0005  0.0005 </r>
        <r>  0.0021  0.0007  0.0083  0.0010  0.0005  0.0046  0.0004  0.0003  0.0009 </r>
        <r>  0.0017  0.0010  0.0085  0.0006  0.0016  0.0004  0.0004  0.0043  0.0000 </r>
        <r>  0.0014  0.0023  0.0232  0.0010  0.0017  0.0014  0.0007  0.0005  0.0005 </r>
        <r>  0.0021  0.0007  0.0083  0.0010  0.0005  0.0046  0.0004  0.0003  0.0009 </r>
       </set>
       <set comment="band 43">
        <r>  0.0001  0.0008  0.0004  0.0022  0.0008  0.0013  0.0057  0.0007  0.0022 </r>
        <r>  0.0001  0.0008  0.0004  0.0022  0.0008  0.0013  0.0057  0.0007  0.0022 </r>
        <r>  0.0026  0.0040  0.0044  0.0014  0.0009  0.0001  0.0028  0.0000  0.0003 </r>
        <r>  0.0026  0.0040  0.0044  0.0014  0.0009  0.0001  0.0028  0.0000  0.0003 </r>
        <r>  0.0007  0.0004  0.0019  0.0023  0.0005  0.0001  0.0005  0.0003  0.0000 </r>
        <r>  0.0009  0.0035  0.0034  0.0012  0.0005  0.0003  0.0036  0.0001  0.0002 </r>
        <r>  0.0007  0.0010  0.0019  0.0017  0.0001  0.0001  0.0005  0.0003  0.0005 </r>
        <r>  0.0007  0.0004  0.0019  0.0023  0.0005  0.0001  0.0005  0.0003  0.0000 </r>
        <r>  0.0009  0.0035  0.0034  0.0012  0.0005  0.0003  0.0036  0.0001  0.0002 </r>
        <r>  0.0007  0.0010  0.0019  0.0017  0.0001  0.0001  0.0005  0.0003  0.0005 </r>
       </set>
       <set comment="band 44">
        <r>  0.0025  0.0026  0.0015  0.0012  0.0043  0.0008  0.0009  0.0007  0.0061 </r>
        <r>  0.0025  0.0026  0.0015  0.0012  0.0043  0.0008  0.0009  0.0007  0.0061 </r>
        <r>  0.0000  0.0008  0.0000  0.0023  0.0002  0.0000  0.0000  0.0000  0.0006 </r>
        <r>  0.0000  0.0008  0.0000  0.0023  0.0002  0.0000  0.0000  0.0000  0.0006 </r>
        <r>  0.0012  0.0011  0.0090  0.0012  0.0001  0.0009  0.0017  0.0009  0.0001 </r>
        <r>  0.0000  0.0007  0.0000  0.0020  0.0001  0.0008  0.0000  0.0023  0.0002 </r>
        <r>  0.0012  0.0020  0.0090  0.0003  0.0000  0.0002  0.0017  0.0016  0.0002 </r>
        <r>  0.0012  0.0011  0.0090  0.0012  0.0001  0.0009  0.0017  0.0009  0.0001 </r>
        <r>  0.0000  0.0007  0.0000  0.0020  0.0001  0.0008  0.0000  0.0023  0.0002 </r>
        <r>  0.0012  0.0020  0.0090  0.0003  0.0000  0.0002  0.0017  0.0016  0.0002 </r>
       </set>
       <set comment="band 45">
        <r>  0.0019  0.0006  0.0002  0.0011  0.0006  0.0002  0.0078  0.0001  0.0010 </r>
        <r>  0.0019  0.0006  0.0002  0.0011  0.0006  0.0002  0.0078  0.0001  0.0010 </r>
        <r>  0.0000  0.0016  0.0000  0.0049  0.0002  0.0001  0.0000  0.0002  0.0007 </r>
        <r>  0.0000  0.0016  0.0000  0.0049  0.0002  0.0001  0.0000  0.0002  0.0007 </r>
        <r>  0.0013  0.0010  0.0030  0.0033  0.0001  0.0000  0.0020  0.0000  0.0005 </r>
        <r>  0.0000  0.0006  0.0000  0.0019  0.0002  0.0001  0.0000  0.0002  0.0007 </r>
        <r>  0.0013  0.0036  0.0030  0.0007  0.0002  0.0000  0.0020  0.0000  0.0004 </r>
        <r>  0.0013  0.0010  0.0030  0.0033  0.0001  0.0000  0.0020  0.0000  0.0005 </r>
        <r>  0.0000  0.0006  0.0000  0.0019  0.0002  0.0001  0.0000  0.0002  0.0007 </r>
        <r>  0.0013  0.0036  0.0030  0.0007  0.0002  0.0000  0.0020  0.0000  0.0004 </r>
       </set>
       <set comment="band 46">
        <r>  0.0113  0.0020  0.0056  0.0015  0.0058  0.0005  0.0044  0.0002  0.0079 </r>
        <r>  0.0113  0.0020  0.0056  0.0015  0.0058  0.0005  0.0044  0.0002  0.0079 </r>
        <r>  0.0001  0.0055  0.0037  0.0018  0.0016  0.0008  0.0007  0.0003  0.0005 </r>
        <r>  0.0001  0.0055  0.0037  0.0018  0.0016  0.0008  0.0007  0.0003  0.0005 </r>
        <r>  0.0001  0.0025  0.0007  0.0006  0.0011  0.0055  0.0003  0.0002  0.0002 </r>
        <r>  0.0007  0.0027  0.0090  0.0009  0.0001  0.0020  0.0041  0.0007  0.0000 </r>
        <r>  0.0001  0.0001  0.0007  0.0030  0.0007  0.0025  0.0003  0.0033  0.0006 </r>
        <r>  0.0001  0.0025  0.0007  0.0006  0.0011  0.0055  0.0003  0.0002  0.0002 </r>
        <r>  0.0007  0.0027  0.0090  0.0009  0.0001  0.0020  0.0041  0.0007  0.0000 </r>
        <r>  0.0001  0.0001  0.0007  0.0030  0.0007  0.0025  0.0003  0.0033  0.0006 </r>
       </set>
       <set comment="band 47">
        <r>  0.0370  0.0014  0.0004  0.0025  0.0002  0.0020  0.0010  0.0010  0.0003 </r>
        <r>  0.0370  0.0014  0.0004  0.0025  0.0002  0.0020  0.0010  0.0010  0.0003 </r>
        <r>  0.0014  0.0052  0.0127  0.0017  0.0005  0.0010  0.0033  0.0003  0.0002 </r>
        <r>  0.0014  0.0052  0.0127  0.0017  0.0005  0.0010  0.0033  0.0003  0.0002 </r>
        <r>  0.0003  0.0026  0.0041  0.0006  0.0004  0.0087  0.0001  0.0007  0.0001 </r>
        <r>  0.0005  0.0013  0.0112  0.0004  0.0011  0.0029  0.0003  0.0010  0.0004 </r>
        <r>  0.0003  0.0001  0.0041  0.0032  0.0000  0.0042  0.0001  0.0052  0.0005 </r>
        <r>  0.0003  0.0026  0.0041  0.0006  0.0004  0.0087  0.0001  0.0007  0.0001 </r>
        <r>  0.0005  0.0013  0.0112  0.0004  0.0011  0.0029  0.0003  0.0010  0.0004 </r>
        <r>  0.0003  0.0001  0.0041  0.0032  0.0000  0.0042  0.0001  0.0052  0.0005 </r>
       </set>
       <set comment="band 48">
        <r>  0.0018  0.0004  0.0001  0.0012  0.0002  0.0001  0.0000  0.0001  0.0001 </r>
        <r>  0.0018  0.0004  0.0001  0.0012  0.0002  0.0001  0.0000  0.0001  0.0001 </r>
        <r>  0.0007  0.0001  0.0002  0.0000  0.0001  0.0000  0.0004  0.0000  0.0000 </r>
        <r>  0.0007  0.0001  0.0002  0.0000  0.0001  0.0000  0.0004  0.0000  0.0000 </r>
        <r>  0.0003  0.0001  0.0003  0.0003  0.0001  0.0006  0.0003  0.0001  0.0000 </r>
        <r>  0.0002  0.0008  0.0006  0.0003  0.0000  0.0000  0.0003  0.0000  0.0000 </r>
        <r>  0.0003  0.0004  0.0003  0.0000  0.0000  0.0001  0.0003  0.0005  0.0001 </r>
        <r>  0.0003  0.0001  0.0003  0.0003  0.0001  0.0006  0.0003  0.0001  0.0000 </r>
        <r>  0.0002  0.0008  0.0006  0.0003  0.0000  0.0000  0.0003  0.0000  0.0000 </r>
        <r>  0.0003  0.0004  0.0003  0.0000  0.0000  0.0001  0.0003  0.0005  0.0001 </r>
       </set>
      </set>
     </set>
    </set>
   </array>
  </projected>
 </calculation>
 <structure name="finalpos" >
  <crystal>
   <varray name="basis" >
    <v>       6.37155670      -0.00000005      -0.00000000 </v>
    <v>       3.18577801       5.51792966      -0.00000000 </v>
    <v>      -0.00000000      -0.00000000      22.94996664 </v>
   </varray>
   <i name="volume">    806.87037931 </i>
   <varray name="rec_basis" >
    <v>       0.15694752      -0.09061369      -0.00000000 </v>
    <v>       0.00000000       0.18122739       0.00000000 </v>
    <v>       0.00000000       0.00000000       0.04357305 </v>
   </varray>
  </crystal>
  <varray name="positions" >
   <v>       0.33333300       0.33333300       0.49992500 </v>
   <v>       0.66666700       0.66666700       0.50007500 </v>
   <v>       0.00000000       0.00000000       0.44821600 </v>
   <v>       0.00000000       0.00000000       0.55178400 </v>
   <v>       0.62509925       0.00010268       0.57150894 </v>
   <v>       0.00010268       0.37479907       0.57150894 </v>
   <v>       0.37479907       0.62509925       0.57150894 </v>
   <v>       0.37490075       0.99989732       0.42849106 </v>
   <v>       0.99989732       0.62520093       0.42849106 </v>
   <v>       0.62520093       0.37490075       0.42849106 </v>
  </varray>
  <varray name="selective"  type="logical" >
   <v type="logical" >  F  F  F </v>
   <v type="logical" >  F  F  F </v>
   <v type="logical" >  F  F  F </v>
   <v type="logical" >  F  F  F </v>
   <v type="logical" >  T  T  T </v>
   <v type="logical" >  T  T  T </v>
   <v type="logical" >  T  T  T </v>
   <v type="logical" >  T  T  T </v>
   <v type="logical" >  T  T  T </v>
   <v type="logical" >  T  T  T </v>
  </varray>
  <nose>
   <v>      -3.00000000       0.00000000       0.00010000       0.00010000 </v>
  </nose>
 </structure>
</modeling>
