unknown system                          
           1
     6.907777   -0.000000    0.000000
     3.453888    5.982310    0.000000
     0.000000    0.000000   23.444588
   Cr   Ge   Se
   2   2   6
Direct configuration=     1
   0.33333300  0.33333300  0.49992500
   0.66666700  0.66666700  0.50007500
   0.00000000  0.00000000  0.44821600
   0.00000000  0.00000000  0.55178400
   0.62635700  0.00042000  0.57375200
   0.00042000  0.37322400  0.57375200
   0.37322400  0.62635700  0.57375200
   0.37364300  0.99958000  0.42624800
   0.99958000  0.62677600  0.42624800
   0.62677600  0.37364300  0.42624800
unknown system                          
           1
     6.282153    0.000000   -0.000000
     3.141076    5.440504   -0.000000
     0.000000   -0.000000   22.386952
   Cr   Ge   Se
   2   2   6
Direct configuration=     2
   0.33333300  0.33333300  0.49992500
   0.66666700  0.66666700  0.50007500
   0.00000000  0.00000000  0.44821600
   0.00000000  0.00000000  0.55178400
   0.63039797  0.00036987  0.57162953
   0.00036987  0.36923317  0.57162953
   0.36923317  0.63039797  0.57162953
   0.36960203  0.99963013  0.42837047
   0.99963013  0.63076683  0.42837047
   0.63076683  0.36960203  0.42837047
unknown system                          
           1
     6.400757    0.000000   -0.000000
     3.200378    5.543218   -0.000000
     0.000000   -0.000000   22.587456
   Cr   Ge   Se
   2   2   6
Direct configuration=     3
   0.33333300  0.33333300  0.49992500
   0.66666700  0.66666700  0.50007500
   0.00000000  0.00000000  0.44821600
   0.00000000  0.00000000  0.55178400
   0.62955560  0.00038032  0.57205091
   0.00038032  0.37006508  0.57205091
   0.37006508  0.62955560  0.57205091
   0.37044440  0.99961968  0.42794909
   0.99961968  0.62993492  0.42794909
   0.62993492  0.37044440  0.42794909
unknown system                          
           1
     6.388318    0.000000    0.000000
     3.194158    5.532445    0.000000
    -0.000000   -0.000000   22.672205
   Cr   Ge   Se
   2   2   6
Direct configuration=     4
   0.33333300  0.33333300  0.49992500
   0.66666700  0.66666700  0.50007500
   0.00000000  0.00000000  0.44821600
   0.00000000  0.00000000  0.55178400
   0.62822231  0.00032033  0.57200199
   0.00032033  0.37145836  0.57200199
   0.37145836  0.62822231  0.57200199
   0.37177769  0.99967967  0.42799801
   0.99967967  0.62854164  0.42799801
   0.62854164  0.37177769  0.42799801
unknown system                          
           1
     6.360357   -0.000000    0.000000
     3.180178    5.508231    0.000000
    -0.000000   -0.000000   22.862700
   Cr   Ge   Se
   2   2   6
Direct configuration=     5
   0.33333300  0.33333300  0.49992500
   0.66666700  0.66666700  0.50007500
   0.00000000  0.00000000  0.44821600
   0.00000000  0.00000000  0.55178400
   0.62521955  0.00018523  0.57189243
   0.00018523  0.37459622  0.57189243
   0.37459622  0.62521955  0.57189243
   0.37478045  0.99981477  0.42810757
   0.99981477  0.62540378  0.42810757
   0.62540378  0.37478045  0.42810757
unknown system                          
           1
     6.365348   -0.000000    0.000000
     3.182674    5.512553    0.000000
    -0.000000   -0.000000   22.901587
   Cr   Ge   Se
   2   2   6
Direct configuration=     6
   0.33333300  0.33333300  0.49992500
   0.66666700  0.66666700  0.50007500
   0.00000000  0.00000000  0.44821600
   0.00000000  0.00000000  0.55178400
   0.62516592  0.00014843  0.57172138
   0.00014843  0.37468665  0.57172138
   0.37468665  0.62516592  0.57172138
   0.37483408  0.99985157  0.42827862
   0.99985157  0.62531335  0.42827862
   0.62531335  0.37483408  0.42827862
unknown system                          
           1
     6.371557   -0.000000   -0.000000
     3.185778    5.517930   -0.000000
    -0.000000   -0.000000   22.949967
   Cr   Ge   Se
   2   2   6
Direct configuration=     7
   0.33333300  0.33333300  0.49992500
   0.66666700  0.66666700  0.50007500
   0.00000000  0.00000000  0.44821600
   0.00000000  0.00000000  0.55178400
   0.62509925  0.00010268  0.57150894
   0.00010268  0.37479907  0.57150894
   0.37479907  0.62509925  0.57150894
   0.37490075  0.99989732  0.42849106
   0.99989732  0.62520093  0.42849106
   0.62520093  0.37490075  0.42849106
