 vasp.5.4.4.18Apr17-6-g9f103f2a35 (build May  1 2020 15:48:39) complex           
 executed on             LinuxGNU date 2020.06.25  10:11:37
 running on   16 total cores
 distrk:  each k-point on   16 cores,    1 groups
 distr:  one band on NCORES_PER_BAND=   1 cores,   16 groups


--------------------------------------------------------------------------------------------------------


 INCAR:
 POTCAR:   PAW_PBE Ni 06Sep2000                   
 POTCAR:   PAW_PBE Ge 05Jan2001                   
 POTCAR:    PAW_PBE P 17Jan2003                   
 POTCAR:   PAW_PBE Se 06Sep2000                   

 ----------------------------------------------------------------------------- 
|                                                                             |
|           W    W    AA    RRRRR   N    N  II  N    N   GGGG   !!!           |
|           W    W   A  A   R    R  NN   N  II  NN   N  G    G  !!!           |
|           W    W  A    A  R    R  N N  N  II  N N  N  G       !!!           |
|           W WW W  AAAAAA  RRRRR   N  N N  II  N  N N  G  GGG   !            |
|           WW  WW  A    A  R   R   N   NN  II  N   NN  G    G                |
|           W    W  A    A  R    R  N    N  II  N    N   GGGG   !!!           |
|                                                                             |
|      For optimal performance we recommend to set                            |
|        NCORE= 4 - approx SQRT( number of cores)                             |
|      NCORE specifies how many cores store one orbital (NPAR=cpu/NCORE).     |
|      This setting can  greatly improve the performance of VASP for DFT.     |
|      The default,   NCORE=1            might be grossly inefficient         |
|      on modern multi-core architectures or massively parallel machines.     |
|      Do your own testing !!!!                                               |
|      Unfortunately you need to use the default for GW and RPA calculations. |
|      (for HF NCORE is supported but not extensively tested yet)             |
|                                                                             |
 ----------------------------------------------------------------------------- 


 ----------------------------------------------------------------------------- 
|                                                                             |
|  ADVICE TO THIS USER RUNNING 'VASP/VAMP'   (HEAR YOUR MASTER'S VOICE ...):  |
|                                                                             |
|      You have switched on vdW-DFT.                                          |
|      This routine was written and supplied by Jiri Klimes.                  |
|      We recommed that you carefully read and cite the following             |
|      publication                                                            |
|      J. Klimes, D.R. Bowler, A. Michelides                                  |
|        J. Phys.: Cond Matt. 22 022201 (2010)                                |
|      J. Klimes, D.R. Bowler, A. Michelides                                  |
|        Phys. Rev. B. 83, 195131 (2011)                                      |
|      and references therein.                                                |
|                                                                             |
 ----------------------------------------------------------------------------- 

 POTCAR:   PAW_PBE Ni 06Sep2000                   
   VRHFIN =Ni:                                                                  
   LEXCH  = PE                                                                  
   EATOM  =  1077.9025 eV,   79.2236 Ry                                         
                                                                                
   TITEL  = PAW_PBE Ni 06Sep2000                                                
   LULTRA =        F    use ultrasoft PP ?                                      
   IUNSCR =        1    unscreen: 0-lin 1-nonlin 2-no                           
   RPACOR =    2.000    partial core radius                                     
   POMASS =   58.690; ZVAL   =   10.000    mass and valenz                      
   RCORE  =    2.300    outmost cutoff radius                                   
   RWIGS  =    2.430; RWIGS  =    1.286    wigner-seitz radius (au A)           
   ENMAX  =  269.533; ENMIN  =  202.150 eV                                      
   RCLOC  =    1.681    cutoff for local pot                                    
   LCOR   =        T    correct aug charges                                     
   LPAW   =        T    paw PP                                                  
   EAUG   =  544.565                                                            
   DEXC   =    -.009                                                            
   RMAX   =    2.808    core radius for proj-oper                               
   RAUG   =    1.300    factor for augmentation sphere                          
   RDEP   =    2.390    radius for radial grids                                 
   QCUT   =   -4.451; QGAM   =    8.902    optimization parameters              
                                                                                
   Description                                                                  
     l     E      TYP  RCUT    TYP  RCUT                                        
     2   .000     23  2.300                                                     
     2   .000     23  2.300                                                     
     0   .000     23  2.300                                                     
     0   .000     23  2.300                                                     
     1  -.200     23  2.300                                                     
     1   .000     23  2.300                                                     
     3   .000      7   .000                                                     
  local pseudopotential read in
  partial core-charges read in
  atomic valenz-charges read in
  non local Contribution for L=           2  read in
    real space projection operators read in
  non local Contribution for L=           2  read in
    real space projection operators read in
  non local Contribution for L=           0  read in
    real space projection operators read in
  non local Contribution for L=           0  read in
    real space projection operators read in
  non local Contribution for L=           1  read in
    real space projection operators read in
  non local Contribution for L=           1  read in
    real space projection operators read in
    PAW grid and wavefunctions read in

   number of l-projection  operators is LMAX  =           6
   number of lm-projection operators is LMMAX =          18

 POTCAR:   PAW_PBE Ge 05Jan2001                   
   VRHFIN =Ge: s2p2                                                             
   LEXCH  = PE                                                                  
   EATOM  =   104.9960 eV,    7.7170 Ry                                         
                                                                                
   TITEL  = PAW_PBE Ge 05Jan2001                                                
   LULTRA =        F    use ultrasoft PP ?                                      
   IUNSCR =        1    unscreen: 0-lin 1-nonlin 2-no                           
   RPACOR =    2.170    partial core radius                                     
   POMASS =   72.610; ZVAL   =    4.000    mass and valenz                      
   RCORE  =    2.300    outmost cutoff radius                                   
   RWIGS  =    2.300; RWIGS  =    1.217    wigner-seitz radius (au A)           
   ENMAX  =  173.807; ENMIN  =  130.355 eV                                      
   ICORE  =        3    local potential                                         
   LCOR   =        T    correct aug charges                                     
   LPAW   =        T    paw PP                                                  
   EAUG   =  385.843                                                            
   DEXC   =    -.138                                                            
   RMAX   =    3.497    core radius for proj-oper                               
   RAUG   =    1.300    factor for augmentation sphere                          
   RDEP   =    2.318    radius for radial grids                                 
   QCUT   =   -3.574; QGAM   =    7.148    optimization parameters              
                                                                                
   Description                                                                  
     l     E      TYP  RCUT    TYP  RCUT                                        
     0   .000     23  2.300                                                     
     0   .000     23  2.300                                                     
     1   .000     23  2.300                                                     
     1   .000     23  2.300                                                     
     2   .000     23  2.300                                                     
     3  -.100      7  2.300                                                     
  local pseudopotential read in
  partial core-charges read in
  atomic valenz-charges read in
  non local Contribution for L=           0  read in
    real space projection operators read in
  non local Contribution for L=           0  read in
    real space projection operators read in
  non local Contribution for L=           1  read in
    real space projection operators read in
  non local Contribution for L=           1  read in
    real space projection operators read in
  non local Contribution for L=           2  read in
    real space projection operators read in
    PAW grid and wavefunctions read in

   number of l-projection  operators is LMAX  =           5
   number of lm-projection operators is LMMAX =          13

 POTCAR:    PAW_PBE P 17Jan2003                   
   VRHFIN =P : s2p3                                                             
   LEXCH  = PE                                                                  
   EATOM  =   176.0430 eV,   12.9388 Ry                                         
                                                                                
   TITEL  = PAW_PBE P 17Jan2003                                                 
   LULTRA =        F    use ultrasoft PP ?                                      
   IUNSCR =        1    unscreen: 0-lin 1-nonlin 2-no                           
   RPACOR =    1.500    partial core radius                                     
   POMASS =   30.974; ZVAL   =    5.000    mass and valenz                      
   RCORE  =    1.900    outmost cutoff radius                                   
   RWIGS  =    2.330; RWIGS  =    1.233    wigner-seitz radius (au A)           
   ENMAX  =  270.000; ENMIN  =  191.280 eV                                      
   ICORE  =        2    local potential                                         
   LCOR   =        T    correct aug charges                                     
   LPAW   =        T    paw PP                                                  
   EAUG   =  342.924                                                            
   DEXC   =    -.002                                                            
   RMAX   =    2.887    core radius for proj-oper                               
   RAUG   =    1.300    factor for augmentation sphere                          
   RDEP   =    1.931    radius for radial grids                                 
   QCUT   =   -4.330; QGAM   =    8.659    optimization parameters              
                                                                                
   Description                                                                  
     l     E      TYP  RCUT    TYP  RCUT                                        
     0   .000     23  1.900                                                     
     0   .000     23  1.900                                                     
     1   .000     23  1.900                                                     
     1   .000     23  1.900                                                     
     2   .000     23  1.900                                                     
  local pseudopotential read in
  partial core-charges read in
  atomic valenz-charges read in
  non local Contribution for L=           0  read in
    real space projection operators read in
  non local Contribution for L=           0  read in
    real space projection operators read in
  non local Contribution for L=           1  read in
    real space projection operators read in
  non local Contribution for L=           1  read in
    real space projection operators read in
    PAW grid and wavefunctions read in

   number of l-projection  operators is LMAX  =           4
   number of lm-projection operators is LMMAX =           8

 POTCAR:   PAW_PBE Se 06Sep2000                   
   VRHFIN =Se: s2p4                                                             
   LEXCH  = PE                                                                  
   EATOM  =   256.9644 eV,   18.8864 Ry                                         
                                                                                
   TITEL  = PAW_PBE Se 06Sep2000                                                
   LULTRA =        F    use ultrasoft PP ?                                      
   IUNSCR =        1    unscreen: 0-lin 1-nonlin 2-no                           
   RPACOR =    1.900    partial core radius                                     
   POMASS =   78.960; ZVAL   =    6.000    mass and valenz                      
   RCORE  =    2.100    outmost cutoff radius                                   
   RWIGS  =    2.200; RWIGS  =    1.164    wigner-seitz radius (au A)           
   ENMAX  =  211.534; ENMIN  =  158.651 eV                                      
   ICORE  =        3    local potential                                         
   LCOR   =        T    correct aug charges                                     
   LPAW   =        T    paw PP                                                  
   EAUG   =  446.842                                                            
   DEXC   =    -.031                                                            
   RMAX   =    3.170    core radius for proj-oper                               
   RAUG   =    1.300    factor for augmentation sphere                          
   RDEP   =    2.177    radius for radial grids                                 
   QCUT   =   -3.943; QGAM   =    7.886    optimization parameters              
                                                                                
   Description                                                                  
     l     E      TYP  RCUT    TYP  RCUT                                        
     0   .000     23  2.100                                                     
     0   .000     23  2.100                                                     
     1   .000     23  2.100                                                     
     1   .000     23  2.100                                                     
     2   .000     23  2.100                                                     
     3  -.100      7  2.100                                                     
  local pseudopotential read in
  partial core-charges read in
  atomic valenz-charges read in
  non local Contribution for L=           0  read in
    real space projection operators read in
  non local Contribution for L=           0  read in
    real space projection operators read in
  non local Contribution for L=           1  read in
    real space projection operators read in
  non local Contribution for L=           1  read in
    real space projection operators read in
  non local Contribution for L=           2  read in
    real space projection operators read in
    PAW grid and wavefunctions read in

   number of l-projection  operators is LMAX  =           5
   number of lm-projection operators is LMMAX =          13

 Optimization of the real space projectors (new method)

 maximal supplied QI-value         = 16.25
 optimisation between [QCUT,QGAM] = [ 11.54, 23.24] = [ 37.28,151.24] Ry 
 Optimized for a Real-space Cutoff    1.49 Angstroem

   l    n(q)    QCUT    max X(q) W(low)/X(q) W(high)/X(q)  e(spline) 
   2      9    11.539     4.811    0.20E-04    0.14E-04    0.45E-07
   2      9    11.539    15.146    0.24E-03    0.12E-03    0.20E-06
   0     10    11.539    14.357    0.18E-04    0.12E-05    0.14E-07
   0     10    11.539    43.282    0.39E-04    0.17E-04    0.23E-06
   1     10    11.539     5.514    0.99E-05    0.13E-04    0.19E-07
   1     10    11.539     7.697    0.38E-04    0.79E-04    0.91E-07
 Optimization of the real space projectors (new method)

 maximal supplied QI-value         = 16.25
 optimisation between [QCUT,QGAM] = [ 11.54, 23.24] = [ 37.28,151.24] Ry 
 Optimized for a Real-space Cutoff    1.28 Angstroem

   l    n(q)    QCUT    max X(q) W(low)/X(q) W(high)/X(q)  e(spline) 
   0      9    11.539     8.651    0.22E-04    0.16E-04    0.10E-07
   0      9    11.539    33.192    0.11E-03    0.16E-03    0.65E-07
   1      8    11.539     5.899    0.37E-04    0.28E-04    0.43E-07
   1      8    11.539    27.289    0.22E-03    0.28E-04    0.14E-06
   2      8    11.539     4.673    0.11E-03    0.18E-03    0.58E-07
 Optimization of the real space projectors (new method)

 maximal supplied QI-value         = 19.84
 optimisation between [QCUT,QGAM] = [ 11.51, 23.22] = [ 37.09,150.92] Ry 
 Optimized for a Real-space Cutoff    1.21 Angstroem

   l    n(q)    QCUT    max X(q) W(low)/X(q) W(high)/X(q)  e(spline) 
   0      8    11.508     6.651    0.19E-04    0.31E-05    0.49E-08
   0      8    11.508    90.285    0.95E-04    0.17E-03    0.51E-07
   1      8    11.508     4.328    0.14E-04    0.32E-04    0.22E-07
   1      8    11.508    54.583    0.16E-03    0.71E-04    0.89E-07
 Optimization of the real space projectors (new method)

 maximal supplied QI-value         = 17.95
 optimisation between [QCUT,QGAM] = [ 11.67, 23.34] = [ 38.13,152.52] Ry 
 Optimized for a Real-space Cutoff    1.25 Angstroem

   l    n(q)    QCUT    max X(q) W(low)/X(q) W(high)/X(q)  e(spline) 
   0      9    11.669     6.499    0.13E-04    0.81E-05    0.11E-07
   0      9    11.669    52.623    0.18E-03    0.46E-04    0.72E-07
   1      8    11.669     4.229    0.40E-04    0.45E-04    0.31E-07
   1      8    11.669    29.991    0.22E-03    0.36E-03    0.10E-06
   2      8    11.669     3.719    0.19E-03    0.46E-04    0.50E-07

 ----------------------------------------------------------------------------- 
|                                                                             |
|  ADVICE TO THIS USER RUNNING 'VASP/VAMP'   (HEAR YOUR MASTER'S VOICE ...):  |
|                                                                             |
|      You enforced a specific xc-type in the INCAR file,                     |
|      a different type was found on the POTCAR file                          |
|          I HOPE YOU KNOW, WHAT YOU ARE  DOING                               |
|                                                                             |
 ----------------------------------------------------------------------------- 

 PAW_PBE Ni 06Sep2000                   :
 energy of atom  1       EATOM=-1077.9025
 kinetic energy error for atom=    0.0030 (will be added to EATOM!!)
 PAW_PBE Ge 05Jan2001                   :
 energy of atom  2       EATOM= -104.9960
 kinetic energy error for atom=    0.0002 (will be added to EATOM!!)
  PAW_PBE P 17Jan2003                   :
 energy of atom  3       EATOM= -176.0430
 kinetic energy error for atom=    0.0011 (will be added to EATOM!!)
 PAW_PBE Se 06Sep2000                   :
 energy of atom  4       EATOM= -256.9644
 kinetic energy error for atom=    0.0007 (will be added to EATOM!!)


 POSCAR: Ni2 Ge P Se6                            
  positions in direct lattice
  velocities in cartesian coordinates
  No initial velocities read in
 exchange correlation table for  LEXCH =       42
   RHO(1)=    0.500       N(1)  =     2000
   RHO(2)=  100.500       N(2)  =     4000



--------------------------------------------------------------------------------------------------------


 ion  position               nearest neighbor table
   1  0.333  0.333  0.500-   6 2.78   5 2.78   7 2.78   8 2.78  10 2.78   9 2.78
   2  0.667  0.667  0.500-   9 2.78   8 2.78  10 2.78   5 2.78   7 2.78   6 2.78
   3  0.000  0.000  0.448-   4 2.43   8 2.63  10 2.63   9 2.63
   4  0.000  0.000  0.552-   3 2.43   5 2.63   7 2.63   6 2.63
   5  0.626  0.000  0.574-   4 2.63   1 2.78   2 2.78
   6  0.000  0.373  0.574-   4 2.63   1 2.78   2 2.78
   7  0.373  0.626  0.574-   4 2.63   1 2.78   2 2.78
   8  0.374  1.000  0.426-   3 2.63   2 2.78   1 2.78
   9  1.000  0.627  0.426-   3 2.63   2 2.78   1 2.78
  10  0.627  0.374  0.426-   3 2.63   2 2.78   1 2.78

  LATTYP: Found a hexagonal cell.
 ALAT       =     6.9077769333
 C/A-ratio  =     3.3939410937
  
  Lattice vectors:
  
 A1 = (   3.4538890000,  -5.9823100000,   0.0000000000)
 A2 = (  -6.9077770000,   0.0000000000,   0.0000000000)
 A3 = (   0.0000000000,   0.0000000000, -23.4445880000)


Analysis of symmetry for initial positions (statically):
=====================================================================
 Subroutine PRICEL returns:
 Original cell was already a primitive cell.
 

 Routine SETGRP: Setting up the symmetry group for a 
 hexagonal supercell.


 Subroutine GETGRP returns: Found  3 space group operations
 (whereof  3 operations were pure point group operations)
 out of a pool of 24 trial point group operations.


The static configuration has the point symmetry C_3 .


Analysis of symmetry for dynamics (positions and initial velocities):
=====================================================================
 Subroutine PRICEL returns:
 Original cell was already a primitive cell.
 

 Routine SETGRP: Setting up the symmetry group for a 
 hexagonal supercell.


 Subroutine GETGRP returns: Found  3 space group operations
 (whereof  3 operations were pure point group operations)
 out of a pool of 24 trial point group operations.


The dynamic configuration has the point symmetry C_3 .


Analysis of constrained symmetry for selective dynamics:
=====================================================================
 Subroutine PRICEL returns:
 Original cell was already a primitive cell.
 

 Routine SETGRP: Setting up the symmetry group for a 
 hexagonal supercell.


 Subroutine GETGRP returns: Found  3 space group operations
 (whereof  3 operations were pure point group operations)
 out of a pool of 24 trial point group operations.


The constrained configuration has the point symmetry C_3 .


Analysis of structural, dynamic, and magnetic symmetry:
=====================================================================
 Subroutine PRICEL returns:
 Original cell was already a primitive cell.
 

 Routine SETGRP: Setting up the symmetry group for a 
 hexagonal supercell.


 Subroutine GETGRP returns: Found  3 space group operations
 (whereof  3 operations were pure point group operations)
 out of a pool of 24 trial point group operations.


The magnetic configuration has the point symmetry C_3 .


 Subroutine INISYM returns: Found  3 space group operations
 (whereof  3 operations are pure point group operations),
 and found     1 'primitive' translations



 KPOINTS: Kpoints from vasprun.xml                

Automatic generation of k-mesh.
Space group operators:
 irot       det(A)        alpha          n_x          n_y          n_z        tau_x        tau_y        tau_z
    1     1.000000     0.000000     1.000000     0.000000     0.000000     0.000000     0.000000     0.000000
    2     1.000000   120.000000     0.000000     0.000000     1.000000     0.000000     0.000000     0.000000
    3     1.000000   120.000000     0.000000     0.000000    -1.000000     0.000000     0.000000     0.000000
 
 Subroutine IBZKPT returns following result:
 ===========================================
 
 Found      5 irreducible k-points:
 
 Following reciprocal coordinates:
            Coordinates               Weight
  0.000000  0.000000  0.000000      1.000000
  0.200000  0.000000  0.000000      6.000000
  0.400000  0.000000  0.000000      6.000000
  0.400000  0.200000  0.000000      6.000000
 -0.400000  0.200000  0.000000      6.000000
 
 Following cartesian coordinates:
            Coordinates               Weight
  0.000000  0.000000  0.000000      1.000000
  0.028953 -0.016716  0.000000      6.000000
  0.057906 -0.033432  0.000000      6.000000
  0.057906  0.000000  0.000000      6.000000
 -0.057906  0.066864  0.000000      6.000000
 
 TETIRR: Found     15 inequivalent tetrahedra from      150


--------------------------------------------------------------------------------------------------------




 Dimension of arrays:
   k-points           NKPTS =      5   k-points in BZ     NKDIM =      5   number of bands    NBANDS=     48
   number of dos      NEDOS =    301   number of ions     NIONS =     10
   non local maximal  LDIM  =      6   non local SUM 2l+1 LMDIM =     18
   total plane-waves  NPLWV = 524880
   max r-space proj   IRMAX =   7543   max aug-charges    IRDMAX=  29641
   dimension x,y,z NGX =    54 NGY =   54 NGZ =  180
   dimension x,y,z NGXF=   108 NGYF=  108 NGZF=  360
   support grid    NGXF=   108 NGYF=  108 NGZF=  360
   ions per type =               2   1   1   6
   NGX,Y,Z   is equivalent  to a cutoff of  13.00, 13.00, 12.76 a.u.
   NGXF,Y,Z  is equivalent  to a cutoff of  25.99, 25.99, 25.53 a.u.

 SYSTEM =  unknown system                          
 POSCAR =  Ni2 Ge P Se6                            

 Startparameter for this run:
   NWRITE =      2    write-flag & timer
   PREC   = accura    normal or accurate (medium, high low for compatibility)
   ISTART =      0    job   : 0-new  1-cont  2-samecut
   ICHARG =      2    charge: 1-file 2-atom 10-const
   ISPIN  =      2    spin polarized calculation?
   LNONCOLLINEAR =      F non collinear calculations
   LSORBIT =      F    spin-orbit coupling
   INIWAV =      1    electr: 0-lowe 1-rand  2-diag
   LASPH  =      F    aspherical Exc in radial PAW
   METAGGA=      F    non-selfconsistent MetaGGA calc.

 Electronic Relaxation 1
   ENCUT  =  520.0 eV  38.22 Ry    6.18 a.u.  12.84 12.84 43.59*2*pi/ulx,y,z
   ENINI  =  520.0     initial cutoff
   ENAUG  =  544.6 eV  augmentation charge cutoff
   NELM   =    400;   NELMIN=  2; NELMDL=  0     # of ELM steps 
   EDIFF  = 0.1E-03   stopping-criterion for ELM
   LREAL  =      T    real-space projection
   NLSPLINE    = F    spline interpolate recip. space projectors
   LCOMPAT=      F    compatible to vasp.4.4
   GGA_COMPAT  = T    GGA compatible to vasp.4.4-vasp.4.6
   LMAXPAW     = -100 max onsite density
   LMAXMIX     =    2 max onsite mixed and CHGCAR
   VOSKOWN=      0    Vosko Wilk Nusair interpolation
   ROPT   =   -0.00025  -0.00025  -0.00025  -0.00025
 Ionic relaxation
   EDIFFG = 0.1E-02   stopping-criterion for IOM
   NSW    =     99    number of steps for IOM
   NBLOCK =      1;   KBLOCK =     99    inner block; outer block 
   IBRION =      2    ionic relax: 0-MD 1-quasi-New 2-CG
   NFREE  =      1    steps in history (QN), initial steepest desc. (CG)
   ISIF   =      3    stress and relaxation
   IWAVPR =     11    prediction:  0-non 1-charg 2-wave 3-comb
   ISYM   =      2    0-nonsym 1-usesym 2-fastsym
   LCORR  =      T    Harris-Foulkes like correction to forces

   POTIM  = 0.5000    time-step for ionic-motion
   TEIN   =    0.0    initial temperature
   TEBEG  =    0.0;   TEEND  =   0.0 temperature during run
   SMASS  =  -3.00    Nose mass-parameter (am)
   estimated Nose-frequenzy (Omega)   =  0.10E-29 period in steps =****** mass=  -0.109E-26a.u.
   SCALEE = 1.0000    scale energy and forces
   NPACO  =    256;   APACO  = 16.0  distance and # of slots for P.C.
   PSTRESS=    0.0 pullay stress

  Mass of Ions in am
   POMASS =  58.69 72.61 30.97 78.96
  Ionic Valenz
   ZVAL   =  10.00  4.00  5.00  6.00
  Atomic Wigner-Seitz radii
   RWIGS  =  -1.00 -1.00 -1.00 -1.00
  virtual crystal weights 
   VCA    =   1.00  1.00  1.00  1.00
   NELECT =      65.0000    total number of electrons
   NUPDOWN=      -1.0000    fix difference up-down

 DOS related values:
   EMIN   =  10.00;   EMAX   =-10.00  energy-range for DOS
   EFERMI =   0.00
   ISMEAR =    -5;   SIGMA  =   0.05  broadening in eV -4-tet -1-fermi 0-gaus

 Electronic relaxation 2 (details)
   IALGO  =     38    algorithm
   LDIAG  =      T    sub-space diagonalisation (order eigenvalues)
   LSUBROT=      F    optimize rotation matrix (better conditioning)
   TURBO    =      0    0=normal 1=particle mesh
   IRESTART =      0    0=no restart 2=restart with 2 vectors
   NREBOOT  =      0    no. of reboots
   NMIN     =      0    reboot dimension
   EREF     =   0.00    reference energy to select bands
   IMIX   =      4    mixing-type and parameters
     AMIX     =   0.40;   BMIX     =  1.00
     AMIX_MAG =   1.60;   BMIX_MAG =  1.00
     AMIN     =   0.01
     WC   =   100.;   INIMIX=   1;  MIXPRE=   1;  MAXMIX= -45

 Intra band minimization:
   WEIMIN = 0.0010     energy-eigenvalue tresh-hold
   EBREAK =  0.52E-06  absolut break condition
   DEPER  =   0.30     relativ break condition  

   TIME   =   0.40     timestep for ELM

  volume/ion in A,a.u.               =      96.88       653.80
  Fermi-wavevector in a.u.,A,eV,Ry     =   0.665216  1.257076  6.020745  0.442512
  Thomas-Fermi vector in A             =   1.739143

 Write flags
   LWAVE        =      F    write WAVECAR
   LDOWNSAMPLE  =      F    k-point downsampling of WAVECAR
   LCHARG       =      T    write CHGCAR
   LVTOT        =      F    write LOCPOT, total local potential
   LVHAR        =      F    write LOCPOT, Hartree potential only
   LELF         =      F    write electronic localiz. function (ELF)
   LORBIT       =     11    0 simple, 1 ext, 2 COOP (PROOUT), +10 PAW based schemes


 Dipole corrections
   LMONO  =      F    monopole corrections only (constant potential shift)
   LDIPOL =      F    correct potential (dipole corrections)
   IDIPOL =      0    1-x, 2-y, 3-z, 4-all directions 
   EPSILON=  1.0000000 bulk dielectric constant

 Exchange correlation treatment:
   GGA     =    BO    GGA type
   LEXCH   =    42    internal setting for exchange type
   VOSKOWN=      0    Vosko Wilk Nusair interpolation
   LHFCALC =     F    Hartree Fock is set to
   LHFONE  =     F    Hartree Fock one center treatment
   AEXX    =    0.0000 exact exchange contribution

 vdW DFT:
   LUSE_VDW   =     T    switch on vdW DFT
   Zab_VDW    =-.8491    correlation parameter
   PARAM1     =0.1833
   PARAM2     =0.2200
   PARAM3     =0.0000
   -- rVV10 --
   BPARAM     = 6.3000
   CPARAM     = 0.0093

 Linear response parameters
   LEPSILON=     F    determine dielectric tensor
   LRPA    =     F    only Hartree local field effects (RPA)
   LNABLA  =     F    use nabla operator in PAW spheres
   LVEL    =     F    velocity operator in full k-point grid
   LINTERFAST=   F  fast interpolation
   KINTER  =     0    interpolate to denser k-point grid
   CSHIFT  =0.1000    complex shift for real part using Kramers Kronig
   OMEGAMAX=  -1.0    maximum frequency
   DEG_THRESHOLD= 0.2000000E-02 threshold for treating states as degnerate
   RTIME   =   -0.100 relaxation time in fs
  (WPLASMAI=    0.000 imaginary part of plasma frequency in eV, 0.658/RTIME)
   DFIELD  = 0.0000000 0.0000000 0.0000000 field for delta impulse in time

 Orbital magnetization related:
   ORBITALMAG=     F  switch on orbital magnetization
   LCHIMAG   =     F  perturbation theory with respect to B field
   DQ        =  0.001000  dq finite difference perturbation B field
   LLRAUG    =     F  two centre corrections for induced B field



--------------------------------------------------------------------------------------------------------


 conjugate gradient relaxation of ions
   using selective dynamics as specified on POSCAR
 charge density and potential will be updated during run
 spin polarized calculation
 Variant of blocked Davidson
 Davidson routine will perform the subspace rotation
 perform sub-space diagonalisation
    after iterative eigenvector-optimisation
 modified Broyden-mixing scheme, WC =      100.0
 initial mixing is a Kerker type mixing with AMIX =  0.4000 and BMIX =      1.0000
 Hartree-type preconditioning will be used
 using additional bands           15
 real space projection scheme for non local part
 use partial core corrections
 calculate Harris-corrections to forces   (improved forces if not selfconsistent)
 use gradient corrections 
 use of overlap-Matrix (Vanderbilt PP)
 Fermi weights with tetrahedron method with Bloechl corrections


--------------------------------------------------------------------------------------------------------


  energy-cutoff  :      520.00
  volume of cell :      968.84
      direct lattice vectors                 reciprocal lattice vectors
     6.907777000 -0.000000000  0.000000000     0.144764372 -0.083579742  0.000000000
     3.453888000  5.982310000  0.000000000     0.000000000  0.167159509 -0.000000000
     0.000000000  0.000000000 23.444588000    -0.000000000  0.000000000  0.042653767

  length of vectors
     6.907777000  6.907776433 23.444588000     0.167159495  0.167159509  0.042653767



 k-points in units of 2pi/SCALE and weight: Kpoints from vasprun.xml                
   0.00000000  0.00000000  0.00000000       0.040
   0.02895287 -0.01671595  0.00000000       0.240
   0.05790575 -0.03343190  0.00000000       0.240
   0.05790575  0.00000000  0.00000000       0.240
  -0.05790575  0.06686380  0.00000000       0.240

 k-points in reciprocal lattice and weights: Kpoints from vasprun.xml                
   0.00000000  0.00000000  0.00000000       0.040
   0.20000000  0.00000000  0.00000000       0.240
   0.40000000  0.00000000  0.00000000       0.240
   0.40000000  0.20000000  0.00000000       0.240
  -0.40000000  0.20000000  0.00000000       0.240

 position of ions in fractional coordinates (direct lattice) 
   0.33333300  0.33333300  0.49992500
   0.66666700  0.66666700  0.50007500
   0.00000000  0.00000000  0.44821600
   0.00000000  0.00000000  0.55178400
   0.62635700  0.00042000  0.57375200
   0.00042000  0.37322400  0.57375200
   0.37322400  0.62635700  0.57375200
   0.37364300  0.99958000  0.42624800
   0.99958000  0.62677600  0.42624800
   0.62677600  0.37364300  0.42624800

 position of ions in cartesian coordinates  (Angst):
   3.45388488  1.99410134 11.72053566
   6.90778012  3.98820866 11.72405234
   0.00000000  0.00000000 10.50823946
   0.00000000  0.00000000 12.93634854
   4.32818511  0.00251257 13.45137925
   1.29197516  2.23274167 13.45137925
   4.74151509  3.74706174 13.45137925
   6.03347989  5.97979743  9.99320875
   9.06968984  3.74956833  9.99320875
   5.62014991  2.23524826  9.99320875



--------------------------------------------------------------------------------------------------------


 k-point  1 :   0.0000 0.0000 0.0000  plane waves:   26073
 k-point  2 :   0.2000 0.0000 0.0000  plane waves:   26070
 k-point  3 :   0.4000 0.0000 0.0000  plane waves:   26086
 k-point  4 :   0.4000 0.2000 0.0000  plane waves:   26085
 k-point  5 :  -0.4000 0.2000 0.0000  plane waves:   26115

 maximum and minimum number of plane-waves per node :     26115    26070

 maximum number of plane-waves:     26115
 maximum index in each direction: 
   IXMAX=   13   IYMAX=   12   IZMAX=   43
   IXMIN=  -13   IYMIN=  -13   IZMIN=  -43


 serial   3D FFT for wavefunctions
 parallel 3D FFT for charge:
    minimum data exchange during FFTs selected (reduces bandwidth)


 total amount of memory used by VASP MPI-rank0   129818. kBytes
=======================================================================

   base      :      30000. kBytes
   nonlr-proj:       7318. kBytes
   fftplans  :      11247. kBytes
   grid      :      68332. kBytes
   one-center:        311. kBytes
   wavefun   :      12610. kBytes

     INWAV:  cpu time    0.0000: real time    0.0004
 Broyden mixing: mesh for mixing (old mesh)
   NGX = 25   NGY = 25   NGZ = 87
  (NGX  =108   NGY  =108   NGZ  =360)
  gives a total of  54375 points

 initial charge density was supplied:
 charge density of overlapping atoms calculated
 number of electron      65.0000000 magnetization       7.3200000
 keeping initial charge density in first step


--------------------------------------------------------------------------------------------------------


 Maximum index for non-local projection operator         7247
 Maximum index for augmentation-charges         2133 (set IRDMAX)


--------------------------------------------------------------------------------------------------------


 First call to EWALD:  gamma=   0.179
 Maximum number of real-space cells 4x 4x 1
 Maximum number of reciprocal cells 2x 2x 6

    FEWALD:  cpu time    0.0000: real time    0.0015


--------------------------------------- Iteration      1(   1)  ---------------------------------------


vdW kernel read from vdw_kernel.bindat
  0.0000  0.2424  0.5071  0.7962  1.1119  1.4567  1.8333  2.2446  2.6937  3.1842
  3.7199  4.3049  4.9438  5.6415  6.4036  7.2358  8.1446  9.1372 10.2212 11.4050
 12.6979 14.1099 15.6519 17.3360 19.1751 21.1837 23.3773 25.7729 28.3892 31.2465
 34.3669 37.7748 41.4965 45.5611 50.0000

    POTLOK:  cpu time   52.8280: real time   53.0613
    SETDIJ:  cpu time    0.0440: real time    0.0452
     EDDAV:  cpu time   22.5560: real time   22.7875
 BZINTS: Fermi energy:  4.529211; 65.000000 electrons
         Band energy: -45.305458;  BLOECHL correction: -0.035136
       DOS:  cpu time    0.0040: real time    0.0046
    --------------------------------------------
      LOOP:  cpu time   75.4320: real time   75.8986

 eigenvalue-minimisations  :   960
 total energy-change (2. order) : 0.4213656E+03  (-0.1995623E+04)
 number of electron      65.0000000 magnetization       7.3200000
 augmentation part       65.0000000 magnetization       7.3200000

 Free energy of the ion-electron system (eV)
  ---------------------------------------------------
  alpha Z        PSCENC =        41.46198644
  Ewald energy   TEWEN  =      8338.88239735
  -Hartree energ DENC   =    -11933.50764714
  -exchange      EXHF   =         0.00000000
  -V(xc)+E(xc)   XCENC  =        45.02433890
  PAW double counting   =      2465.35493070    -2487.19307449
  entropy T*S    EENTRO =         0.00000000
  eigenvalues    EBANDS =       -45.30545808
  atomic energy  EATOM  =      3996.64816900
  Solvation  Ediel_sol  =         0.00000000
  ---------------------------------------------------
  free energy    TOTEN  =       421.36564269 eV

  energy without entropy =      421.36564269  energy(sigma->0) =      421.36564269


--------------------------------------------------------------------------------------------------------




--------------------------------------- Iteration      1(   2)  ---------------------------------------


     EDDAV:  cpu time   33.2560: real time   33.4937
 BZINTS: Fermi energy: -2.078507; 65.000000 electrons
         Band energy:-438.872235;  BLOECHL correction:  0.000000
       DOS:  cpu time    0.0000: real time    0.0017
    --------------------------------------------
      LOOP:  cpu time   33.2560: real time   33.4954

 eigenvalue-minimisations  :  1472
 total energy-change (2. order) :-0.3935668E+03  (-0.3754330E+03)
 number of electron      65.0000000 magnetization       7.3200000
 augmentation part       65.0000000 magnetization       7.3200000

 Free energy of the ion-electron system (eV)
  ---------------------------------------------------
  alpha Z        PSCENC =        41.46198644
  Ewald energy   TEWEN  =      8338.88239735
  -Hartree energ DENC   =    -11933.50764714
  -exchange      EXHF   =         0.00000000
  -V(xc)+E(xc)   XCENC  =        45.02433890
  PAW double counting   =      2465.35493070    -2487.19307449
  entropy T*S    EENTRO =         0.00000000
  eigenvalues    EBANDS =      -438.87223515
  atomic energy  EATOM  =      3996.64816900
  Solvation  Ediel_sol  =         0.00000000
  ---------------------------------------------------
  free energy    TOTEN  =        27.79886561 eV

  energy without entropy =       27.79886561  energy(sigma->0) =       27.79886561


--------------------------------------------------------------------------------------------------------




--------------------------------------- Iteration      1(   3)  ---------------------------------------


     EDDAV:  cpu time   28.6960: real time   29.0233
 BZINTS: Fermi energy: -2.861721; 65.000000 electrons
         Band energy:-502.001134;  BLOECHL correction: -0.000880
       DOS:  cpu time    0.0080: real time    0.0074
    --------------------------------------------
      LOOP:  cpu time   28.7040: real time   29.0306

 eigenvalue-minimisations  :  1248
 total energy-change (2. order) :-0.6312890E+02  (-0.6130823E+02)
 number of electron      65.0000000 magnetization       7.3200000
 augmentation part       65.0000000 magnetization       7.3200000

 Free energy of the ion-electron system (eV)
  ---------------------------------------------------
  alpha Z        PSCENC =        41.46198644
  Ewald energy   TEWEN  =      8338.88239735
  -Hartree energ DENC   =    -11933.50764714
  -exchange      EXHF   =         0.00000000
  -V(xc)+E(xc)   XCENC  =        45.02433890
  PAW double counting   =      2465.35493070    -2487.19307449
  entropy T*S    EENTRO =         0.00000000
  eigenvalues    EBANDS =      -502.00113388
  atomic energy  EATOM  =      3996.64816900
  Solvation  Ediel_sol  =         0.00000000
  ---------------------------------------------------
  free energy    TOTEN  =       -35.33003312 eV

  energy without entropy =      -35.33003312  energy(sigma->0) =      -35.33003312


--------------------------------------------------------------------------------------------------------




--------------------------------------- Iteration      1(   4)  ---------------------------------------


     EDDAV:  cpu time   27.1200: real time   27.1901
 BZINTS: Fermi energy: -2.872999; 65.000000 electrons
         Band energy:-504.201518;  BLOECHL correction: -0.000975
       DOS:  cpu time    0.0040: real time    0.0053
    --------------------------------------------
      LOOP:  cpu time   27.1240: real time   27.1954

 eigenvalue-minimisations  :  1168
 total energy-change (2. order) :-0.2200385E+01  (-0.2185349E+01)
 number of electron      65.0000000 magnetization       7.3200000
 augmentation part       65.0000000 magnetization       7.3200000

 Free energy of the ion-electron system (eV)
  ---------------------------------------------------
  alpha Z        PSCENC =        41.46198644
  Ewald energy   TEWEN  =      8338.88239735
  -Hartree energ DENC   =    -11933.50764714
  -exchange      EXHF   =         0.00000000
  -V(xc)+E(xc)   XCENC  =        45.02433890
  PAW double counting   =      2465.35493070    -2487.19307449
  entropy T*S    EENTRO =         0.00000000
  eigenvalues    EBANDS =      -504.20151840
  atomic energy  EATOM  =      3996.64816900
  Solvation  Ediel_sol  =         0.00000000
  ---------------------------------------------------
  free energy    TOTEN  =       -37.53041763 eV

  energy without entropy =      -37.53041763  energy(sigma->0) =      -37.53041763


--------------------------------------------------------------------------------------------------------




--------------------------------------- Iteration      1(   5)  ---------------------------------------


     EDDAV:  cpu time   27.9640: real time   28.1189
 BZINTS: Fermi energy: -2.873499; 65.000000 electrons
         Band energy:-504.251366;  BLOECHL correction: -0.000993
       DOS:  cpu time    0.0080: real time    0.0083
    CHARGE:  cpu time    2.1320: real time    2.1414
    MIXING:  cpu time    0.0400: real time    0.0400
    --------------------------------------------
      LOOP:  cpu time   30.1440: real time   30.3086

 eigenvalue-minimisations  :  1216
 total energy-change (2. order) :-0.4984792E-01  (-0.4982073E-01)
 number of electron      64.9999992 magnetization       7.2831287
 augmentation part        0.4437321 magnetization       4.7305384

 Broyden mixing:
  rms(total) = 0.34824E+01    rms(broyden)= 0.34823E+01
  rms(prec ) = 0.37060E+01
  weight for this iteration     100.00

 Free energy of the ion-electron system (eV)
  ---------------------------------------------------
  alpha Z        PSCENC =        41.46198644
  Ewald energy   TEWEN  =      8338.88239735
  -Hartree energ DENC   =    -11933.50764714
  -exchange      EXHF   =         0.00000000
  -V(xc)+E(xc)   XCENC  =        45.02433890
  PAW double counting   =      2465.35493070    -2487.19307449
  entropy T*S    EENTRO =         0.00000000
  eigenvalues    EBANDS =      -504.25136632
  atomic energy  EATOM  =      3996.64816900
  Solvation  Ediel_sol  =         0.00000000
  ---------------------------------------------------
  free energy    TOTEN  =       -37.58026556 eV

  energy without entropy =      -37.58026556  energy(sigma->0) =      -37.58026556


--------------------------------------------------------------------------------------------------------




--------------------------------------- Iteration      1(   6)  ---------------------------------------


    POTLOK:  cpu time   52.7680: real time   53.0041
    SETDIJ:  cpu time    0.0480: real time    0.0485
     EDDAV:  cpu time   28.5320: real time   28.5969
 BZINTS: Fermi energy: -4.174575; 65.000000 electrons
         Band energy:-755.881714;  BLOECHL correction: -0.024779
       DOS:  cpu time    0.0040: real time    0.0071
    CHARGE:  cpu time    2.1600: real time    2.2109
    MIXING:  cpu time    0.0400: real time    0.0419
    --------------------------------------------
      LOOP:  cpu time   83.5520: real time   83.9094

 eigenvalue-minimisations  :  1232
 total energy-change (2. order) :-0.4476977E+02  (-0.5162157E+02)
 number of electron      64.9999991 magnetization       6.9906134
 augmentation part        8.6800743 magnetization       6.7258336

 Broyden mixing:
  rms(total) = 0.53860E+01    rms(broyden)= 0.53860E+01
  rms(prec ) = 0.56170E+01
  weight for this iteration     100.00

 eigenvalues of (default mixing * dielectric matrix)
  average eigenvalue GAMMA=   0.3632
  0.3632

 Free energy of the ion-electron system (eV)
  ---------------------------------------------------
  alpha Z        PSCENC =        41.46198644
  Ewald energy   TEWEN  =      8338.88239735
  -Hartree energ DENC   =    -11755.44757398
  -exchange      EXHF   =         0.00000000
  -V(xc)+E(xc)   XCENC  =        43.68297584
  PAW double counting   =      2181.98234808    -2173.67862793
  entropy T*S    EENTRO =         0.00000000
  eigenvalues    EBANDS =      -755.88171385
  atomic energy  EATOM  =      3996.64816900
  Solvation  Ediel_sol  =         0.00000000
  ---------------------------------------------------
  free energy    TOTEN  =       -82.35003905 eV

  energy without entropy =      -82.35003905  energy(sigma->0) =      -82.35003905


--------------------------------------------------------------------------------------------------------




--------------------------------------- Iteration      1(   7)  ---------------------------------------


    POTLOK:  cpu time   52.3520: real time   52.3976
    SETDIJ:  cpu time    0.0440: real time    0.0451
     EDDAV:  cpu time   26.6640: real time   26.8484
 BZINTS: Fermi energy: -4.290440; 65.000000 electrons
         Band energy:-603.712835;  BLOECHL correction: -0.032161
       DOS:  cpu time    0.0040: real time    0.0052
    CHARGE:  cpu time    2.1640: real time    2.1717
    MIXING:  cpu time    0.0400: real time    0.0408
    --------------------------------------------
      LOOP:  cpu time   81.2680: real time   81.5086

 eigenvalue-minimisations  :  1152
 total energy-change (2. order) : 0.3811369E+02  (-0.5790544E+01)
 number of electron      64.9999991 magnetization       6.8280657
 augmentation part        7.5986617 magnetization       4.7276325

 Broyden mixing:
  rms(total) = 0.28682E+01    rms(broyden)= 0.28682E+01
  rms(prec ) = 0.30522E+01
  weight for this iteration     100.00

 eigenvalues of (default mixing * dielectric matrix)
  average eigenvalue GAMMA=   0.4704
  0.4704  0.4704

 Free energy of the ion-electron system (eV)
  ---------------------------------------------------
  alpha Z        PSCENC =        41.46198644
  Ewald energy   TEWEN  =      8338.88239735
  -Hartree energ DENC   =    -11843.85408945
  -exchange      EXHF   =         0.00000000
  -V(xc)+E(xc)   XCENC  =        43.11898647
  PAW double counting   =      2338.60328620    -2355.38424786
  entropy T*S    EENTRO =         0.00000000
  eigenvalues    EBANDS =      -603.71283514
  atomic energy  EATOM  =      3996.64816900
  Solvation  Ediel_sol  =         0.00000000
  ---------------------------------------------------
  free energy    TOTEN  =       -44.23634700 eV

  energy without entropy =      -44.23634700  energy(sigma->0) =      -44.23634700


--------------------------------------------------------------------------------------------------------




--------------------------------------- Iteration      1(   8)  ---------------------------------------


    POTLOK:  cpu time   52.0560: real time   52.1112
    SETDIJ:  cpu time    0.0440: real time    0.0471
     EDDAV:  cpu time   28.0760: real time   28.3809
 BZINTS: Fermi energy: -4.136763; 65.000000 electrons
         Band energy:-545.518722;  BLOECHL correction: -0.017043
       DOS:  cpu time    0.0040: real time    0.0064
    CHARGE:  cpu time    2.1640: real time    2.1720
    MIXING:  cpu time    0.0440: real time    0.0439
    --------------------------------------------
      LOOP:  cpu time   82.3880: real time   82.7615

 eigenvalue-minimisations  :  1232
 total energy-change (2. order) : 0.9759700E+01  (-0.1412952E+01)
 number of electron      64.9999991 magnetization       6.7158644
 augmentation part        6.0107748 magnetization       4.4478017

 Broyden mixing:
  rms(total) = 0.13808E+01    rms(broyden)= 0.13807E+01
  rms(prec ) = 0.14648E+01
  weight for this iteration     100.00

 eigenvalues of (default mixing * dielectric matrix)
  average eigenvalue GAMMA=   0.4585
  0.5168  0.5168  0.3419

 Free energy of the ion-electron system (eV)
  ---------------------------------------------------
  alpha Z        PSCENC =        41.46198644
  Ewald energy   TEWEN  =      8338.88239735
  -Hartree energ DENC   =    -11886.55303443
  -exchange      EXHF   =         0.00000000
  -V(xc)+E(xc)   XCENC  =        44.05715978
  PAW double counting   =      2412.73890935    -2436.19351250
  entropy T*S    EENTRO =         0.00000000
  eigenvalues    EBANDS =      -545.51872244
  atomic energy  EATOM  =      3996.64816900
  Solvation  Ediel_sol  =         0.00000000
  ---------------------------------------------------
  free energy    TOTEN  =       -34.47664745 eV

  energy without entropy =      -34.47664745  energy(sigma->0) =      -34.47664745


--------------------------------------------------------------------------------------------------------




--------------------------------------- Iteration      1(   9)  ---------------------------------------


    POTLOK:  cpu time   50.9400: real time   50.9998
    SETDIJ:  cpu time    0.0560: real time    0.0563
     EDDAV:  cpu time   34.1040: real time   34.2438
 BZINTS: Fermi energy: -4.047070; 65.000000 electrons
         Band energy:-533.496866;  BLOECHL correction: -0.014497
       DOS:  cpu time    0.0040: real time    0.0065
    CHARGE:  cpu time    2.1680: real time    2.1759
    MIXING:  cpu time    0.0440: real time    0.0429
    --------------------------------------------
      LOOP:  cpu time   87.3160: real time   87.5251

 eigenvalue-minimisations  :  1536
 total energy-change (2. order) : 0.8223405E+00  (-0.2666937E+00)
 number of electron      64.9999991 magnetization       6.6658235
 augmentation part        5.2162071 magnetization       4.7911629

 Broyden mixing:
  rms(total) = 0.74140E+00    rms(broyden)= 0.74123E+00
  rms(prec ) = 0.78001E+00
  weight for this iteration     100.00

 eigenvalues of (default mixing * dielectric matrix)
  average eigenvalue GAMMA=   0.4967
  0.4879  0.4879  0.5054  0.5054

 Free energy of the ion-electron system (eV)
  ---------------------------------------------------
  alpha Z        PSCENC =        41.46198644
  Ewald energy   TEWEN  =      8338.88239735
  -Hartree energ DENC   =    -11897.50816059
  -exchange      EXHF   =         0.00000000
  -V(xc)+E(xc)   XCENC  =        44.27204287
  PAW double counting   =      2434.07766817    -2457.99154457
  entropy T*S    EENTRO =         0.00000000
  eigenvalues    EBANDS =      -533.49686559
  atomic energy  EATOM  =      3996.64816900
  Solvation  Ediel_sol  =         0.00000000
  ---------------------------------------------------
  free energy    TOTEN  =       -33.65430692 eV

  energy without entropy =      -33.65430692  energy(sigma->0) =      -33.65430692


--------------------------------------------------------------------------------------------------------




--------------------------------------- Iteration      1(  10)  ---------------------------------------


    POTLOK:  cpu time   50.8640: real time   50.9881
    SETDIJ:  cpu time    0.0440: real time    0.0466
     EDDAV:  cpu time   26.5280: real time   26.7335
 BZINTS: Fermi energy: -4.058593; 65.000000 electrons
         Band energy:-534.244516;  BLOECHL correction: -0.014401
       DOS:  cpu time    0.0040: real time    0.0062
    CHARGE:  cpu time    2.1400: real time    2.1669
    MIXING:  cpu time    0.0400: real time    0.0427
    --------------------------------------------
      LOOP:  cpu time   79.6200: real time   79.9840

 eigenvalue-minimisations  :  1168
 total energy-change (2. order) :-0.4847097E-01  (-0.3010702E-01)
 number of electron      64.9999991 magnetization       6.1666542
 augmentation part        5.2612023 magnetization       4.2620451

 Broyden mixing:
  rms(total) = 0.76722E+00    rms(broyden)= 0.76722E+00
  rms(prec ) = 0.80966E+00
  weight for this iteration     100.00

 eigenvalues of (default mixing * dielectric matrix)
  average eigenvalue GAMMA=   0.7156
  0.9048  0.9048  0.6262  0.6262  0.5157

 Free energy of the ion-electron system (eV)
  ---------------------------------------------------
  alpha Z        PSCENC =        41.46198644
  Ewald energy   TEWEN  =      8338.88239735
  -Hartree energ DENC   =    -11896.88253277
  -exchange      EXHF   =         0.00000000
  -V(xc)+E(xc)   XCENC  =        44.24476712
  PAW double counting   =      2433.46521632    -2457.27826557
  entropy T*S    EENTRO =         0.00000000
  eigenvalues    EBANDS =      -534.24451579
  atomic energy  EATOM  =      3996.64816900
  Solvation  Ediel_sol  =         0.00000000
  ---------------------------------------------------
  free energy    TOTEN  =       -33.70277789 eV

  energy without entropy =      -33.70277789  energy(sigma->0) =      -33.70277789


--------------------------------------------------------------------------------------------------------




--------------------------------------- Iteration      1(  11)  ---------------------------------------


    POTLOK:  cpu time   50.9920: real time   51.1444
    SETDIJ:  cpu time    0.0440: real time    0.0441
     EDDAV:  cpu time   37.0640: real time   37.2590
 BZINTS: Fermi energy: -4.015180; 65.000000 electrons
         Band energy:-530.279987;  BLOECHL correction: -0.007860
       DOS:  cpu time    0.0040: real time    0.0069
    CHARGE:  cpu time    2.1720: real time    2.1807
    MIXING:  cpu time    0.0440: real time    0.0435
    --------------------------------------------
      LOOP:  cpu time   90.3200: real time   90.6785

 eigenvalue-minimisations  :  1664
 total energy-change (2. order) :-0.6817773E+01  (-0.5669058E+01)
 number of electron      64.9999990 magnetization       6.1572408
 augmentation part        4.6721494 magnetization       6.3368018

 Broyden mixing:
  rms(total) = 0.15213E+01    rms(broyden)= 0.15083E+01
  rms(prec ) = 0.15546E+01
  weight for this iteration     100.00

 eigenvalues of (default mixing * dielectric matrix)
  average eigenvalue GAMMA=   0.5977
  0.9064  0.9064  0.6262  0.6262  0.5156  0.0056

 Free energy of the ion-electron system (eV)
  ---------------------------------------------------
  alpha Z        PSCENC =        41.46198644
  Ewald energy   TEWEN  =      8338.88239735
  -Hartree energ DENC   =    -11907.88032294
  -exchange      EXHF   =         0.00000000
  -V(xc)+E(xc)   XCENC  =        44.48229571
  PAW double counting   =      2456.18259850    -2480.01768834
  entropy T*S    EENTRO =         0.00000000
  eigenvalues    EBANDS =      -530.27998668
  atomic energy  EATOM  =      3996.64816900
  Solvation  Ediel_sol  =         0.00000000
  ---------------------------------------------------
  free energy    TOTEN  =       -40.52055095 eV

  energy without entropy =      -40.52055095  energy(sigma->0) =      -40.52055095


--------------------------------------------------------------------------------------------------------




--------------------------------------- Iteration      1(  12)  ---------------------------------------


    POTLOK:  cpu time   51.0960: real time   51.1321
    SETDIJ:  cpu time    0.0440: real time    0.0451
     EDDAV:  cpu time   24.3520: real time   24.4689
 BZINTS: Fermi energy: -4.019780; 65.000000 electrons
         Band energy:-524.418399;  BLOECHL correction: -0.007948
       DOS:  cpu time    0.0040: real time    0.0071
    CHARGE:  cpu time    2.1840: real time    2.1917
    MIXING:  cpu time    0.0440: real time    0.0437
    --------------------------------------------
      LOOP:  cpu time   77.7240: real time   77.8886

 eigenvalue-minimisations  :  1056
 total energy-change (2. order) : 0.5979960E+01  (-0.7927919E+02)
 number of electron      64.9999990 magnetization       6.1398463
 augmentation part        4.7678799 magnetization       6.2190080

 Broyden mixing:
  rms(total) = 0.11701E+01    rms(broyden)= 0.11544E+01
  rms(prec ) = 0.11989E+01
  weight for this iteration     100.00

 eigenvalues of (default mixing * dielectric matrix)
  average eigenvalue GAMMA=   0.5162
  0.9097  0.9097  0.6262  0.6262  0.5151  0.0133  0.0133

 Free energy of the ion-electron system (eV)
  ---------------------------------------------------
  alpha Z        PSCENC =        41.46198644
  Ewald energy   TEWEN  =      8338.88239735
  -Hartree energ DENC   =    -11907.90573993
  -exchange      EXHF   =         0.00000000
  -V(xc)+E(xc)   XCENC  =        44.71028711
  PAW double counting   =      2456.38739030    -2480.30668249
  entropy T*S    EENTRO =         0.00000000
  eigenvalues    EBANDS =      -524.41839922
  atomic energy  EATOM  =      3996.64816900
  Solvation  Ediel_sol  =         0.00000000
  ---------------------------------------------------
  free energy    TOTEN  =       -34.54059145 eV

  energy without entropy =      -34.54059145  energy(sigma->0) =      -34.54059145


--------------------------------------------------------------------------------------------------------




--------------------------------------- Iteration      1(  13)  ---------------------------------------


    POTLOK:  cpu time   50.9920: real time   51.1467
    SETDIJ:  cpu time    0.0480: real time    0.0457
     EDDAV:  cpu time   24.0960: real time   24.1632
 BZINTS: Fermi energy: -4.005047; 65.000000 electrons
         Band energy:-534.785973;  BLOECHL correction: -0.041194
       DOS:  cpu time    0.0040: real time    0.0070
    CHARGE:  cpu time    2.2000: real time    2.1998
    MIXING:  cpu time    0.0440: real time    0.0452
    --------------------------------------------
      LOOP:  cpu time   77.3840: real time   77.6076

 eigenvalue-minimisations  :  1040
 total energy-change (2. order) :-0.1063957E+02  (-0.4027221E+02)
 number of electron      64.9999990 magnetization       6.0993534
 augmentation part        4.6850494 magnetization       5.8061120

 Broyden mixing:
  rms(total) = 0.75750E+00    rms(broyden)= 0.74798E+00
  rms(prec ) = 0.79794E+00
  weight for this iteration     100.00

 eigenvalues of (default mixing * dielectric matrix)
  average eigenvalue GAMMA=   0.4592
  0.9181  0.9181  0.6259  0.6259  0.5143  0.0297  0.0297  0.0119

 Free energy of the ion-electron system (eV)
  ---------------------------------------------------
  alpha Z        PSCENC =        41.46198644
  Ewald energy   TEWEN  =      8338.88239735
  -Hartree energ DENC   =    -11908.07457657
  -exchange      EXHF   =         0.00000000
  -V(xc)+E(xc)   XCENC  =        44.61222217
  PAW double counting   =      2456.85948442    -2480.78387326
  entropy T*S    EENTRO =         0.00000000
  eigenvalues    EBANDS =      -534.78597297
  atomic energy  EATOM  =      3996.64816900
  Solvation  Ediel_sol  =         0.00000000
  ---------------------------------------------------
  free energy    TOTEN  =       -45.18016344 eV

  energy without entropy =      -45.18016344  energy(sigma->0) =      -45.18016344


--------------------------------------------------------------------------------------------------------




--------------------------------------- Iteration      1(  14)  ---------------------------------------


    POTLOK:  cpu time   50.8120: real time   50.9003
    SETDIJ:  cpu time    0.0440: real time    0.0461
     EDDAV:  cpu time   25.0680: real time   25.1915
 BZINTS: Fermi energy: -3.886993; 65.000000 electrons
         Band energy:-523.047250;  BLOECHL correction: -0.011160
       DOS:  cpu time    0.0040: real time    0.0072
    CHARGE:  cpu time    2.1480: real time    2.1514
    MIXING:  cpu time    0.0480: real time    0.0464
    --------------------------------------------
      LOOP:  cpu time   78.1240: real time   78.3428

 eigenvalue-minimisations  :  1088
 total energy-change (2. order) : 0.1186770E+02  (-0.2915827E+02)
 number of electron      64.9999990 magnetization       5.4118944
 augmentation part        4.7553837 magnetization       3.7546278

 Broyden mixing:
  rms(total) = 0.33725E+00    rms(broyden)= 0.33098E+00
  rms(prec ) = 0.34221E+00
  weight for this iteration     100.00

 eigenvalues of (default mixing * dielectric matrix)
  average eigenvalue GAMMA=   0.5859
  1.4196  1.4196  0.6079  0.6079  0.5647  0.5647  0.0444  0.0293  0.0147

 Free energy of the ion-electron system (eV)
  ---------------------------------------------------
  alpha Z        PSCENC =        41.46198644
  Ewald energy   TEWEN  =      8338.88239735
  -Hartree energ DENC   =    -11907.92843059
  -exchange      EXHF   =         0.00000000
  -V(xc)+E(xc)   XCENC  =        44.59924228
  PAW double counting   =      2457.36211935    -2481.29069432
  entropy T*S    EENTRO =         0.00000000
  eigenvalues    EBANDS =      -523.04725017
  atomic energy  EATOM  =      3996.64816900
  Solvation  Ediel_sol  =         0.00000000
  ---------------------------------------------------
  free energy    TOTEN  =       -33.31246067 eV

  energy without entropy =      -33.31246067  energy(sigma->0) =      -33.31246067


--------------------------------------------------------------------------------------------------------




--------------------------------------- Iteration      1(  15)  ---------------------------------------


    POTLOK:  cpu time   50.7800: real time   50.9188
    SETDIJ:  cpu time    0.0480: real time    0.0496
     EDDAV:  cpu time   29.1440: real time   29.2939
 BZINTS: Fermi energy: -3.811921; 65.000000 electrons
         Band energy:-520.177286;  BLOECHL correction: -0.007278
       DOS:  cpu time    0.0080: real time    0.0065
    CHARGE:  cpu time    2.1360: real time    2.1389
    MIXING:  cpu time    0.0480: real time    0.0465
    --------------------------------------------
      LOOP:  cpu time   82.1640: real time   82.4542

 eigenvalue-minimisations  :  1296
 total energy-change (2. order) :-0.2701887E+00  (-0.5649383E-01)
 number of electron      64.9999990 magnetization       5.2308463
 augmentation part        4.6482273 magnetization       3.6104731

 Broyden mixing:
  rms(total) = 0.33108E+00    rms(broyden)= 0.33077E+00
  rms(prec ) = 0.35478E+00
  weight for this iteration     100.00

 eigenvalues of (default mixing * dielectric matrix)
  average eigenvalue GAMMA=   0.5753
  1.5376  1.5376  0.6092  0.6092  0.5821  0.5821  0.2032  0.0501  0.0277  0.0147

 Free energy of the ion-electron system (eV)
  ---------------------------------------------------
  alpha Z        PSCENC =        41.46198644
  Ewald energy   TEWEN  =      8338.88239735
  -Hartree energ DENC   =    -11911.55052008
  -exchange      EXHF   =         0.00000000
  -V(xc)+E(xc)   XCENC  =        44.54630038
  PAW double counting   =      2466.13370408    -2489.52740106
  entropy T*S    EENTRO =         0.00000000
  eigenvalues    EBANDS =      -520.17728553
  atomic energy  EATOM  =      3996.64816900
  Solvation  Ediel_sol  =         0.00000000
  ---------------------------------------------------
  free energy    TOTEN  =       -33.58264942 eV

  energy without entropy =      -33.58264942  energy(sigma->0) =      -33.58264942


--------------------------------------------------------------------------------------------------------




--------------------------------------- Iteration      1(  16)  ---------------------------------------


    POTLOK:  cpu time   50.7480: real time   50.9939
    SETDIJ:  cpu time    0.0440: real time    0.0462
     EDDAV:  cpu time   25.1760: real time   25.4595
 BZINTS: Fermi energy: -3.820265; 65.000000 electrons
         Band energy:-520.019479;  BLOECHL correction: -0.008383
       DOS:  cpu time    0.0040: real time    0.0068
    CHARGE:  cpu time    2.1400: real time    2.1571
    MIXING:  cpu time    0.0480: real time    0.0477
    --------------------------------------------
      LOOP:  cpu time   78.1600: real time   78.7112

 eigenvalue-minimisations  :  1104
 total energy-change (2. order) : 0.3169140E-01  (-0.3839904E-01)
 number of electron      64.9999990 magnetization       4.7911954
 augmentation part        4.6560060 magnetization       3.1857625

 Broyden mixing:
  rms(total) = 0.18446E+00    rms(broyden)= 0.18435E+00
  rms(prec ) = 0.19263E+00
  weight for this iteration     100.00

 eigenvalues of (default mixing * dielectric matrix)
  average eigenvalue GAMMA=   0.6275
  2.2986  1.1023  0.6233  0.6233  0.7170  0.7170  0.5793  0.1504  0.0492  0.0278
  0.0147

 Free energy of the ion-electron system (eV)
  ---------------------------------------------------
  alpha Z        PSCENC =        41.46198644
  Ewald energy   TEWEN  =      8338.88239735
  -Hartree energ DENC   =    -11911.77960731
  -exchange      EXHF   =         0.00000000
  -V(xc)+E(xc)   XCENC  =        44.53202622
  PAW double counting   =      2467.03880442    -2490.31525493
  entropy T*S    EENTRO =         0.00000000
  eigenvalues    EBANDS =      -520.01947921
  atomic energy  EATOM  =      3996.64816900
  Solvation  Ediel_sol  =         0.00000000
  ---------------------------------------------------
  free energy    TOTEN  =       -33.55095802 eV

  energy without entropy =      -33.55095802  energy(sigma->0) =      -33.55095802


--------------------------------------------------------------------------------------------------------




--------------------------------------- Iteration      1(  17)  ---------------------------------------


    POTLOK:  cpu time   50.8040: real time   50.9399
    SETDIJ:  cpu time    0.0440: real time    0.0455
     EDDAV:  cpu time   28.7680: real time   28.9950
 BZINTS: Fermi energy: -3.804824; 65.000000 electrons
         Band energy:-518.909549;  BLOECHL correction: -0.006722
       DOS:  cpu time    0.0040: real time    0.0063
    CHARGE:  cpu time    2.1240: real time    2.1346
    MIXING:  cpu time    0.0480: real time    0.0482
    --------------------------------------------
      LOOP:  cpu time   81.7920: real time   82.1696

 eigenvalue-minimisations  :  1280
 total energy-change (2. order) :-0.5096579E-01  (-0.7802191E-02)
 number of electron      64.9999990 magnetization       4.1358040
 augmentation part        4.5041878 magnetization       2.6195652

 Broyden mixing:
  rms(total) = 0.12906E+00    rms(broyden)= 0.12902E+00
  rms(prec ) = 0.13312E+00
  weight for this iteration     100.00

 eigenvalues of (default mixing * dielectric matrix)
  average eigenvalue GAMMA=   0.7359
  2.1668  2.1668  0.9045  0.9045  0.6211  0.6211  0.6161  0.5886  0.1490  0.0492
  0.0278  0.0147

 Free energy of the ion-electron system (eV)
  ---------------------------------------------------
  alpha Z        PSCENC =        41.46198644
  Ewald energy   TEWEN  =      8338.88239735
  -Hartree energ DENC   =    -11913.28058205
  -exchange      EXHF   =         0.00000000
  -V(xc)+E(xc)   XCENC  =        44.55888480
  PAW double counting   =      2469.84337116    -2492.80660170
  entropy T*S    EENTRO =         0.00000000
  eigenvalues    EBANDS =      -518.90954881
  atomic energy  EATOM  =      3996.64816900
  Solvation  Ediel_sol  =         0.00000000
  ---------------------------------------------------
  free energy    TOTEN  =       -33.60192381 eV

  energy without entropy =      -33.60192381  energy(sigma->0) =      -33.60192381


--------------------------------------------------------------------------------------------------------




--------------------------------------- Iteration      1(  18)  ---------------------------------------


    POTLOK:  cpu time   50.7480: real time   50.9783
    SETDIJ:  cpu time    0.0480: real time    0.0461
     EDDAV:  cpu time   29.5240: real time   29.6885
 BZINTS: Fermi energy: -3.816945; 65.000000 electrons
         Band energy:-519.947176;  BLOECHL correction: -0.005797
       DOS:  cpu time    0.0080: real time    0.0073
    CHARGE:  cpu time    2.1360: real time    2.1400
    MIXING:  cpu time    0.0480: real time    0.0503
    --------------------------------------------
      LOOP:  cpu time   82.5120: real time   82.9104

 eigenvalue-minimisations  :  1312
 total energy-change (2. order) :-0.1231451E+00  (-0.1352958E-01)
 number of electron      64.9999990 magnetization       3.6290819
 augmentation part        4.3126982 magnetization       2.1945427

 Broyden mixing:
  rms(total) = 0.18931E+00    rms(broyden)= 0.18928E+00
  rms(prec ) = 0.20424E+00
  weight for this iteration     100.00

 eigenvalues of (default mixing * dielectric matrix)
  average eigenvalue GAMMA=   0.8823
  3.9868  2.1902  0.6233  0.6233  0.9127  0.9127  0.7029  0.7029  0.5741  0.1488
  0.0492  0.0278  0.0147

 Free energy of the ion-electron system (eV)
  ---------------------------------------------------
  alpha Z        PSCENC =        41.46198644
  Ewald energy   TEWEN  =      8338.88239735
  -Hartree energ DENC   =    -11912.34796189
  -exchange      EXHF   =         0.00000000
  -V(xc)+E(xc)   XCENC  =        44.52255320
  PAW double counting   =      2466.24766205    -2489.19269866
  entropy T*S    EENTRO =         0.00000000
  eigenvalues    EBANDS =      -519.94717638
  atomic energy  EATOM  =      3996.64816900
  Solvation  Ediel_sol  =         0.00000000
  ---------------------------------------------------
  free energy    TOTEN  =       -33.72506889 eV

  energy without entropy =      -33.72506889  energy(sigma->0) =      -33.72506889


--------------------------------------------------------------------------------------------------------




--------------------------------------- Iteration      1(  19)  ---------------------------------------


    POTLOK:  cpu time   50.6560: real time   50.9604
    SETDIJ:  cpu time    0.0480: real time    0.0469
     EDDAV:  cpu time   28.5240: real time   28.7527
 BZINTS: Fermi energy: -3.826166; 65.000000 electrons
         Band energy:-521.404698;  BLOECHL correction: -0.007208
       DOS:  cpu time    0.0040: real time    0.0066
    CHARGE:  cpu time    2.1200: real time    2.1303
    MIXING:  cpu time    0.0520: real time    0.0510
    --------------------------------------------
      LOOP:  cpu time   81.4040: real time   81.9479

 eigenvalue-minimisations  :  1264
 total energy-change (2. order) :-0.3090003E-02  (-0.5558846E-02)
 number of electron      64.9999990 magnetization       3.3290100
 augmentation part        4.3810479 magnetization       1.8627256

 Broyden mixing:
  rms(total) = 0.13483E+00    rms(broyden)= 0.13482E+00
  rms(prec ) = 0.14358E+00
  weight for this iteration     100.00

 eigenvalues of (default mixing * dielectric matrix)
  average eigenvalue GAMMA=   0.9711
  5.2410  1.8737  1.3148  0.9024  0.9024  0.6227  0.6227  0.6550  0.6550  0.5654
  0.1488  0.0492  0.0278  0.0147

 Free energy of the ion-electron system (eV)
  ---------------------------------------------------
  alpha Z        PSCENC =        41.46198644
  Ewald energy   TEWEN  =      8338.88239735
  -Hartree energ DENC   =    -11910.57450637
  -exchange      EXHF   =         0.00000000
  -V(xc)+E(xc)   XCENC  =        44.47391008
  PAW double counting   =      2462.41547669    -2485.63089363
  entropy T*S    EENTRO =         0.00000000
  eigenvalues    EBANDS =      -521.40469845
  atomic energy  EATOM  =      3996.64816900
  Solvation  Ediel_sol  =         0.00000000
  ---------------------------------------------------
  free energy    TOTEN  =       -33.72815889 eV

  energy without entropy =      -33.72815889  energy(sigma->0) =      -33.72815889


--------------------------------------------------------------------------------------------------------




--------------------------------------- Iteration      1(  20)  ---------------------------------------


    POTLOK:  cpu time   50.8720: real time   50.9214
    SETDIJ:  cpu time    0.0440: real time    0.0455
     EDDAV:  cpu time   25.9800: real time   26.1646
 BZINTS: Fermi energy: -3.842408; 65.000000 electrons
         Band energy:-523.366586;  BLOECHL correction: -0.009115
       DOS:  cpu time    0.0040: real time    0.0066
    CHARGE:  cpu time    2.1280: real time    2.1395
    MIXING:  cpu time    0.0520: real time    0.0524
    --------------------------------------------
      LOOP:  cpu time   79.0800: real time   79.3300

 eigenvalue-minimisations  :  1136
 total energy-change (2. order) :-0.2911412E-03  (-0.5463135E-02)
 number of electron      64.9999990 magnetization       3.2144444
 augmentation part        4.5871545 magnetization       1.6742863

 Broyden mixing:
  rms(total) = 0.55639E-01    rms(broyden)= 0.55569E-01
  rms(prec ) = 0.59419E-01
  weight for this iteration     100.00

 eigenvalues of (default mixing * dielectric matrix)
  average eigenvalue GAMMA=   1.0756
  6.4125  2.2017  1.1487  1.1487  0.6229  0.6229  0.8608  0.8608  0.7954  0.6451
  0.5745  0.1488  0.0492  0.0278  0.0147

 Free energy of the ion-electron system (eV)
  ---------------------------------------------------
  alpha Z        PSCENC =        41.46198644
  Ewald energy   TEWEN  =      8338.88239735
  -Hartree energ DENC   =    -11908.66250589
  -exchange      EXHF   =         0.00000000
  -V(xc)+E(xc)   XCENC  =        44.41414812
  PAW double counting   =      2459.67968922    -2482.78574802
  entropy T*S    EENTRO =         0.00000000
  eigenvalues    EBANDS =      -523.36658624
  atomic energy  EATOM  =      3996.64816900
  Solvation  Ediel_sol  =         0.00000000
  ---------------------------------------------------
  free energy    TOTEN  =       -33.72845003 eV

  energy without entropy =      -33.72845003  energy(sigma->0) =      -33.72845003


--------------------------------------------------------------------------------------------------------




--------------------------------------- Iteration      1(  21)  ---------------------------------------


    POTLOK:  cpu time   50.9040: real time   51.0694
    SETDIJ:  cpu time    0.0440: real time    0.0458
     EDDAV:  cpu time   25.5280: real time   25.6900
 BZINTS: Fermi energy: -3.826636; 65.000000 electrons
         Band energy:-522.163121;  BLOECHL correction: -0.008361
       DOS:  cpu time    0.0040: real time    0.0063
    CHARGE:  cpu time    2.0840: real time    2.1505
    MIXING:  cpu time    0.0520: real time    0.0531
    --------------------------------------------
      LOOP:  cpu time   78.6160: real time   79.0151

 eigenvalue-minimisations  :  1120
 total energy-change (2. order) :-0.1549750E-02  (-0.2649711E-02)
 number of electron      64.9999990 magnetization       3.1165563
 augmentation part        4.5163762 magnetization       1.6315909

 Broyden mixing:
  rms(total) = 0.33613E-01    rms(broyden)= 0.33604E-01
  rms(prec ) = 0.35301E-01
  weight for this iteration     100.00

 eigenvalues of (default mixing * dielectric matrix)
  average eigenvalue GAMMA=   1.1787
  7.5109  2.5497  1.4798  1.4798  0.6230  0.6230  0.8708  0.8708  0.7142  0.7142
  0.5758  0.6066  0.1488  0.0492  0.0278  0.0147

 Free energy of the ion-electron system (eV)
  ---------------------------------------------------
  alpha Z        PSCENC =        41.46198644
  Ewald energy   TEWEN  =      8338.88239735
  -Hartree energ DENC   =    -11910.12799585
  -exchange      EXHF   =         0.00000000
  -V(xc)+E(xc)   XCENC  =        44.44484025
  PAW double counting   =      2462.90975581    -2485.78603132
  entropy T*S    EENTRO =         0.00000000
  eigenvalues    EBANDS =      -522.16312146
  atomic energy  EATOM  =      3996.64816900
  Solvation  Ediel_sol  =         0.00000000
  ---------------------------------------------------
  free energy    TOTEN  =       -33.72999978 eV

  energy without entropy =      -33.72999978  energy(sigma->0) =      -33.72999978


--------------------------------------------------------------------------------------------------------




--------------------------------------- Iteration      1(  22)  ---------------------------------------


    POTLOK:  cpu time   50.7640: real time   50.9826
    SETDIJ:  cpu time    0.0440: real time    0.0460
     EDDAV:  cpu time   27.5160: real time   27.6834
 BZINTS: Fermi energy: -3.809597; 65.000000 electrons
         Band energy:-521.043255;  BLOECHL correction: -0.008054
       DOS:  cpu time    0.0080: real time    0.0066
    CHARGE:  cpu time    2.1320: real time    2.1385
    MIXING:  cpu time    0.0560: real time    0.0550
    --------------------------------------------
      LOOP:  cpu time   80.5200: real time   80.9120

 eigenvalue-minimisations  :  1216
 total energy-change (2. order) :-0.3392478E-02  (-0.6076086E-03)
 number of electron      64.9999990 magnetization       3.0577113
 augmentation part        4.4796362 magnetization       1.5930059

 Broyden mixing:
  rms(total) = 0.51674E-01    rms(broyden)= 0.51670E-01
  rms(prec ) = 0.56159E-01
  weight for this iteration     100.00

 eigenvalues of (default mixing * dielectric matrix)
  average eigenvalue GAMMA=   1.2508
  8.7080  2.6996  1.5705  1.5705  0.6231  0.6231  0.8682  0.8682  0.8131  0.8131
  0.5702  0.6480  0.6480  0.1488  0.0492  0.0278  0.0147

 Free energy of the ion-electron system (eV)
  ---------------------------------------------------
  alpha Z        PSCENC =        41.46198644
  Ewald energy   TEWEN  =      8338.88239735
  -Hartree energ DENC   =    -11911.17290172
  -exchange      EXHF   =         0.00000000
  -V(xc)+E(xc)   XCENC  =        44.45284986
[...]
     34      -2.2868      0.00000
     35      -1.9634      0.00000
     36      -1.2821      0.00000
     37      -1.0813      0.00000
     38       0.2162      0.00000
     39       0.2856      0.00000
     40       0.6960      0.00000
     41       1.0872      0.00000
     42       1.4924      0.00000
     43       1.9280      0.00000
     44       2.2431      0.00000
     45       2.2558      0.00000
     46       2.7995      0.00000
     47       2.9640      0.00000
     48       3.1853      0.00000

 k-point     5 :      -0.4000    0.2000    0.0000
  band No.  band energies     occupation 
      1     -17.4213      1.00000
      2     -16.5682      1.00000
      3     -16.2676      1.00000
      4     -16.0405      1.00000
      5     -15.9418      1.00000
      6     -15.7399      1.00000
      7     -12.5800      1.00000
      8     -10.7628      1.00000
      9      -8.4503      1.00000
     10      -7.9772      1.00000
     11      -7.8030      1.00000
     12      -7.2397      1.00000
     13      -7.1545      1.00000
     14      -6.6336      1.00000
     15      -6.3371      1.00000
     16      -6.1631      1.00000
     17      -6.1317      1.00000
     18      -5.8612      1.00000
     19      -5.8396      1.00000
     20      -5.6238      1.00000
     21      -5.4865      1.00000
     22      -4.9282      1.00000
     23      -4.6733      1.00000
     24      -4.6469      1.00000
     25      -4.4557      1.00000
     26      -4.3329      1.00000
     27      -4.2144      1.00000
     28      -4.0737      1.00000
     29      -4.0240      1.00000
     30      -3.9758      1.00000
     31      -3.9266      1.00000
     32      -2.7340      1.00000
     33      -2.5415      0.00000
     34      -2.3836      0.00000
     35      -1.9052      0.00000
     36      -1.8460      0.00000
     37      -1.1493      0.00000
     38      -0.1942      0.00000
     39       0.1837      0.00000
     40       0.6924      0.00000
     41       0.8980      0.00000
     42       0.9109      0.00000
     43       2.3901      0.00000
     44       2.5307      0.00000
     45       2.6045      0.00000
     46       2.7921      0.00000
     47       2.8567      0.00000
     48       3.4813      0.00000


--------------------------------------------------------------------------------------------------------


 soft charge-density along one line, spin component           1
         0         1         2         3         4         5         6         7         8         9
 total charge-density along one line

 soft charge-density along one line, spin component           2
         0         1         2         3         4         5         6         7         8         9
 total charge-density along one line

 pseudopotential strength for first ion, spin component:           1
-10.732  -0.098   0.000   0.018   0.000   1.456   0.041  -0.000
 -0.098 -10.844   0.000   0.000   0.018   0.041   1.503  -0.000
  0.000   0.000 -10.670   0.000   0.000  -0.000  -0.000   1.430
  0.018   0.000   0.000 -10.844   0.098  -0.008  -0.000  -0.000
  0.000   0.018   0.000   0.098 -10.732  -0.000  -0.008  -0.000
  1.456   0.041  -0.000  -0.008  -0.000   0.711  -0.018   0.000
  0.041   1.503  -0.000  -0.000  -0.008  -0.018   0.692   0.000
 -0.000  -0.000   1.430  -0.000  -0.000   0.000   0.000   0.723
 -0.008  -0.000  -0.000   1.503  -0.041   0.003   0.000   0.000
 -0.000  -0.008  -0.000  -0.041   1.456   0.000   0.003   0.000
  0.000  -0.000   0.004  -0.000   0.000  -0.000  -0.000  -0.001
  0.000   0.000  -0.000   0.000  -0.000   0.000  -0.000   0.000
 -0.001  -0.003   0.000  -0.000   0.001   0.000   0.001  -0.000
 -0.000  -0.000  -0.002  -0.000   0.000  -0.000   0.000   0.000
  0.001  -0.000   0.000  -0.003   0.001   0.000  -0.000  -0.000
  0.000   0.000  -0.000   0.000  -0.001  -0.000  -0.000   0.000
  0.000   0.000  -0.000   0.000  -0.000  -0.000  -0.000   0.000
 -0.001   0.000  -0.000   0.000  -0.000   0.000  -0.000   0.000
 pseudopotential strength for first ion, spin component:           2
-10.479  -0.005   0.000  -0.000   0.000   1.348   0.004  -0.000
 -0.005 -10.488   0.000   0.000  -0.000   0.004   1.353  -0.000
  0.000   0.000 -10.475   0.000   0.000  -0.000  -0.000   1.344
 -0.000   0.000   0.000 -10.488   0.005  -0.000  -0.000  -0.000
  0.000  -0.000   0.000   0.005 -10.479  -0.000  -0.000  -0.000
  1.348   0.004  -0.000  -0.000  -0.000   0.757  -0.003   0.000
  0.004   1.353  -0.000  -0.000  -0.000  -0.003   0.755   0.000
 -0.000  -0.000   1.344  -0.000  -0.000   0.000   0.000   0.760
 -0.000  -0.000  -0.000   1.353  -0.004   0.000   0.000   0.000
 -0.000  -0.000  -0.000  -0.004   1.348   0.000   0.000   0.000
  0.000  -0.000  -0.000  -0.000   0.000  -0.000  -0.000   0.001
  0.000   0.000  -0.000   0.000  -0.000  -0.000  -0.000  -0.000
 -0.000  -0.002   0.000  -0.000   0.000   0.000   0.000  -0.000
 -0.000  -0.000  -0.002  -0.000  -0.000  -0.000   0.000   0.000
  0.000  -0.000   0.000  -0.002   0.000   0.000  -0.000  -0.000
  0.000   0.000  -0.000   0.000  -0.001  -0.000   0.000   0.000
  0.000   0.000  -0.000   0.000   0.000  -0.000  -0.000   0.000
 -0.001   0.000  -0.000   0.000  -0.000   0.000  -0.000   0.000
 total augmentation occupancy for first ion, spin component:           1
  1.815  -0.155   0.000   0.025  -0.000   0.026   0.080  -0.000  -0.015   0.000  -0.000  -0.000  -0.010  -0.000   0.008   0.000
 -0.155   1.672  -0.000  -0.000   0.025   0.079   0.110   0.000  -0.000  -0.015  -0.000  -0.000  -0.017   0.000   0.003   0.002
  0.000  -0.000   1.946  -0.000  -0.000  -0.000   0.000  -0.045   0.000   0.000  -0.008  -0.006  -0.000  -0.000   0.000   0.000
  0.025  -0.000  -0.000   1.672   0.155  -0.015   0.000   0.000   0.110  -0.079   0.000  -0.000  -0.003  -0.000  -0.017   0.000
 -0.000   0.025  -0.000   0.155   1.815  -0.000  -0.015   0.000  -0.080   0.026   0.000   0.000   0.008   0.000   0.010  -0.001
  0.026   0.079  -0.000  -0.015  -0.000   0.079   0.057   0.000  -0.009  -0.000   0.000  -0.000   0.000  -0.000   0.014  -0.000
  0.080   0.110   0.000   0.000  -0.015   0.057   0.140   0.000  -0.000  -0.009   0.000  -0.000  -0.010  -0.000  -0.002   0.001
 -0.000   0.000  -0.045   0.000   0.000   0.000   0.000   0.061   0.000  -0.000   0.026  -0.014  -0.000  -0.008   0.000   0.000
 -0.015  -0.000   0.000   0.110  -0.080  -0.009  -0.000   0.000   0.140  -0.057   0.000  -0.000   0.002  -0.000  -0.010  -0.000
  0.000  -0.015   0.000  -0.079   0.026  -0.000  -0.009  -0.000  -0.057   0.079  -0.000   0.000   0.014   0.000  -0.000  -0.002
 -0.000  -0.000  -0.008  -0.000   0.000   0.000   0.000   0.026   0.000  -0.000   1.012  -0.295  -0.000  -0.027  -0.000   0.000
 -0.000  -0.000  -0.006  -0.000   0.000  -0.000  -0.000  -0.014  -0.000   0.000  -0.295   0.148   0.000   0.010   0.000  -0.000
 -0.010  -0.017  -0.000  -0.003   0.008   0.000  -0.010  -0.000   0.002   0.014  -0.000   0.000   0.188   0.000  -0.000  -0.014
 -0.000   0.000  -0.000  -0.000   0.000  -0.000  -0.000  -0.008  -0.000   0.000  -0.027   0.010   0.000   0.199   0.000  -0.000
  0.008   0.003   0.000  -0.017   0.010   0.014  -0.002   0.000  -0.010  -0.000  -0.000   0.000  -0.000   0.000   0.188   0.000
  0.000   0.002   0.000   0.000  -0.001  -0.000   0.001   0.000  -0.000  -0.002   0.000  -0.000  -0.014  -0.000   0.000   0.002
  0.000   0.000   0.001   0.000  -0.000   0.000   0.000   0.001   0.000  -0.000   0.003  -0.002  -0.000  -0.016  -0.000   0.000
 -0.001  -0.000  -0.000   0.002  -0.000  -0.002   0.000  -0.000   0.001   0.000   0.000  -0.000  -0.000  -0.000  -0.014  -0.000
 total augmentation occupancy for first ion, spin component:           2
  0.031   0.053   0.000  -0.010  -0.000  -0.031  -0.026  -0.000   0.005  -0.000   0.000   0.000   0.003  -0.000  -0.001   0.000
  0.053   0.091   0.000  -0.000  -0.010  -0.026  -0.061  -0.000  -0.000   0.005   0.000   0.000   0.004   0.000   0.001   0.000
  0.000   0.000  -0.000   0.000  -0.000  -0.000  -0.000  -0.016  -0.000   0.000   0.002   0.002   0.000  -0.000   0.000   0.000
 -0.010  -0.000   0.000   0.091  -0.053   0.005   0.000  -0.000  -0.061   0.026   0.000   0.000  -0.001   0.000   0.004  -0.000
 -0.000  -0.010  -0.000  -0.053   0.031   0.000   0.005   0.000   0.026  -0.031  -0.000  -0.000  -0.001   0.000  -0.003   0.000
 -0.031  -0.026  -0.000   0.005   0.000   0.007   0.010   0.000  -0.002  -0.000  -0.000   0.000  -0.001  -0.000   0.000   0.000
 -0.026  -0.061  -0.000   0.000   0.005   0.010   0.019   0.000  -0.000  -0.002   0.000   0.000  -0.001  -0.000  -0.001  -0.000
 -0.000  -0.000  -0.016  -0.000   0.000   0.000   0.000   0.002   0.000  -0.000  -0.001   0.000  -0.000  -0.000  -0.000  -0.000
  0.005  -0.000  -0.000  -0.061   0.026  -0.002  -0.000   0.000   0.019  -0.010   0.000   0.000   0.001   0.000  -0.001   0.000
 -0.000   0.005   0.000   0.026  -0.031  -0.000  -0.002  -0.000  -0.010   0.007   0.000  -0.000   0.000   0.000   0.001   0.000
  0.000   0.000   0.002   0.000  -0.000  -0.000   0.000  -0.001   0.000   0.000   0.003   0.011   0.000   0.000   0.000  -0.000
  0.000   0.000   0.002   0.000  -0.000   0.000  -0.000   0.000   0.000  -0.000   0.011  -0.007   0.000  -0.000   0.000   0.000
  0.003   0.004   0.000  -0.001  -0.001  -0.001  -0.001  -0.000   0.001   0.000   0.000  -0.000   0.000   0.000  -0.000   0.000
 -0.000   0.000  -0.000   0.000   0.000  -0.000  -0.000  -0.000  -0.000   0.000   0.000  -0.000  -0.000   0.000   0.000   0.000
 -0.001   0.001   0.000   0.004  -0.003   0.000  -0.001  -0.000  -0.001   0.001   0.000  -0.000  -0.000   0.000   0.000  -0.000
  0.000   0.000   0.000  -0.000   0.000   0.000  -0.000  -0.000   0.000   0.000  -0.000   0.000   0.000   0.000  -0.000  -0.000
  0.000   0.000   0.000   0.000  -0.000  -0.000  -0.000  -0.000  -0.000   0.000  -0.000   0.000   0.000   0.000   0.000  -0.000
  0.000   0.000   0.000   0.000  -0.000   0.000  -0.000   0.000  -0.000  -0.000  -0.000   0.000   0.000   0.000   0.000   0.000


------------------------ aborting loop because EDIFF is reached ----------------------------------------





 total charge     

# of ion       s       p       d       tot
------------------------------------------
    1        0.393   0.439   8.368   9.201
    2        0.390   0.430   8.363   9.182
    3        1.172   1.092   0.098   2.362
    4        1.049   1.367   0.000   2.416
    5        1.500   2.242   0.048   3.790
    6        1.490   2.245   0.051   3.786
    7        1.496   2.244   0.049   3.789
    8        1.502   2.214   0.045   3.761
    9        1.498   2.278   0.045   3.821
   10        1.500   2.236   0.045   3.781
--------------------------------------------------
tot         11.991  16.787  17.111  45.889



 magnetization (x)

# of ion       s       p       d       tot
------------------------------------------
    1       -0.000  -0.001   0.332   0.331
    2       -0.000  -0.001   0.386   0.385
    3       -0.003   0.002   0.002   0.001
    4       -0.001  -0.002   0.000  -0.004
    5        0.003   0.040   0.001   0.043
    6        0.003   0.030   0.002   0.034
    7        0.003   0.046   0.001   0.051
    8        0.004   0.027   0.001   0.032
    9        0.003   0.042   0.001   0.046
   10        0.005   0.040   0.001   0.046
--------------------------------------------------
tot          0.016   0.222   0.726   0.964

    CHARGE:  cpu time    2.1840: real time    2.1962
    FORLOC:  cpu time    0.0960: real time    0.0942
    FORNL :  cpu time    6.6120: real time    6.6365
    STRESS:  cpu time   19.6240: real time   19.8853
    FORCOR:  cpu time   51.1120: real time   51.4299
    FORHAR:  cpu time    0.3400: real time    0.3390
    MIXING:  cpu time    0.0400: real time    0.0422
    OFIELD:  cpu time    0.0000: real time    0.0000

  FORCE on cell =-STRESS in cart. coord.  units (eV):
  Direction    XX          YY          ZZ          XY          YZ          ZX
  --------------------------------------------------------------------------------------
  Alpha Z    51.26897    51.26897    51.26897
  Ewald   13511.79010 13511.78755-15735.77234    -0.00236    -0.00060    -0.00109
  Hartree 14254.74904 14254.75021-13628.07320    -0.00048     0.00009     0.00014
  E(xc)    -277.64425  -277.64424  -277.63731     0.00002     0.00001     0.00001
  Local  -28511.97346-28511.97338 28579.13952     0.00245     0.00032     0.00061
  n-local   254.95449   256.84959   259.61497     0.80577     0.58631     0.40624
  augment    70.37500    70.37511    66.20942     0.00012     0.00005     0.00005
  Kinetic   651.06575   640.41258   685.26514    -5.79013    -2.12294    -2.86881
  Fock        0.00000     0.00000     0.00000     0.00000     0.00000     0.00000
  -------------------------------------------------------------------------------------
  Total       0.20602     0.20602     0.01515     0.00000     0.00000     0.00000
  in kB       0.42128     0.42128     0.03098     0.00000     0.00000     0.00000
  external pressure =        0.29 kB  Pullay stress =        0.00 kB


 VOLUME and BASIS-vectors are now :
 -----------------------------------------------------------------------------
  energy-cutoff  :      520.00
  volume of cell :      783.51
      direct lattice vectors                 reciprocal lattice vectors
     6.227001019  0.000003266  0.000000000     0.160590997 -0.092717137 -0.000000000
     3.113497329  5.392742447  0.000000000    -0.000000097  0.185434464 -0.000000000
     0.000000000  0.000000000 23.332262805    -0.000000000  0.000000000  0.042859109

  length of vectors
     6.227001019  6.227000619 23.332262805     0.185434452  0.185434464  0.042859109


 FORCES acting on ions
    electron-ion (+dipol)            ewald-force                    non-local-force                 convergence-correction
 -----------------------------------------------------------------------------------------------
   -.233E-04 -.331E-04 -.161E+02   0.833E-03 0.498E-03 0.160E+02   0.133E-17 0.138E-17 0.153E+00   -.119E-06 -.455E-06 -.701E-02
   0.362E-04 0.262E-04 -.187E+02   -.803E-03 -.481E-03 0.186E+02   0.147E-17 0.152E-17 0.169E+00   0.394E-06 -.415E-06 -.667E-02
   -.530E-04 0.137E-04 0.296E+03   -.190E-03 -.107E-03 -.296E+03   -.791E-17 -.101E-17 -.112E+00   -.248E-07 -.249E-07 0.268E-02
   0.366E-04 0.307E-04 -.271E+03   0.218E-03 0.121E-03 0.267E+03   0.106E-15 0.657E-16 0.422E+01   -.455E-07 -.389E-07 -.172E-02
   -.171E+02 0.165E+01 -.539E+03   0.155E+02 -.165E+01 0.541E+03   0.169E+01 -.185E-01 -.209E+01   0.862E-02 -.185E-01 -.425E-03
   0.999E+01 0.140E+02 -.539E+03   -.916E+01 -.126E+02 0.541E+03   -.860E+00 -.145E+01 -.209E+01   -.204E-01 0.180E-02 -.425E-03
   0.712E+01 -.156E+02 -.539E+03   -.630E+01 0.142E+02 0.541E+03   -.828E+00 0.147E+01 -.209E+01   0.117E-01 0.167E-01 -.425E-03
   0.313E+02 0.965E+00 0.541E+03   -.297E+02 -.972E+00 -.543E+03   -.155E+01 0.401E-02 0.173E+01   -.423E-02 -.203E-01 -.272E-02
   -.148E+02 -.276E+02 0.541E+03   0.140E+02 0.262E+02 -.543E+03   0.780E+00 0.134E+01 0.173E+01   -.155E-01 0.138E-01 -.272E-02
   -.165E+02 0.266E+02 0.541E+03   0.157E+02 -.252E+02 -.543E+03   0.773E+00 -.135E+01 0.173E+01   0.197E-01 0.649E-02 -.272E-02
 -----------------------------------------------------------------------------------------------
   0.829E-04 0.566E-04 -.332E+01   -.284E-13 -.107E-13 0.114E-12   -.222E-15 -.222E-15 0.335E+01   0.170E-06 -.952E-06 -.221E-01


 POSITION                                       TOTAL-FORCE (eV/Angst)
 -----------------------------------------------------------------------------------
      3.11350      1.79758     11.83246         0.000000      0.000000      0.031026
      6.22700      3.59517     11.83332         0.000000      0.000000      0.049612
      0.00000      0.00000     10.45789        -0.000000     -0.000000     -0.043313
      0.00000      0.00000     12.86237        -0.000000     -0.000000     -0.073452
      3.99905      0.00986     13.36816         0.047125     -0.035131      0.011066
      1.12251      1.92454     13.36816        -0.053987     -0.023245      0.011066
      4.21894      3.45836     13.36816         0.006862      0.058377      0.011066
      2.43473      0.00325     10.30168         0.033434     -0.023783      0.000977
      1.89895      3.28257     10.30168        -0.037314     -0.017064      0.000977
      5.00681      2.10691     10.30168         0.003879      0.040846      0.000977
 -----------------------------------------------------------------------------------
    total drift:                                0.000083      0.000056      0.009656


--------------------------------------------------------------------------------------------------------



  FREE ENERGIE OF THE ION-ELECTRON SYSTEM (eV)
  ---------------------------------------------------
  free  energy   TOTEN  =       -37.32602149 eV

  energy  without entropy=      -37.32602149  energy(sigma->0) =      -37.32602149

 d Force =-0.3437166E-03[-0.405E-03,-0.283E-03]  d Energy = 0.4346394E-03-0.778E-03
 d Force = 0.2383818E+01[ 0.238E+01, 0.239E+01]  d Ewald  = 0.8431740E+01-0.605E+01


--------------------------------------------------------------------------------------------------------


    POTLOK:  cpu time   51.3720: real time   51.6220


--------------------------------------------------------------------------------------------------------




--------------------------------------------------------------------------------------------------------


  
 reached required accuracy - stopping structural energy minimisation
     LOOP+:  cpu time  600.5600: real time  604.1551
    4ORBIT:  cpu time    0.0000: real time    0.0000



 total charge     

# of ion       s       p       d       tot
------------------------------------------
    1        0.393   0.439   8.368   9.201
    2        0.390   0.430   8.363   9.182
    3        1.172   1.092   0.098   2.362
    4        1.049   1.367   0.000   2.416
    5        1.500   2.242   0.048   3.790
    6        1.490   2.245   0.051   3.786
    7        1.496   2.244   0.049   3.789
    8        1.502   2.214   0.045   3.761
    9        1.498   2.278   0.045   3.821
   10        1.500   2.236   0.045   3.781
--------------------------------------------------
tot         11.991  16.787  17.111  45.889



 magnetization (x)

# of ion       s       p       d       tot
------------------------------------------
    1       -0.000  -0.001   0.332   0.331
    2       -0.000  -0.001   0.386   0.385
    3       -0.003   0.002   0.002   0.001
    4       -0.001  -0.002   0.000  -0.004
    5        0.003   0.040   0.001   0.043
    6        0.003   0.030   0.002   0.034
    7        0.003   0.046   0.001   0.051
    8        0.004   0.027   0.001   0.032
    9        0.003   0.042   0.001   0.046
   10        0.005   0.040   0.001   0.046
--------------------------------------------------
tot          0.016   0.222   0.726   0.964

 BZINTS: Fermi energy: -2.624994; 65.000000 electrons
         Band energy:-515.176768;  BLOECHL correction: -0.012244

 total amount of memory used by VASP MPI-rank0   132299. kBytes
=======================================================================

   base      :      30000. kBytes
   nonlr-proj:       9799. kBytes
   fftplans  :      11247. kBytes
   grid      :      68332. kBytes
   one-center:        311. kBytes
   wavefun   :      12610. kBytes

  
  
 General timing and accounting informations for this job:
 ========================================================
  
                  Total CPU time used (sec):    41045.645
                            User time (sec):    40175.852
                          System time (sec):      869.792
                         Elapsed time (sec):    41281.155
  
                   Maximum memory used (kb):      401444.
                   Average memory used (kb):           0.
  
                          Minor page faults:     39436114
                          Major page faults:            8
                 Voluntary context switches:         1280
