  10  10   1   0
  0.9688350E+02  0.6907777E-09  0.6907777E-09  0.2344459E-08  0.5000000E-15
   1.0000000000000000E-004
  CAR 
 unknown system                          
      4.97496705    -20.24029420  301     -2.31644600      1.00000000
    -20.240  0.0000E+00  0.0000E+00  0.0000E+00  0.0000E+00
    -20.156  0.0000E+00  0.0000E+00  0.0000E+00  0.0000E+00
    -20.072  0.0000E+00  0.0000E+00  0.0000E+00  0.0000E+00
    -19.988  0.0000E+00  0.0000E+00  0.0000E+00  0.0000E+00
    -19.904  0.0000E+00  0.0000E+00  0.0000E+00  0.0000E+00
    -19.820  0.0000E+00  0.0000E+00  0.0000E+00  0.0000E+00
    -19.736  0.0000E+00  0.0000E+00  0.0000E+00  0.0000E+00
    -19.652  0.0000E+00  0.0000E+00  0.0000E+00  0.0000E+00
    -19.568  0.0000E+00  0.0000E+00  0.0000E+00  0.0000E+00
    -19.484  0.0000E+00  0.0000E+00  0.0000E+00  0.0000E+00
    -19.400  0.0000E+00  0.0000E+00  0.0000E+00  0.0000E+00
    -19.316  0.0000E+00  0.0000E+00  0.0000E+00  0.0000E+00
    -19.232  0.0000E+00  0.0000E+00  0.0000E+00  0.0000E+00
    -19.148  0.0000E+00  0.0000E+00  0.0000E+00  0.0000E+00
    -19.064  0.8829E-02  0.8829E-02  0.1349E-03  0.1349E-03
    -18.980  0.1910E-01  0.1910E-01  0.1633E-02  0.1633E-02
    -18.895  0.2505E-01  0.2505E-01  0.3488E-02  0.3488E-02
    -18.811  0.8091E-01  0.8091E-01  0.7165E-02  0.7165E-02
    -18.727  0.0000E+00  0.0000E+00  0.1010E-01  0.1010E-01
    -18.643  0.0000E+00  0.0000E+00  0.1010E-01  0.1010E-01
    -18.559  0.0000E+00  0.0000E+00  0.1010E-01  0.1010E-01
    -18.475  0.0000E+00  0.0000E+00  0.1010E-01  0.1010E-01
    -18.391  0.0000E+00  0.0000E+00  0.1010E-01  0.1010E-01
    -18.307  0.0000E+00  0.0000E+00  0.1010E-01  0.1010E-01
    -18.223  0.0000E+00  0.0000E+00  0.1010E-01  0.1010E-01
    -18.139  0.0000E+00  0.0000E+00  0.1010E-01  0.1010E-01
    -18.055  0.0000E+00  0.0000E+00  0.1010E-01  0.1010E-01
    -17.971  0.0000E+00  0.0000E+00  0.1010E-01  0.1010E-01
    -17.887  0.0000E+00  0.0000E+00  0.1010E-01  0.1010E-01
    -17.803  0.0000E+00  0.0000E+00  0.1010E-01  0.1010E-01
    -17.719  0.7788E-02  0.7788E-02  0.1019E-01  0.1019E-01
    -17.635  0.2133E-01  0.2133E-01  0.1179E-01  0.1179E-01
    -17.551  0.2857E-01  0.2857E-01  0.1389E-01  0.1389E-01
    -17.467  0.6284E-01  0.6284E-01  0.1865E-01  0.1865E-01
    -17.383  0.0000E+00  0.0000E+00  0.2020E-01  0.2020E-01
    -17.299  0.0000E+00  0.0000E+00  0.2020E-01  0.2020E-01
    -17.214  0.0000E+00  0.0000E+00  0.2020E-01  0.2020E-01
    -17.130  0.0000E+00  0.0000E+00  0.2020E-01  0.2020E-01
    -17.046  0.0000E+00  0.0000E+00  0.2020E-01  0.2020E-01
    -16.962  0.0000E+00  0.0000E+00  0.2020E-01  0.2020E-01
    -16.878  0.0000E+00  0.0000E+00  0.2020E-01  0.2020E-01
    -16.794  0.0000E+00  0.0000E+00  0.2020E-01  0.2020E-01
    -16.710  0.0000E+00  0.0000E+00  0.2020E-01  0.2020E-01
    -16.626  0.0000E+00  0.0000E+00  0.2020E-01  0.2020E-01
    -16.542  0.3487E-01  0.3487E-01  0.2364E-01  0.2364E-01
    -16.458  0.1759E-01  0.1759E-01  0.2584E-01  0.2584E-01
    -16.374  0.1021E-01  0.1021E-01  0.2684E-01  0.2684E-01
    -16.290  0.9537E-02  0.9537E-02  0.2767E-01  0.2767E-01
    -16.206  0.2835E-01  0.2835E-01  0.2985E-01  0.2985E-01
    -16.122  0.3148E-01  0.3148E-01  0.3239E-01  0.3239E-01
    -16.038  0.3896E-01  0.3896E-01  0.3533E-01  0.3533E-01
    -15.954  0.2321E-01  0.2321E-01  0.3807E-01  0.3807E-01
    -15.870  0.5473E-01  0.5473E-01  0.4544E-01  0.4544E-01
    -15.786  0.1350E+00  0.1350E+00  0.5036E-01  0.5036E-01
    -15.702  0.6155E-01  0.6155E-01  0.5702E-01  0.5702E-01
    -15.617  0.1278E-01  0.1278E-01  0.6050E-01  0.6050E-01
    -15.533  0.0000E+00  0.0000E+00  0.6061E-01  0.6061E-01
    -15.449  0.0000E+00  0.0000E+00  0.6061E-01  0.6061E-01
    -15.365  0.0000E+00  0.0000E+00  0.6061E-01  0.6061E-01
    -15.281  0.0000E+00  0.0000E+00  0.6061E-01  0.6061E-01
    -15.197  0.0000E+00  0.0000E+00  0.6061E-01  0.6061E-01
    -15.113  0.0000E+00  0.0000E+00  0.6061E-01  0.6061E-01
    -15.029  0.0000E+00  0.0000E+00  0.6061E-01  0.6061E-01
    -14.945  0.0000E+00  0.0000E+00  0.6061E-01  0.6061E-01
    -14.861  0.0000E+00  0.0000E+00  0.6061E-01  0.6061E-01
    -14.777  0.0000E+00  0.0000E+00  0.6061E-01  0.6061E-01
    -14.693  0.0000E+00  0.0000E+00  0.6061E-01  0.6061E-01
    -14.609  0.0000E+00  0.0000E+00  0.6061E-01  0.6061E-01
    -14.525  0.0000E+00  0.0000E+00  0.6061E-01  0.6061E-01
    -14.441  0.0000E+00  0.0000E+00  0.6061E-01  0.6061E-01
    -14.357  0.0000E+00  0.0000E+00  0.6061E-01  0.6061E-01
    -14.273  0.0000E+00  0.0000E+00  0.6061E-01  0.6061E-01
    -14.189  0.0000E+00  0.0000E+00  0.6061E-01  0.6061E-01
    -14.105  0.0000E+00  0.0000E+00  0.6061E-01  0.6061E-01
    -14.021  0.0000E+00  0.0000E+00  0.6061E-01  0.6061E-01
    -13.936  0.0000E+00  0.0000E+00  0.6061E-01  0.6061E-01
    -13.852  0.0000E+00  0.0000E+00  0.6061E-01  0.6061E-01
    -13.768  0.0000E+00  0.0000E+00  0.6061E-01  0.6061E-01
    -13.684  0.0000E+00  0.0000E+00  0.6061E-01  0.6061E-01
    -13.600  0.0000E+00  0.0000E+00  0.6061E-01  0.6061E-01
    -13.516  0.0000E+00  0.0000E+00  0.6061E-01  0.6061E-01
    -13.432  0.0000E+00  0.0000E+00  0.6061E-01  0.6061E-01
    -13.348  0.6232E-03  0.6232E-03  0.6061E-01  0.6061E-01
    -13.264  0.2580E-02  0.2580E-02  0.6075E-01  0.6075E-01
    -13.180  0.4536E-02  0.4536E-02  0.6105E-01  0.6105E-01
    -13.096  0.6493E-02  0.6493E-02  0.6151E-01  0.6151E-01
    -13.012  0.6566E-02  0.6566E-02  0.6207E-01  0.6207E-01
    -12.928  0.7559E-02  0.7559E-02  0.6267E-01  0.6267E-01
    -12.844  0.8552E-02  0.8552E-02  0.6334E-01  0.6334E-01
    -12.760  0.9545E-02  0.9545E-02  0.6410E-01  0.6410E-01
    -12.676  0.1054E-01  0.1054E-01  0.6495E-01  0.6495E-01
    -12.592  0.3162E-01  0.3162E-01  0.6636E-01  0.6636E-01
    -12.508  0.2194E-01  0.2194E-01  0.6861E-01  0.6861E-01
    -12.424  0.1226E-01  0.1226E-01  0.7004E-01  0.7004E-01
    -12.340  0.0000E+00  0.0000E+00  0.7071E-01  0.7071E-01
    -12.255  0.0000E+00  0.0000E+00  0.7071E-01  0.7071E-01
    -12.171  0.0000E+00  0.0000E+00  0.7071E-01  0.7071E-01
    -12.087  0.0000E+00  0.0000E+00  0.7071E-01  0.7071E-01
    -12.003  0.0000E+00  0.0000E+00  0.7071E-01  0.7071E-01
    -11.919  0.0000E+00  0.0000E+00  0.7071E-01  0.7071E-01
    -11.835  0.0000E+00  0.0000E+00  0.7071E-01  0.7071E-01
    -11.751  0.0000E+00  0.0000E+00  0.7071E-01  0.7071E-01
    -11.667  0.0000E+00  0.0000E+00  0.7071E-01  0.7071E-01
    -11.583  0.0000E+00  0.0000E+00  0.7071E-01  0.7071E-01
    -11.499  0.0000E+00  0.0000E+00  0.7071E-01  0.7071E-01
    -11.415  0.0000E+00  0.0000E+00  0.7071E-01  0.7071E-01
    -11.331  0.3514E-01  0.3514E-01  0.7166E-01  0.7166E-01
    -11.247  0.2738E-01  0.2738E-01  0.7366E-01  0.7366E-01
    -11.163  0.5466E-01  0.5466E-01  0.7688E-01  0.7688E-01
    -11.079  0.2397E-01  0.2397E-01  0.8019E-01  0.8019E-01
    -10.995  0.0000E+00  0.0000E+00  0.8081E-01  0.8081E-01
    -10.911  0.0000E+00  0.0000E+00  0.8081E-01  0.8081E-01
    -10.827  0.0000E+00  0.0000E+00  0.8081E-01  0.8081E-01
    -10.743  0.0000E+00  0.0000E+00  0.8081E-01  0.8081E-01
    -10.658  0.0000E+00  0.0000E+00  0.8081E-01  0.8081E-01
    -10.574  0.0000E+00  0.0000E+00  0.8081E-01  0.8081E-01
    -10.490  0.0000E+00  0.0000E+00  0.8081E-01  0.8081E-01
    -10.406  0.0000E+00  0.0000E+00  0.8081E-01  0.8081E-01
    -10.322  0.0000E+00  0.0000E+00  0.8081E-01  0.8081E-01
    -10.238  0.0000E+00  0.0000E+00  0.8081E-01  0.8081E-01
    -10.154  0.0000E+00  0.0000E+00  0.8081E-01  0.8081E-01
    -10.070  0.0000E+00  0.0000E+00  0.8081E-01  0.8081E-01
     -9.986  0.0000E+00  0.0000E+00  0.8081E-01  0.8081E-01
     -9.902  0.0000E+00  0.0000E+00  0.8081E-01  0.8081E-01
     -9.818  0.0000E+00  0.0000E+00  0.8081E-01  0.8081E-01
     -9.734  0.0000E+00  0.0000E+00  0.8081E-01  0.8081E-01
     -9.650  0.0000E+00  0.0000E+00  0.8081E-01  0.8081E-01
     -9.566  0.0000E+00  0.0000E+00  0.8081E-01  0.8081E-01
     -9.482  0.0000E+00  0.0000E+00  0.8081E-01  0.8081E-01
     -9.398  0.0000E+00  0.0000E+00  0.8081E-01  0.8081E-01
     -9.314  0.1439E-01  0.1439E-01  0.8134E-01  0.8134E-01
     -9.230  0.4225E-01  0.4225E-01  0.8345E-01  0.8345E-01
     -9.146  0.5654E-01  0.5654E-01  0.8853E-01  0.8853E-01
     -9.062  0.5922E-03  0.5917E-03  0.9091E-01  0.9091E-01
     -8.977  0.3896E-01  0.3896E-01  0.9257E-01  0.9257E-01
     -8.893  0.3414E-01  0.3414E-01  0.9798E-01  0.9798E-01
     -8.809  0.5283E-01  0.5283E-01  0.1009E+00  0.1009E+00
     -8.725  0.2687E-01  0.2687E-01  0.1042E+00  0.1042E+00
     -8.641  0.0000E+00  0.0000E+00  0.1111E+00  0.1111E+00
     -8.557  0.1251E-01  0.1251E-01  0.1131E+00  0.1131E+00
     -8.473  0.1373E-01  0.1373E-01  0.1142E+00  0.1142E+00
     -8.389  0.2041E-01  0.2041E-01  0.1154E+00  0.1154E+00
     -8.305  0.4274E-01  0.4274E-01  0.1181E+00  0.1181E+00
     -8.221  0.3367E-01  0.3367E-01  0.1217E+00  0.1217E+00
     -8.137  0.5128E-02  0.5128E-02  0.1228E+00  0.1228E+00
     -8.053  0.5640E-02  0.5640E-02  0.1233E+00  0.1233E+00
     -7.969  0.6152E-02  0.6152E-02  0.1238E+00  0.1238E+00
     -7.885  0.6664E-02  0.6664E-02  0.1243E+00  0.1243E+00
     -7.801  0.2611E-01  0.2611E-01  0.1262E+00  0.1262E+00
     -7.717  0.3199E-01  0.3199E-01  0.1286E+00  0.1286E+00
     -7.633  0.1753E-01  0.1753E-01  0.1309E+00  0.1309E+00
     -7.549  0.3423E-03  0.3423E-03  0.1313E+00  0.1313E+00
     -7.465  0.7891E-03  0.7890E-03  0.1314E+00  0.1314E+00
     -7.381  0.1236E-02  0.1236E-02  0.1315E+00  0.1315E+00
     -7.296  0.1683E-02  0.1683E-02  0.1316E+00  0.1316E+00
     -7.212  0.2129E-02  0.2129E-02  0.1317E+00  0.1317E+00
     -7.128  0.2576E-02  0.2576E-02  0.1319E+00  0.1319E+00
     -7.044  0.3023E-02  0.3023E-02  0.1322E+00  0.1322E+00
     -6.960  0.3438E-01  0.3438E-01  0.1342E+00  0.1342E+00
     -6.876  0.3835E-01  0.3835E-01  0.1384E+00  0.1384E+00
     -6.792  0.1798E-01  0.1798E-01  0.1407E+00  0.1407E+00
     -6.708  0.0000E+00  0.0000E+00  0.1414E+00  0.1414E+00
     -6.624  0.0000E+00  0.0000E+00  0.1414E+00  0.1414E+00
     -6.540  0.0000E+00  0.0000E+00  0.1414E+00  0.1414E+00
     -6.456  0.6747E-01  0.6747E-01  0.1430E+00  0.1430E+00
     -6.372  0.1339E+00  0.1339E+00  0.1524E+00  0.1524E+00
     -6.288  0.3571E-01  0.3571E-01  0.1577E+00  0.1577E+00
     -6.204  0.1276E-01  0.1276E-01  0.1603E+00  0.1603E+00
     -6.120  0.1284E+00  0.1284E+00  0.1699E+00  0.1699E+00
     -6.036  0.2222E-01  0.2222E-01  0.1761E+00  0.1761E+00
     -5.952  0.4188E-01  0.4188E-01  0.1804E+00  0.1804E+00
     -5.868  0.3951E-01  0.3951E-01  0.1838E+00  0.1838E+00
     -5.784  0.4772E-01  0.4772E-01  0.1876E+00  0.1876E+00
     -5.699  0.6675E-01  0.6675E-01  0.1935E+00  0.1935E+00
     -5.615  0.4013E-01  0.4013E-01  0.1976E+00  0.1976E+00
     -5.531  0.3636E-01  0.3636E-01  0.2014E+00  0.2014E+00
     -5.447  0.4667E-01  0.4667E-01  0.2049E+00  0.2049E+00
     -5.363  0.7593E-01  0.7592E-01  0.2094E+00  0.2094E+00
     -5.279  0.3714E-01  0.3714E-01  0.2132E+00  0.2132E+00
     -5.195  0.4203E-01  0.4203E-01  0.2169E+00  0.2169E+00
     -5.111  0.3507E-01  0.3507E-01  0.2202E+00  0.2202E+00
     -5.027  0.6776E-01  0.6776E-01  0.2237E+00  0.2237E+00
     -4.943  0.2305E-01  0.2305E-01  0.2279E+00  0.2279E+00
     -4.859  0.4027E-01  0.4027E-01  0.2305E+00  0.2305E+00
     -4.775  0.3971E-01  0.3971E-01  0.2336E+00  0.2336E+00
     -4.691  0.6688E-01  0.6688E-01  0.2381E+00  0.2381E+00
     -4.607  0.1092E+00  0.1092E+00  0.2496E+00  0.2496E+00
     -4.523  0.5650E-02  0.5650E-02  0.2519E+00  0.2519E+00
     -4.439  0.3631E-02  0.3631E-02  0.2523E+00  0.2523E+00
     -4.355  0.1612E-02  0.1612E-02  0.2525E+00  0.2525E+00
     -4.271  0.0000E+00  0.0000E+00  0.2525E+00  0.2525E+00
     -4.187  0.2807E+00  0.2807E+00  0.2539E+00  0.2539E+00
     -4.103  0.2139E-01  0.2139E-01  0.2596E+00  0.2596E+00
     -4.018  0.9677E-01  0.9678E-01  0.2620E+00  0.2620E+00
     -3.934  0.5247E-01  0.5247E-01  0.2780E+00  0.2780E+00
     -3.850  0.3099E-01  0.3099E-01  0.2813E+00  0.2813E+00
     -3.766  0.5347E-02  0.5346E-02  0.2828E+00  0.2828E+00
     -3.682  0.1247E+00  0.1247E+00  0.2849E+00  0.2849E+00
     -3.598  0.6613E-01  0.6613E-01  0.2953E+00  0.2953E+00
     -3.514  0.1069E+00  0.1068E+00  0.3030E+00  0.3030E+00
     -3.430  0.0000E+00  0.0000E+00  0.3131E+00  0.3131E+00
     -3.346  0.0000E+00  0.0000E+00  0.3131E+00  0.3131E+00
     -3.262  0.0000E+00  0.0000E+00  0.3131E+00  0.3131E+00
     -3.178  0.0000E+00  0.0000E+00  0.3131E+00  0.3131E+00
     -3.094  0.0000E+00  0.0000E+00  0.3131E+00  0.3131E+00
     -3.010  0.0000E+00  0.0000E+00  0.3131E+00  0.3131E+00
     -2.926  0.1047E-01  0.1047E-01  0.3133E+00  0.3133E+00
     -2.842  0.4329E-01  0.4329E-01  0.3155E+00  0.3155E+00
     -2.758  0.1865E-01  0.1865E-01  0.3202E+00  0.3202E+00
     -2.674  0.3012E-01  0.3012E-01  0.3223E+00  0.3223E+00
     -2.590  0.4193E-01  0.4193E-01  0.3252E+00  0.3252E+00
     -2.506  0.4168E-01  0.4168E-01  0.3301E+00  0.3301E+00
     -2.422  0.1900E-01  0.1900E-01  0.3327E+00  0.3327E+00
     -2.337  0.0000E+00  0.0000E+00  0.3333E+00  0.3333E+00
     -2.253  0.3517E-01  0.3517E-01  0.3354E+00  0.3354E+00
     -2.169  0.5512E-01  0.5512E-01  0.3407E+00  0.3407E+00
     -2.085  0.1743E-02  0.1743E-02  0.3434E+00  0.3434E+00
     -2.001  0.4317E-01  0.4317E-01  0.3500E+00  0.3500E+00
     -1.917  0.2088E-01  0.2088E-01  0.3527E+00  0.3527E+00
     -1.833  0.0000E+00  0.0000E+00  0.3535E+00  0.3535E+00
     -1.749  0.0000E+00  0.0000E+00  0.3535E+00  0.3535E+00
     -1.665  0.0000E+00  0.0000E+00  0.3535E+00  0.3535E+00
     -1.581  0.0000E+00  0.0000E+00  0.3535E+00  0.3535E+00
     -1.497  0.0000E+00  0.0000E+00  0.3535E+00  0.3535E+00
     -1.413  0.0000E+00  0.0000E+00  0.3535E+00  0.3535E+00
     -1.329  0.0000E+00  0.0000E+00  0.3535E+00  0.3535E+00
     -1.245  0.0000E+00  0.0000E+00  0.3535E+00  0.3535E+00
     -1.161  0.0000E+00  0.0000E+00  0.3535E+00  0.3535E+00
     -1.077  0.0000E+00  0.0000E+00  0.3535E+00  0.3535E+00
     -0.993  0.0000E+00  0.0000E+00  0.3535E+00  0.3535E+00
     -0.909  0.0000E+00  0.0000E+00  0.3535E+00  0.3535E+00
     -0.825  0.0000E+00  0.0000E+00  0.3535E+00  0.3535E+00
     -0.740  0.0000E+00  0.0000E+00  0.3535E+00  0.3535E+00
     -0.656  0.0000E+00  0.0000E+00  0.3535E+00  0.3535E+00
     -0.572  0.6977E-02  0.6977E-02  0.3542E+00  0.3542E+00
     -0.488  0.8610E-02  0.8610E-02  0.3549E+00  0.3549E+00
     -0.404  0.1176E-01  0.1176E-01  0.3557E+00  0.3557E+00
     -0.320  0.1492E-01  0.1492E-01  0.3568E+00  0.3568E+00
     -0.236  0.1808E-01  0.1808E-01  0.3582E+00  0.3582E+00
     -0.152  0.1112E+00  0.1112E+00  0.3640E+00  0.3640E+00
     -0.068  0.3127E-01  0.3127E-01  0.3685E+00  0.3685E+00
      0.016  0.1349E-01  0.1349E-01  0.3702E+00  0.3702E+00
      0.100  0.1474E-01  0.1474E-01  0.3714E+00  0.3714E+00
      0.184  0.1599E-01  0.1599E-01  0.3727E+00  0.3727E+00
      0.268  0.0000E+00  0.0000E+00  0.3737E+00  0.3737E+00
      0.352  0.0000E+00  0.0000E+00  0.3737E+00  0.3737E+00
      0.436  0.7263E-02  0.7262E-02  0.3743E+00  0.3743E+00
      0.520  0.1250E-01  0.1250E-01  0.3751E+00  0.3751E+00
      0.604  0.1773E-01  0.1773E-01  0.3764E+00  0.3764E+00
      0.688  0.2297E-01  0.2297E-01  0.3781E+00  0.3781E+00
      0.772  0.3783E-01  0.3783E-01  0.3802E+00  0.3802E+00
      0.856  0.1229E+00  0.1229E+00  0.3884E+00  0.3884E+00
      0.941  0.5384E-01  0.5384E-01  0.3932E+00  0.3932E+00
      1.025  0.4430E-01  0.4430E-01  0.3968E+00  0.3968E+00
      1.109  0.5889E-01  0.5889E-01  0.4014E+00  0.4014E+00
      1.193  0.9085E-02  0.9085E-02  0.4048E+00  0.4048E+00
      1.277  0.1723E-01  0.1723E-01  0.4059E+00  0.4059E+00
      1.361  0.1214E-01  0.1214E-01  0.4075E+00  0.4075E+00
      1.445  0.1114E-01  0.1114E-01  0.4085E+00  0.4085E+00
      1.529  0.1013E-01  0.1013E-01  0.4094E+00  0.4094E+00
      1.613  0.9123E-02  0.9122E-02  0.4102E+00  0.4102E+00
      1.697  0.2482E-01  0.2482E-01  0.4114E+00  0.4114E+00
      1.781  0.2161E-01  0.2160E-01  0.4134E+00  0.4134E+00
      1.865  0.3053E-01  0.3052E-01  0.4155E+00  0.4155E+00
      1.949  0.1353E-01  0.1353E-01  0.4177E+00  0.4177E+00
      2.033  0.1659E-01  0.1659E-01  0.4190E+00  0.4190E+00
      2.117  0.2599E-01  0.2598E-01  0.4207E+00  0.4207E+00
      2.201  0.3959E-01  0.3960E-01  0.4234E+00  0.4234E+00
      2.285  0.4233E-01  0.4227E-01  0.4271E+00  0.4271E+00
      2.369  0.3570E-01  0.3570E-01  0.4301E+00  0.4301E+00
      2.453  0.5012E-01  0.5011E-01  0.4334E+00  0.4334E+00
      2.537  0.4532E-01  0.4531E-01  0.4374E+00  0.4374E+00
      2.622  0.3850E-01  0.3850E-01  0.4411E+00  0.4411E+00
      2.706  0.3410E-01  0.3405E-01  0.4441E+00  0.4441E+00
      2.790  0.2844E-01  0.2839E-01  0.4473E+00  0.4473E+00
      2.874  0.3166E-01  0.3162E-01  0.4498E+00  0.4498E+00
      2.958  0.3145E-01  0.3145E-01  0.4527E+00  0.4527E+00
      3.042  0.2140E-01  0.2141E-01  0.4553E+00  0.4553E+00
      3.126  0.1907E-01  0.1908E-01  0.4570E+00  0.4570E+00
      3.210  0.1287E-01  0.1289E-01  0.4588E+00  0.4588E+00
      3.294  0.0000E+00  0.0000E+00  0.4646E+00  0.4646E+00
      3.378  0.0000E+00  0.0000E+00  0.4646E+00  0.4646E+00
      3.462  0.7650E-01  0.7703E-01  0.4706E+00  0.4706E+00
      3.546  0.2958E-01  0.2961E-01  0.4745E+00  0.4745E+00
      3.630  0.4856E-03  0.5736E-03  0.4747E+00  0.4747E+00
      3.714  0.1114E+00  0.1198E+00  0.4778E+00  0.4779E+00
      3.798  0.3137E-01  0.3506E-01  0.4839E+00  0.4846E+00
      3.882  0.0000E+00  0.0000E+00  0.4848E+00  0.4848E+00
      3.966  0.0000E+00  0.0000E+00  0.4848E+00  0.4848E+00
      4.050  0.0000E+00  0.0000E+00  0.4848E+00  0.4848E+00
      4.134  0.0000E+00  0.0000E+00  0.4848E+00  0.4848E+00
      4.219  0.0000E+00  0.0000E+00  0.4848E+00  0.4848E+00
      4.303  0.0000E+00  0.0000E+00  0.4848E+00  0.4848E+00
      4.387  0.0000E+00  0.0000E+00  0.4848E+00  0.4848E+00
      4.471  0.0000E+00  0.0000E+00  0.4848E+00  0.4848E+00
      4.555  0.0000E+00  0.0000E+00  0.4848E+00  0.4848E+00
      4.639  0.0000E+00  0.0000E+00  0.4848E+00  0.4848E+00
      4.723  0.0000E+00  0.0000E+00  0.4848E+00  0.4848E+00
      4.807  0.0000E+00  0.0000E+00  0.4848E+00  0.4848E+00
      4.891  0.0000E+00  0.0000E+00  0.4848E+00  0.4848E+00
      4.975  0.0000E+00  0.0000E+00  0.4848E+00  0.4848E+00
      4.97496705    -20.24029420  301     -2.31644600      1.00000000
    -20.240  0.0000E+00  0.0000E+00  0.0000E+00  0.0000E+00  0.0000E+00  0.0000E+00  0.0000E+00  0.0000E+00  0.0000E+00  0.0000E+00  0.0000E+00  0.0000E+00  0.0000E+00  0.0000E+00  0.0000E+00  0.0000E+00  0.0000E+00  0.0000E+00
    -20.156  0.0000E+00  0.0000E+00  0.0000E+00  0.0000E+00  0.0000E+00  0.0000E+00  0.0000E+00  0.0000E+00  0.0000E+00  0.0000E+00  0.0000E+00  0.0000E+00  0.0000E+00  0.0000E+00  0.0000E+00  0.0000E+00  0.0000E+00  0.0000E+00
    -20.072  0.0000E+00  0.0000E+00  0.0000E+00  0.0000E+00  0.0000E+00  0.0000E+00  0.0000E+00  0.0000E+00  0.0000E+00  0.0000E+00  0.0000E+00  0.0000E+00  0.0000E+00  0.0000E+00  0.0000E+00  0.0000E+00  0.0000E+00  0.0000E+00
    -19.988  0.0000E+00  0.0000E+00  0.0000E+00  0.0000E+00  0.0000E+00  0.0000E+00  0.0000E+00  0.0000E+00  0.0000E+00  0.0000E+00  0.0000E+00  0.0000E+00  0.0000E+00  0.0000E+00  0.0000E+00  0.0000E+00  0.0000E+00  0.0000E+00
    -19.904  0.0000E+00  0.0000E+00  0.0000E+00  0.0000E+00  0.0000E+00  0.0000E+00  0.0000E+00  0.0000E+00  0.0000E+00  0.0000E+00  0.0000E+00  0.0000E+00  0.0000E+00  0.0000E+00  0.0000E+00  0.0000E+00  0.0000E+00  0.0000E+00
    -19.820  0.0000E+00  0.0000E+00  0.0000E+00  0.0000E+00  0.0000E+00  0.0000E+00  0.0000E+00  0.0000E+00  0.0000E+00  0.0000E+00  0.0000E+00  0.0000E+00  0.0000E+00  0.0000E+00  0.0000E+00  0.0000E+00  0.0000E+00  0.0000E+00
    -19.736  0.0000E+00  0.0000E+00  0.0000E+00  0.0000E+00  0.0000E+00  0.0000E+00  0.0000E+00  0.0000E+00  0.0000E+00  0.0000E+00  0.0000E+00  0.0000E+00  0.0000E+00  0.0000E+00  0.0000E+00  0.0000E+00  0.0000E+00  0.0000E+00
    -19.652  0.0000E+00  0.0000E+00  0.0000E+00  0.0000E+00  0.0000E+00  0.0000E+00  0.0000E+00  0.0000E+00  0.0000E+00  0.0000E+00  0.0000E+00  0.0000E+00  0.0000E+00  0.0000E+00  0.0000E+00  0.0000E+00  0.0000E+00  0.0000E+00
    -19.568  0.0000E+00  0.0000E+00  0.0000E+00  0.0000E+00  0.0000E+00  0.0000E+00  0.0000E+00  0.0000E+00  0.0000E+00  0.0000E+00  0.0000E+00  0.0000E+00  0.0000E+00  0.0000E+00  0.0000E+00  0.0000E+00  0.0000E+00  0.0000E+00
    -19.484  0.0000E+00  0.0000E+00  0.0000E+00  0.0000E+00  0.0000E+00  0.0000E+00  0.0000E+00  0.0000E+00  0.0000E+00  0.0000E+00  0.0000E+00  0.0000E+00  0.0000E+00  0.0000E+00  0.0000E+00  0.0000E+00  0.0000E+00  0.0000E+00
    -19.400  0.0000E+00  0.0000E+00  0.0000E+00  0.0000E+00  0.0000E+00  0.0000E+00  0.0000E+00  0.0000E+00  0.0000E+00  0.0000E+00  0.0000E+00  0.0000E+00  0.0000E+00  0.0000E+00  0.0000E+00  0.0000E+00  0.0000E+00  0.0000E+00
    -19.316  0.0000E+00  0.0000E+00  0.0000E+00  0.0000E+00  0.0000E+00  0.0000E+00  0.0000E+00  0.0000E+00  0.0000E+00  0.0000E+00  0.0000E+00  0.0000E+00  0.0000E+00  0.0000E+00  0.0000E+00  0.0000E+00  0.0000E+00  0.0000E+00
    -19.232  0.0000E+00  0.0000E+00  0.0000E+00  0.0000E+00  0.0000E+00  0.0000E+00  0.0000E+00  0.0000E+00  0.0000E+00  0.0000E+00  0.0000E+00  0.0000E+00  0.0000E+00  0.0000E+00  0.0000E+00  0.0000E+00  0.0000E+00  0.0000E+00
    -19.148  0.0000E+00  0.0000E+00  0.0000E+00  0.0000E+00  0.0000E+00  0.0000E+00  0.0000E+00  0.0000E+00  0.0000E+00  0.0000E+00  0.0000E+00  0.0000E+00  0.0000E+00  0.0000E+00  0.0000E+00  0.0000E+00  0.0000E+00  0.0000E+00
    -19.064  0.6296E-02  0.6296E-02  0.7678E-04  0.7678E-04  0.9725E-11  0.9767E-11  0.2307E-03  0.2307E-03  0.2446E-04  0.2446E-04  0.1192E-04  0.1192E-04  0.9073E-05  0.9072E-05  0.3993E-05  0.3993E-05  0.8223E-05  0.8223E-05
    -18.980  0.9862E-02  0.9862E-02  0.3366E-03  0.3366E-03  0.7834E-08  0.7834E-08  0.1464E-02  0.1464E-02  0.1662E-03  0.1662E-03  0.8317E-04  0.8317E-04  0.1310E-04  0.1310E-04  0.2333E-04  0.2333E-04  0.4696E-04  0.4696E-04
    -18.895  0.1008E-01  0.1008E-01  0.6094E-03  0.6094E-03  0.1297E-07  0.1297E-07  0.2581E-02  0.2581E-02  0.3064E-03  0.3064E-03  0.1552E-03  0.1552E-03  0.1284E-04  0.1284E-04  0.4446E-04  0.4446E-04  0.8822E-04  0.8822E-04
    -18.811  0.1362E-01  0.1362E-01  0.4301E-02  0.4301E-02  0.4442E-07  0.4442E-07  0.1127E-01  0.1127E-01  0.1467E-02  0.1467E-02  0.7558E-03  0.7558E-03  0.1522E-04  0.1522E-04  0.3244E-03  0.3244E-03  0.6310E-03  0.6310E-03
    -18.727  0.0000E+00  0.0000E+00  0.0000E+00  0.0000E+00  0.0000E+00  0.0000E+00  0.0000E+00  0.0000E+00  0.0000E+00  0.0000E+00  0.0000E+00  0.0000E+00  0.0000E+00  0.0000E+00  0.0000E+00  0.0000E+00  0.0000E+00  0.0000E+00
    -18.643  0.0000E+00  0.0000E+00  0.0000E+00  0.0000E+00  0.0000E+00  0.0000E+00  0.0000E+00  0.0000E+00  0.0000E+00  0.0000E+00  0.0000E+00  0.0000E+00  0.0000E+00  0.0000E+00  0.0000E+00  0.0000E+00  0.0000E+00  0.0000E+00
    -18.559  0.0000E+00  0.0000E+00  0.0000E+00  0.0000E+00  0.0000E+00  0.0000E+00  0.0000E+00  0.0000E+00  0.0000E+00  0.0000E+00  0.0000E+00  0.0000E+00  0.0000E+00  0.0000E+00  0.0000E+00  0.0000E+00  0.0000E+00  0.0000E+00
    -18.475  0.0000E+00  0.0000E+00  0.0000E+00  0.0000E+00  0.0000E+00  0.0000E+00  0.0000E+00  0.0000E+00  0.0000E+00  0.0000E+00  0.0000E+00  0.0000E+00  0.0000E+00  0.0000E+00  0.0000E+00  0.0000E+00  0.0000E+00  0.0000E+00
    -18.391  0.0000E+00  0.0000E+00  0.0000E+00  0.0000E+00  0.0000E+00  0.0000E+00  0.0000E+00  0.0000E+00  0.0000E+00  0.0000E+00  0.0000E+00  0.0000E+00  0.0000E+00  0.0000E+00  0.0000E+00  0.0000E+00  0.0000E+00  0.0000E+00
    -18.307  0.0000E+00  0.0000E+00  0.0000E+00  0.0000E+00  0.0000E+00  0.0000E+00  0.0000E+00  0.0000E+00  0.0000E+00  0.0000E+00  0.0000E+00  0.0000E+00  0.0000E+00  0.0000E+00  0.0000E+00  0.0000E+00  0.0000E+00  0.0000E+00
    -18.223  0.0000E+00  0.0000E+00  0.0000E+00  0.0000E+00  0.0000E+00  0.0000E+00  0.0000E+00  0.0000E+00  0.0000E+00  0.0000E+00  0.0000E+00  0.0000E+00  0.0000E+00  0.0000E+00  0.0000E+00  0.0000E+00  0.0000E+00  0.0000E+00
    -18.139  0.0000E+00  0.0000E+00  0.0000E+00  0.0000E+00  0.0000E+00  0.0000E+00  0.0000E+00  0.0000E+00  0.0000E+00  0.0000E+00  0.0000E+00  0.0000E+00  0.0000E+00  0.0000E+00  0.0000E+00  0.0000E+00  0.0000E+00  0.0000E+00
    -18.055  0.0000E+00  0.0000E+00  0.0000E+00  0.0000E+00  0.0000E+00  0.0000E+00  0.0000E+00  0.0000E+00  0.0000E+00  0.0000E+00  0.0000E+00  0.0000E+00  0.0000E+00  0.0000E+00  0.0000E+00  0.0000E+00  0.0000E+00  0.0000E+00
    -17.971  0.0000E+00  0.0000E+00  0.0000E+00  0.0000E+00  0.0000E+00  0.0000E+00  0.0000E+00  0.0000E+00  0.0000E+00  0.0000E+00  0.0000E+00  0.0000E+00  0.0000E+00  0.0000E+00  0.0000E+00  0.0000E+00  0.0000E+00  0.0000E+00
    -17.887  0.0000E+00  0.0000E+00  0.0000E+00  0.0000E+00  0.0000E+00  0.0000E+00  0.0000E+00  0.0000E+00  0.0000E+00  0.0000E+00  0.0000E+00  0.0000E+00  0.0000E+00  0.0000E+00  0.0000E+00  0.0000E+00  0.0000E+00  0.0000E+00
    -17.803  0.0000E+00  0.0000E+00  0.0000E+00  0.0000E+00  0.0000E+00  0.0000E+00  0.0000E+00  0.0000E+00  0.0000E+00  0.0000E+00  0.0000E+00  0.0000E+00  0.0000E+00  0.0000E+00  0.0000E+00  0.0000E+00  0.0000E+00  0.0000E+00
    -17.719  0.3243E-08  0.3243E-08  0.3048E-04  0.3048E-04  0.2748E-02  0.2748E-02  0.1032E-04  0.1032E-04  0.1724E-04  0.1724E-04  0.6058E-04  0.6058E-04  0.2561E-08  0.2561E-08  0.1819E-03  0.1819E-03  0.5185E-04  0.5185E-04
    -17.635  0.7300E-06  0.7300E-06  0.2873E-03  0.2873E-03  0.5424E-02  0.5424E-02  0.7788E-04  0.7788E-04  0.1027E-03  0.1027E-03  0.3566E-03  0.3566E-03  0.5185E-08  0.5185E-08  0.1560E-02  0.1560E-02  0.4513E-03  0.4513E-03
    -17.551  0.1232E-05  0.1232E-05  0.5623E-03  0.5623E-03  0.5541E-02  0.5541E-02  0.1574E-03  0.1574E-03  0.1980E-03  0.1980E-03  0.6820E-03  0.6820E-03  0.5388E-08  0.5388E-08  0.2878E-02  0.2878E-02  0.8370E-03  0.8370E-03
    -17.467  0.3345E-05  0.3345E-05  0.1815E-02  0.1815E-02  0.4779E-02  0.4779E-02  0.8035E-03  0.8035E-03  0.1033E-02  0.1033E-02  0.3485E-02  0.3485E-02  0.5055E-08  0.5061E-08  0.8494E-02  0.8494E-02  0.2502E-02  0.2502E-02
    -17.383  0.0000E+00  0.0000E+00  0.0000E+00  0.0000E+00  0.0000E+00  0.0000E+00  0.0000E+00  0.0000E+00  0.0000E+00  0.0000E+00  0.0000E+00  0.0000E+00  0.0000E+00  0.0000E+00  0.0000E+00  0.0000E+00  0.0000E+00  0.0000E+00
    -17.299  0.0000E+00  0.0000E+00  0.0000E+00  0.0000E+00  0.0000E+00  0.0000E+00  0.0000E+00  0.0000E+00  0.0000E+00  0.0000E+00  0.0000E+00  0.0000E+00  0.0000E+00  0.0000E+00  0.0000E+00  0.0000E+00  0.0000E+00  0.0000E+00
    -17.214  0.0000E+00  0.0000E+00  0.0000E+00  0.0000E+00  0.0000E+00  0.0000E+00  0.0000E+00  0.0000E+00  0.0000E+00  0.0000E+00  0.0000E+00  0.0000E+00  0.0000E+00  0.0000E+00  0.0000E+00  0.0000E+00  0.0000E+00  0.0000E+00
    -17.130  0.0000E+00  0.0000E+00  0.0000E+00  0.0000E+00  0.0000E+00  0.0000E+00  0.0000E+00  0.0000E+00  0.0000E+00  0.0000E+00  0.0000E+00  0.0000E+00  0.0000E+00  0.0000E+00  0.0000E+00  0.0000E+00  0.0000E+00  0.0000E+00
    -17.046  0.0000E+00  0.0000E+00  0.0000E+00  0.0000E+00  0.0000E+00  0.0000E+00  0.0000E+00  0.0000E+00  0.0000E+00  0.0000E+00  0.0000E+00  0.0000E+00  0.0000E+00  0.0000E+00  0.0000E+00  0.0000E+00  0.0000E+00  0.0000E+00
    -16.962  0.0000E+00  0.0000E+00  0.0000E+00  0.0000E+00  0.0000E+00  0.0000E+00  0.0000E+00  0.0000E+00  0.0000E+00  0.0000E+00  0.0000E+00  0.0000E+00  0.0000E+00  0.0000E+00  0.0000E+00  0.0000E+00  0.0000E+00  0.0000E+00
    -16.878  0.0000E+00  0.0000E+00  0.0000E+00  0.0000E+00  0.0000E+00  0.0000E+00  0.0000E+00  0.0000E+00  0.0000E+00  0.0000E+00  0.0000E+00  0.0000E+00  0.0000E+00  0.0000E+00  0.0000E+00  0.0000E+00  0.0000E+00  0.0000E+00
    -16.794  0.0000E+00  0.0000E+00  0.0000E+00  0.0000E+00  0.0000E+00  0.0000E+00  0.0000E+00  0.0000E+00  0.0000E+00  0.0000E+00  0.0000E+00  0.0000E+00  0.0000E+00  0.0000E+00  0.0000E+00  0.0000E+00  0.0000E+00  0.0000E+00
    -16.710  0.0000E+00  0.0000E+00  0.0000E+00  0.0000E+00  0.0000E+00  0.0000E+00  0.0000E+00  0.0000E+00  0.0000E+00  0.0000E+00  0.0000E+00  0.0000E+00  0.0000E+00  0.0000E+00  0.0000E+00  0.0000E+00  0.0000E+00  0.0000E+00
    -16.626  0.0000E+00  0.0000E+00  0.0000E+00  0.0000E+00  0.0000E+00  0.0000E+00  0.0000E+00  0.0000E+00  0.0000E+00  0.0000E+00  0.0000E+00  0.0000E+00  0.0000E+00  0.0000E+00  0.0000E+00  0.0000E+00  0.0000E+00  0.0000E+00
    -16.542  0.4687E-01  0.4687E-01  0.4278E-02  0.4278E-02  0.1474E-03  0.1474E-03  0.3619E-02  0.3619E-02  0.1368E-02  0.1368E-02  0.1618E-02  0.1618E-02  0.2555E-04  0.2555E-04  0.2178E-03  0.2178E-03  0.1939E-03  0.1939E-03
    -16.458  0.2153E-01  0.2153E-01  0.2248E-02  0.2248E-02  0.6390E-04  0.6390E-04  0.1678E-02  0.1678E-02  0.9862E-03  0.9862E-03  0.1217E-02  0.1218E-02  0.1334E-04  0.1334E-04  0.1922E-03  0.1922E-03  0.1541E-03  0.1541E-03
    -16.374  0.1072E-01  0.1072E-01  0.1185E-02  0.1185E-02  0.2478E-04  0.2478E-04  0.1107E-02  0.1107E-02  0.7715E-03  0.7715E-03  0.9922E-03  0.9922E-03  0.7990E-05  0.7990E-05  0.2139E-03  0.2139E-03  0.1618E-03  0.1618E-03
    -16.290  0.9145E-02  0.9145E-02  0.1084E-02  0.1084E-02  0.2168E-04  0.2168E-04  0.1111E-02  0.1111E-02  0.7993E-03  0.7993E-03  0.1046E-02  0.1046E-02  0.7582E-05  0.7582E-05  0.2462E-03  0.2462E-03  0.1831E-03  0.1831E-03
    -16.206  0.1821E-01  0.1821E-01  0.6601E-02  0.6601E-02  0.1091E-02  0.1091E-02  0.5512E-02  0.5512E-02  0.1011E-02  0.1011E-02  0.1357E-02  0.1357E-02  0.1913E-04  0.1913E-04  0.5560E-03  0.5560E-03  0.3954E-03  0.3954E-03
    -16.122  0.1267E-01  0.1267E-01  0.8080E-02  0.8080E-02  0.1866E-02  0.1866E-02  0.6744E-02  0.6744E-02  0.1277E-02  0.1277E-02  0.1885E-02  0.1885E-02  0.1520E-04  0.1520E-04  0.6881E-03  0.6881E-03  0.4802E-03  0.4802E-03
    -16.038  0.9266E-02  0.9266E-02  0.1154E-01  0.1154E-01  0.2841E-02  0.2841E-02  0.7861E-02  0.7861E-02  0.1246E-02  0.1246E-02  0.1868E-02  0.1868E-02  0.1164E-04  0.1164E-04  0.1733E-02  0.1733E-02  0.1149E-02  0.1149E-02