       N       E                     dE             d eps       ncg     rms          rms(c)
DAV:   1     0.435934369751E+03    0.43593E+03   -0.20509E+04   960   0.982E+02
DAV:   2     0.382086047897E+02   -0.39773E+03   -0.37367E+03  1440   0.204E+02
DAV:   3    -0.396592981920E+02   -0.77868E+02   -0.74539E+02  1248   0.825E+01
DAV:   4    -0.425604209425E+02   -0.29011E+01   -0.28838E+01  1104   0.215E+01
DAV:   5    -0.426485347399E+02   -0.88114E-01   -0.88098E-01  1424   0.389E+00    0.407E+01
DAV:   6    -0.931751485268E+02   -0.50527E+02   -0.57848E+02  1312   0.179E+02    0.614E+01
DAV:   7    -0.487603372864E+02    0.44415E+02   -0.64722E+01  1136   0.545E+01    0.325E+01
DAV:   8    -0.369653718659E+02    0.11795E+02   -0.14280E+01  1248   0.327E+01    0.193E+01
DAV:   9    -0.347257575985E+02    0.22396E+01   -0.44014E+00  1408   0.284E+01    0.449E+00
DAV:  10    -0.738801342266E+02   -0.39154E+02   -0.13458E+00  1264   0.536E+00    0.180E+01
DAV:  11    -0.345298660670E+02    0.39350E+02   -0.82689E+02  1184   0.347E+01    0.455E+00
DAV:  12    -0.347121869502E+02   -0.18232E+00   -0.13351E-01  1312   0.233E+00    0.245E+00
DAV:  13    -0.348330297684E+02   -0.12084E+00   -0.93679E-02  1264   0.166E+00    0.140E+00
DAV:  14    -0.349144011503E+02   -0.81371E-01   -0.98659E-02  1344   0.363E+00    0.204E+00
DAV:  15    -0.350020615603E+02   -0.87660E-01   -0.84075E-02  1408   0.322E+00    0.384E+00
DAV:  16    -0.349956842147E+02    0.63773E-02   -0.20321E-02  1216   0.664E-01    0.382E+00
DAV:  17    -0.349889432082E+02    0.67410E-02   -0.26343E-03  1280   0.377E-01    0.366E+00
DAV:  18    -0.349241941814E+02    0.64749E-01   -0.12137E-01  1440   0.465E+00    0.996E-01
DAV:  19    -0.349781535830E+02   -0.53959E-01   -0.74618E-02  1392   0.239E+00    0.193E+00
DAV:  20    -0.350159481306E+02   -0.37795E-01   -0.49926E-02  1312   0.149E+00    0.271E+00
DAV:  21    -0.350634663777E+02   -0.47518E-01   -0.73699E-02  1280   0.131E+00    0.347E+00
DAV:  22    -0.350438764094E+02    0.19590E-01   -0.23433E-02  1152   0.926E-01    0.309E+00
DAV:  23    -0.350083524395E+02    0.35524E-01   -0.65924E-02  1200   0.157E+00    0.235E+00
DAV:  24    -0.349927837839E+02    0.15569E-01   -0.34563E-01  1280   0.303E+00    0.129E+00
DAV:  25    -0.349967461820E+02   -0.39624E-02   -0.34314E-02  1392   0.107E+00    0.113E+00
DAV:  26    -0.349959658025E+02    0.78038E-03   -0.11986E-02  1296   0.118E+00    0.984E-01
DAV:  27    -0.351079464847E+02   -0.11198E+00   -0.20528E-02  1472   0.149E+00    0.127E+00
DAV:  28    -0.350092512863E+02    0.98695E-01   -0.64648E-03  1216   0.392E-01    0.139E+00
DAV:  29    -0.350147473422E+02   -0.54961E-02   -0.19559E-03  1056   0.226E-01    0.147E+00
DAV:  30    -0.350055046774E+02    0.92427E-02   -0.53659E-03   976   0.331E-01    0.134E+00
DAV:  31    -0.351759719937E+02   -0.17047E+00   -0.69654E-03  1152   0.514E-01    0.117E+00
DAV:  32    -0.565218904595E+02   -0.21346E+02   -0.52413E-03  1248   0.345E-01    0.201E+01
DAV:  33    -0.345953680858E+02    0.21927E+02   -0.11951E+03  1072   0.408E+01    0.221E+00
DAV:  34    -0.349169822521E+02   -0.32161E+00   -0.18212E-02  1040   0.104E+00    0.131E+00
DAV:  35    -0.349840716640E+02   -0.67089E-01   -0.27487E-02  1280   0.109E+00    0.751E-01
DAV:  36    -0.349876536239E+02   -0.35820E-02   -0.53834E-03  1024   0.361E-01    0.672E-01
DAV:  37    -0.349924792608E+02   -0.48256E-02   -0.48041E-03  1040   0.372E-01    0.818E-01
DAV:  38    -0.351224911936E+02   -0.13001E+00   -0.15946E-03  1184   0.269E-01    0.779E-01
DAV:  39    -0.349997276011E+02    0.12276E+00   -0.38516E-03  1152   0.419E-01    0.892E-01
DAV:  40    -0.350014680014E+02   -0.17404E-02   -0.17109E-03  1008   0.186E-01    0.823E-01
DAV:  41    -0.350016563660E+02   -0.18836E-03   -0.39497E-04   944   0.107E-01    0.816E-01
DAV:  42    -0.350017467294E+02   -0.90363E-04   -0.15034E-04   960   0.670E-02
   1 F= -.35001747E+02 E0= -.35001747E+02  d E =-.350017E+02  mag=     3.6239
       N       E                     dE             d eps       ncg     rms          rms(c)
DAV:   1    -0.116393575659E+03   -0.81392E+02   -0.84638E+02  1264   0.229E+02    0.100E+02
DAV:   2    -0.363257744293E+03   -0.24686E+03   -0.22943E+03  1456   0.388E+02    0.660E+01
DAV:   3    -0.907227323012E+02    0.27254E+03   -0.64978E+02  1200   0.127E+02    0.398E+01
DAV:   4    -0.417875526813E+02    0.48935E+02   -0.35661E+02  1376   0.168E+02    0.203E+01
DAV:   5    -0.425788785310E+02   -0.79133E+00   -0.37065E+01  1280   0.252E+01    0.806E+00
DAV:   6    -0.421772577458E+02    0.40162E+00   -0.32528E+00  1392   0.179E+01    0.373E+00
DAV:   7    -0.425260058755E+02   -0.34875E+00   -0.11639E+00  1488   0.148E+01    0.631E+00
DAV:   8    -0.424632430866E+02    0.62763E-01   -0.15204E-01  1264   0.416E+00    0.473E+00
DAV:   9    -0.424937887628E+02   -0.30546E-01   -0.55695E-01  1040   0.743E+00    0.245E+00
DAV:  10    -0.425150847222E+02   -0.21296E-01   -0.12033E-01  1248   0.226E+00    0.208E+00
DAV:  11    -0.425199088472E+02   -0.48241E-02   -0.21968E-02  1328   0.145E+00    0.157E+00
DAV:  12    -0.424345060766E+02    0.85403E-01   -0.33367E-02  1232   0.145E+00    0.161E+00
DAV:  13    -0.425450073622E+02   -0.11050E+00   -0.14191E-02  1184   0.938E-01    0.115E+00
DAV:  14    -0.425490069255E+02   -0.39996E-02   -0.41650E-02  1136   0.289E+00    0.506E-01
DAV:  15    -0.424403901331E+02    0.10862E+00   -0.17274E-02  1312   0.120E+00    0.533E-01
DAV:  16    -0.425627252369E+02   -0.12234E+00   -0.53530E-03  1200   0.947E-01    0.436E-01
DAV:  17    -0.425609930830E+02    0.17322E-02   -0.51267E-03  1120   0.101E+00    0.168E-01
DAV:  18    -0.425615537771E+02   -0.56069E-03   -0.16229E-03  1360   0.298E-01    0.128E-01
DAV:  19    -0.425615624136E+02   -0.86365E-05   -0.29289E-04   912   0.169E-01
   2 F= -.42561562E+02 E0= -.42561562E+02  d E =-.755982E+01  mag=     3.9956
       N       E                     dE             d eps       ncg     rms          rms(c)
DAV:   1    -0.307054594635E+03   -0.26449E+03   -0.52608E+03  1424   0.555E+02    0.139E+02
DAV:   2    -0.189337860599E+03    0.11772E+03   -0.47270E+03  1504   0.416E+02    0.632E+01
DAV:   3     0.292103642287E+02    0.21855E+03   -0.91807E+02  1424   0.318E+02    0.270E+01
DAV:   4     0.105826697539E+02   -0.18628E+02   -0.32796E+02  1568   0.155E+02    0.278E+01
DAV:   5     0.198807923718E+02    0.92981E+01   -0.81993E+01  1360   0.147E+02    0.139E+01
DAV:   6     0.196057137283E+02   -0.27508E+00   -0.14258E+01  1312   0.228E+01    0.926E+00
DAV:   7     0.211809731044E+02    0.15753E+01   -0.36494E+00  1376   0.384E+01    0.289E+00
DAV:   8     0.212181756575E+02    0.37203E-01   -0.73326E-01  1440   0.440E+00    0.183E+00
DAV:   9     0.212728576390E+02    0.54682E-01   -0.13512E-01  1456   0.674E+00    0.778E-01
DAV:  10     0.212746206560E+02    0.17630E-02   -0.71319E-02  1584   0.275E+00    0.608E-01
DAV:  11     0.212726325169E+02   -0.19881E-02   -0.27226E-02  1440   0.223E+00    0.211E-01
DAV:  12     0.212781147415E+02    0.54822E-02   -0.35985E-03  1296   0.495E-01    0.183E-01
DAV:  13     0.212785536036E+02    0.43886E-03   -0.98050E-04  1088   0.192E-01    0.197E-01
DAV:  14     0.212784611875E+02   -0.92416E-04   -0.54824E-04   976   0.363E-01
   3 F= 0.21278461E+02 E0= 0.21278461E+02  d E =0.562802E+02  mag=     0.0002
       N       E                     dE             d eps       ncg     rms          rms(c)
DAV:   1    -0.171517446786E+03   -0.19280E+03   -0.40820E+03  1104   0.599E+02    0.810E+01
DAV:   2    -0.110602773198E+03    0.60915E+02   -0.12928E+03  1136   0.195E+02    0.679E+01
DAV:   3    -0.125935960145E+03   -0.15333E+02   -0.27044E+02  1120   0.190E+02    0.498E+01
DAV:   4    -0.676716535055E+02    0.58264E+02   -0.12699E+02  1168   0.762E+01    0.273E+01
DAV:   5    -0.507084285272E+02    0.16963E+02   -0.14893E+01  1424   0.477E+01    0.191E+01
DAV:   6    -0.429752056453E+02    0.77332E+01   -0.14297E+01  1424   0.734E+01    0.527E+00
DAV:   7    -0.432949535683E+02   -0.31975E+00   -0.67440E+00  1488   0.209E+01    0.509E+00
DAV:   8    -0.431210259146E+02    0.17393E+00   -0.28898E+00  1552   0.248E+01    0.829E+00
DAV:   9    -0.425084482184E+02    0.61258E+00   -0.96388E-01  1392   0.117E+01    0.194E+00
DAV:  10    -0.424645045903E+02    0.43944E-01   -0.19053E-01  1488   0.366E+00    0.933E-01
DAV:  11    -0.424669774713E+02   -0.24729E-02   -0.30800E-02  1376   0.108E+00    0.121E+00
DAV:  12    -0.424728345607E+02   -0.58571E-02   -0.10717E-02  1264   0.857E-01    0.163E+00
DAV:  13    -0.424651456271E+02    0.76889E-02   -0.54021E-02  1184   0.343E+00    0.161E+00
DAV:  14    -0.424551299993E+02    0.10016E-01   -0.10908E-02  1216   0.509E-01    0.138E+00
DAV:  15    -0.424490755557E+02    0.60544E-02   -0.16655E-02  1296   0.167E+00    0.415E-01
DAV:  16    -0.424433743029E+02    0.57013E-02   -0.12718E-02  1136   0.150E+00    0.660E-01
DAV:  17    -0.424514460185E+02   -0.80717E-02   -0.16710E-02  1280   0.114E+00    0.122E+00
DAV:  18    -0.424084458228E+02    0.43000E-01   -0.50513E-02  1184   0.243E+00    0.554E-01
DAV:  19    -0.424067000990E+02    0.17457E-02   -0.15484E-02  1488   0.111E+00    0.889E-01
DAV:  20    -0.423909793436E+02    0.15721E-01   -0.12382E-02  1200   0.607E-01    0.105E+00
DAV:  21    -0.423958674276E+02   -0.48881E-02   -0.84070E-03  1200   0.695E-01    0.119E+00
DAV:  22    -0.423888786702E+02    0.69888E-02   -0.34091E-03  1296   0.752E-01    0.785E-01
DAV:  23    -0.423880098567E+02    0.86881E-03   -0.86342E-03  1280   0.117E+00    0.183E-01
DAV:  24    -0.423896461094E+02   -0.16363E-02   -0.95670E-03  1312   0.971E-01    0.459E-01
DAV:  25    -0.423987219001E+02   -0.90758E-02   -0.73081E-03  1168   0.535E-01    0.648E-01
DAV:  26    -0.423987729451E+02   -0.51045E-04   -0.18135E-03  1216   0.324E-01    0.501E-01
DAV:  27    -0.423942567257E+02    0.45162E-02   -0.12340E-03  1088   0.367E-01    0.501E-01
DAV:  28    -0.423931495125E+02    0.11072E-02   -0.12912E-03  1280   0.361E-01    0.537E-01
DAV:  29    -0.423973977960E+02   -0.42483E-02   -0.41592E-04   976   0.159E-01    0.285E-01
DAV:  30    -0.423982344350E+02   -0.83664E-03   -0.23275E-04   784   0.137E-01    0.824E-02
DAV:  31    -0.423987320428E+02   -0.49761E-03   -0.16683E-04   864   0.115E-01    0.851E-02
DAV:  32    -0.423989496013E+02   -0.21756E-03   -0.12293E-04   752   0.148E-01    0.134E-01
DAV:  33    -0.423989701638E+02   -0.20563E-04   -0.49198E-05   672   0.411E-02
   4 F= -.42398970E+02 E0= -.42398970E+02  d E =-.739722E+01  mag=     0.0167
       N       E                     dE             d eps       ncg     rms          rms(c)
DAV:   1    -0.526851117041E+02   -0.10286E+02   -0.13457E+02  1344   0.938E+01    0.312E+01
DAV:   2    -0.836341008464E+02   -0.30949E+02   -0.25223E+02  1088   0.189E+02    0.334E+01
DAV:   3    -0.449857683693E+02    0.38648E+02   -0.77387E+01  1200   0.133E+02    0.103E+01
DAV:   4    -0.463825219898E+02   -0.13968E+01   -0.30755E+01  1440   0.815E+01    0.185E+01
DAV:   5    -0.439647366880E+02    0.24178E+01   -0.16998E+01  1376   0.405E+01    0.376E+00
DAV:   6    -0.439785749650E+02   -0.13838E-01   -0.87588E-01  1104   0.421E+00    0.360E+00
DAV:   7    -0.438278485083E+02    0.15073E+00   -0.11644E-01  1312   0.551E+00    0.197E+00
DAV:   8    -0.437785873821E+02    0.49261E-01   -0.98182E-02  1344   0.398E+00    0.600E-01
DAV:   9    -0.437754761665E+02    0.31112E-02   -0.29289E-02  1376   0.116E+00    0.176E-01
DAV:  10    -0.437745408590E+02    0.93531E-03   -0.16497E-03  1296   0.405E-01    0.402E-02
DAV:  11    -0.437742740097E+02    0.26685E-03   -0.32667E-04   976   0.105E-01    0.477E-02
DAV:  12    -0.437741128525E+02    0.16116E-03   -0.18410E-04   896   0.795E-02    0.651E-02
DAV:  13    -0.437742351020E+02   -0.12225E-03   -0.35876E-04   976   0.758E-02    0.829E-02
DAV:  14    -0.437740750042E+02    0.16010E-03   -0.98438E-04  1024   0.153E-01    0.436E-02
DAV:  15    -0.437736477265E+02    0.42728E-03   -0.10278E-04   992   0.539E-02    0.526E-02
DAV:  16    -0.437737584981E+02   -0.11077E-03   -0.11005E-04   736   0.158E-01    0.177E-02
DAV:  17    -0.437738288594E+02   -0.70361E-04   -0.52514E-05   720   0.338E-02
   5 F= -.43773829E+02 E0= -.43773829E+02  d E =-.137486E+01  mag=    -0.0013
       N       E                     dE             d eps       ncg     rms          rms(c)
DAV:   1    -0.440864915375E+02   -0.31273E+00   -0.46156E+00  1296   0.184E+01    0.480E+00
DAV:   2    -0.448690568974E+02   -0.78257E+00   -0.50969E+00  1072   0.342E+01    0.797E+00
DAV:   3    -0.438164419296E+02    0.10526E+01   -0.26997E+00  1088   0.336E+01    0.137E+00
DAV:   4    -0.438113691329E+02    0.50728E-02   -0.36985E-01  1104   0.249E+00    0.815E-01
DAV:   5    -0.438265576871E+02   -0.15189E-01   -0.23024E-02  1280   0.227E+00    0.114E-01
DAV:   6    -0.438266990085E+02   -0.14132E-03   -0.73190E-03   992   0.501E-01    0.680E-02
DAV:   7    -0.438270596396E+02   -0.36063E-03   -0.53821E-04  1056   0.198E-01    0.269E-02
DAV:   8    -0.438270481443E+02    0.11495E-04   -0.66597E-05   704   0.813E-02
   6 F= -.43827048E+02 E0= -.43827048E+02  d E =-.142808E+01  mag=    -0.0005
       N       E                     dE             d eps       ncg     rms          rms(c)
DAV:   1    -0.439723885827E+02   -0.14533E+00   -0.13515E+01   960   0.151E+01    0.227E+00
DAV:   2    -0.441581985993E+02   -0.18581E+00   -0.16921E+00  1408   0.153E+01    0.321E+00
DAV:   3    -0.440113231443E+02    0.14688E+00   -0.61919E-01  1200   0.120E+01    0.118E+00
DAV:   4    -0.439984399077E+02    0.12883E-01   -0.70468E-02  1120   0.208E+00    0.548E-01
DAV:   5    -0.439952300379E+02    0.32099E-02   -0.92200E-03  1216   0.128E+00    0.857E-02
DAV:   6    -0.439953715672E+02   -0.14153E-03   -0.16911E-03   992   0.200E-01    0.243E-02
DAV:   7    -0.439953796155E+02   -0.80482E-05   -0.91141E-05   688   0.487E-02
   7 F= -.43995380E+02 E0= -.43995380E+02  d E =-.168331E+00  mag=    -0.0001
       N       E                     dE             d eps       ncg     rms          rms(c)
DAV:   1    -0.440244393627E+02   -0.29068E-01   -0.10711E+01   960   0.133E+01    0.199E+00
DAV:   2    -0.441613741142E+02   -0.13693E+00   -0.12994E+00  1232   0.130E+01    0.272E+00
DAV:   3    -0.440542409431E+02    0.10713E+00   -0.45540E-01  1232   0.102E+01    0.104E+00
DAV:   4    -0.440438889525E+02    0.10352E-01   -0.52736E-02  1168   0.184E+00    0.457E-01
DAV:   5    -0.440416648834E+02    0.22241E-02   -0.65701E-03  1152   0.104E+00    0.766E-02
DAV:   6    -0.440418050904E+02   -0.14021E-03   -0.12161E-03   960   0.168E-01    0.203E-02
DAV:   7    -0.440418874810E+02   -0.82391E-04   -0.66781E-05   688   0.406E-02
   8 F= -.44041887E+02 E0= -.44041887E+02  d E =-.214839E+00  mag=    -0.0000
       N       E                     dE             d eps       ncg     rms          rms(c)
DAV:   1    -0.447728694558E+02   -0.73106E+00   -0.15767E+01  1120   0.301E+01    0.763E+00
DAV:   2    -0.464459617699E+02   -0.16731E+01   -0.11997E+01  1296   0.619E+01    0.132E+01
DAV:   3    -0.441259380282E+02    0.23200E+01   -0.76331E+00  1136   0.328E+01    0.320E+00
DAV:   4    -0.440295144804E+02    0.96424E-01   -0.76355E-01  1232   0.739E+00    0.727E-01
DAV:   5    -0.440223103892E+02    0.72041E-02   -0.40114E-02  1424   0.137E+00    0.260E-01
DAV:   6    -0.440213641594E+02    0.94623E-03   -0.70124E-03  1408   0.579E-01    0.657E-02
DAV:   7    -0.440214176461E+02   -0.53487E-04   -0.16477E-03  1152   0.277E-01    0.339E-02
DAV:   8    -0.440215332139E+02   -0.11557E-03   -0.13871E-04   864   0.875E-02    0.157E-02
DAV:   9    -0.440217164789E+02   -0.18326E-03   -0.57096E-05   784   0.580E-02    0.545E-03
DAV:  10    -0.440217596467E+02   -0.43168E-04   -0.12086E-05   656   0.226E-02
   9 F= -.44021760E+02 E0= -.44021760E+02  d E =0.201278E-01  mag=    -0.0000
       N       E                     dE             d eps       ncg     rms          rms(c)
DAV:   1    -0.443109216845E+02   -0.28921E+00   -0.50623E+00  1088   0.166E+01    0.439E+00
DAV:   2    -0.448805736950E+02   -0.56965E+00   -0.40762E+00  1264   0.285E+01    0.697E+00
DAV:   3    -0.440880744545E+02    0.79250E+00   -0.19480E+00  1088   0.296E+01    0.145E+00
DAV:   4    -0.440767610962E+02    0.11313E-01   -0.30066E-01  1168   0.265E+00    0.698E-01
DAV:   5    -0.440700858488E+02    0.66752E-02   -0.15956E-02  1184   0.177E+00    0.104E-01
DAV:   6    -0.440706122715E+02   -0.52642E-03   -0.55947E-03  1056   0.341E-01    0.405E-02
DAV:   7    -0.440706156640E+02   -0.33925E-05   -0.23545E-04   928   0.113E-01
  10 F= -.44070616E+02 E0= -.44070616E+02  d E =-.287282E-01  mag=     0.0000
       N       E                     dE             d eps       ncg     rms          rms(c)
DAV:   1    -0.440743148172E+02   -0.37025E-02   -0.13703E-01  1216   0.212E+00    0.467E-01
DAV:   2    -0.440794612549E+02   -0.51464E-02   -0.48626E-02  1168   0.302E+00    0.682E-01
DAV:   3    -0.440722294491E+02    0.72318E-02   -0.23163E-02  1136   0.263E+00    0.202E-01
DAV:   4    -0.440722213218E+02    0.81273E-05   -0.34048E-03  1200   0.405E-01    0.663E-02
DAV:   5    -0.440721605451E+02    0.60777E-04   -0.17043E-04   848   0.158E-01
  11 F= -.44072161E+02 E0= -.44072161E+02  d E =-.154488E-02  mag=     0.0000
       N       E                     dE             d eps       ncg     rms          rms(c)
DAV:   1    -0.440723010407E+02   -0.79719E-04   -0.93749E-04  1088   0.161E-01    0.337E-02
DAV:   2    -0.440723230040E+02   -0.21963E-04   -0.20937E-04   944   0.195E-01
  12 F= -.44072323E+02 E0= -.44072323E+02  d E =-.170734E-02  mag=     0.0000
       N       E                     dE             d eps       ncg     rms          rms(c)
DAV:   1    -0.440791465439E+02   -0.68455E-02   -0.96955E-02  1120   0.262E+00    0.725E-01
DAV:   2    -0.440936294455E+02   -0.14483E-01   -0.10944E-01   992   0.527E+00    0.119E+00
DAV:   3    -0.440720311688E+02    0.21598E-01   -0.58175E-02  1072   0.400E+00    0.247E-01
DAV:   4    -0.440717741567E+02    0.25701E-03   -0.47396E-03  1152   0.510E-01    0.729E-02
DAV:   5    -0.440716936730E+02    0.80484E-04   -0.19430E-04   960   0.155E-01
  13 F= -.44071694E+02 E0= -.44071694E+02  d E =0.629331E-03  mag=     0.0000
       N       E                     dE             d eps       ncg     rms          rms(c)
DAV:   1    -0.440725240846E+02   -0.74993E-03   -0.74921E-03  1232   0.796E-01    0.209E-01
DAV:   2    -0.440738916766E+02   -0.13676E-02   -0.93373E-03  1088   0.152E+00    0.348E-01
DAV:   3    -0.440718533734E+02    0.20383E-02   -0.48308E-03  1008   0.122E+00    0.668E-02
DAV:   4    -0.440720720491E+02   -0.21868E-03   -0.38668E-04   976   0.134E-01    0.228E-02
DAV:   5    -0.440720837762E+02   -0.11727E-04   -0.17033E-05   928   0.518E-02
  14 F= -.44072084E+02 E0= -.44072084E+02  d E =0.239228E-03  mag=     0.0000
