 vasp.5.4.4.18Apr17-6-g9f103f2a35 (build May  1 2020 15:48:39) complex           
 executed on             LinuxGNU date 2020.06.20  21:58:58
 running on   16 total cores
 distrk:  each k-point on   16 cores,    1 groups
 distr:  one band on NCORES_PER_BAND=   1 cores,   16 groups


--------------------------------------------------------------------------------------------------------


 INCAR:
 POTCAR:   PAW_PBE Ni 06Sep2000                   
 POTCAR:    PAW_PBE P 17Jan2003                   
 POTCAR:    PAW_PBE S 17Jan2003                   

 ----------------------------------------------------------------------------- 
|                                                                             |
|           W    W    AA    RRRRR   N    N  II  N    N   GGGG   !!!           |
|           W    W   A  A   R    R  NN   N  II  NN   N  G    G  !!!           |
|           W    W  A    A  R    R  N N  N  II  N N  N  G       !!!           |
|           W WW W  AAAAAA  RRRRR   N  N N  II  N  N N  G  GGG   !            |
|           WW  WW  A    A  R   R   N   NN  II  N   NN  G    G                |
|           W    W  A    A  R    R  N    N  II  N    N   GGGG   !!!           |
|                                                                             |
|      For optimal performance we recommend to set                            |
|        NCORE= 4 - approx SQRT( number of cores)                             |
|      NCORE specifies how many cores store one orbital (NPAR=cpu/NCORE).     |
|      This setting can  greatly improve the performance of VASP for DFT.     |
|      The default,   NCORE=1            might be grossly inefficient         |
|      on modern multi-core architectures or massively parallel machines.     |
|      Do your own testing !!!!                                               |
|      Unfortunately you need to use the default for GW and RPA calculations. |
|      (for HF NCORE is supported but not extensively tested yet)             |
|                                                                             |
 ----------------------------------------------------------------------------- 


 ----------------------------------------------------------------------------- 
|                                                                             |
|  ADVICE TO THIS USER RUNNING 'VASP/VAMP'   (HEAR YOUR MASTER'S VOICE ...):  |
|                                                                             |
|      You have switched on vdW-DFT.                                          |
|      This routine was written and supplied by Jiri Klimes.                  |
|      We recommed that you carefully read and cite the following             |
|      publication                                                            |
|      J. Klimes, D.R. Bowler, A. Michelides                                  |
|        J. Phys.: Cond Matt. 22 022201 (2010)                                |
|      J. Klimes, D.R. Bowler, A. Michelides                                  |
|        Phys. Rev. B. 83, 195131 (2011)                                      |
|      and references therein.                                                |
|                                                                             |
 ----------------------------------------------------------------------------- 

 POTCAR:   PAW_PBE Ni 06Sep2000                   
   VRHFIN =Ni:                                                                  
   LEXCH  = PE                                                                  
   EATOM  =  1077.9025 eV,   79.2236 Ry                                         
                                                                                
   TITEL  = PAW_PBE Ni 06Sep2000                                                
   LULTRA =        F    use ultrasoft PP ?                                      
   IUNSCR =        1    unscreen: 0-lin 1-nonlin 2-no                           
   RPACOR =    2.000    partial core radius                                     
   POMASS =   58.690; ZVAL   =   10.000    mass and valenz                      
   RCORE  =    2.300    outmost cutoff radius                                   
   RWIGS  =    2.430; RWIGS  =    1.286    wigner-seitz radius (au A)           
   ENMAX  =  269.533; ENMIN  =  202.150 eV                                      
   RCLOC  =    1.681    cutoff for local pot                                    
   LCOR   =        T    correct aug charges                                     
   LPAW   =        T    paw PP                                                  
   EAUG   =  544.565                                                            
   DEXC   =    -.009                                                            
   RMAX   =    2.808    core radius for proj-oper                               
   RAUG   =    1.300    factor for augmentation sphere                          
   RDEP   =    2.390    radius for radial grids                                 
   QCUT   =   -4.451; QGAM   =    8.902    optimization parameters              
                                                                                
   Description                                                                  
     l     E      TYP  RCUT    TYP  RCUT                                        
     2   .000     23  2.300                                                     
     2   .000     23  2.300                                                     
     0   .000     23  2.300                                                     
     0   .000     23  2.300                                                     
     1  -.200     23  2.300                                                     
     1   .000     23  2.300                                                     
     3   .000      7   .000                                                     
  local pseudopotential read in
  partial core-charges read in
  atomic valenz-charges read in
  non local Contribution for L=           2  read in
    real space projection operators read in
  non local Contribution for L=           2  read in
    real space projection operators read in
  non local Contribution for L=           0  read in
    real space projection operators read in
  non local Contribution for L=           0  read in
    real space projection operators read in
  non local Contribution for L=           1  read in
    real space projection operators read in
  non local Contribution for L=           1  read in
    real space projection operators read in
    PAW grid and wavefunctions read in

   number of l-projection  operators is LMAX  =           6
   number of lm-projection operators is LMMAX =          18

 POTCAR:    PAW_PBE P 17Jan2003                   
   VRHFIN =P : s2p3                                                             
   LEXCH  = PE                                                                  
   EATOM  =   176.0430 eV,   12.9388 Ry                                         
                                                                                
   TITEL  = PAW_PBE P 17Jan2003                                                 
   LULTRA =        F    use ultrasoft PP ?                                      
   IUNSCR =        1    unscreen: 0-lin 1-nonlin 2-no                           
   RPACOR =    1.500    partial core radius                                     
   POMASS =   30.974; ZVAL   =    5.000    mass and valenz                      
   RCORE  =    1.900    outmost cutoff radius                                   
   RWIGS  =    2.330; RWIGS  =    1.233    wigner-seitz radius (au A)           
   ENMAX  =  270.000; ENMIN  =  191.280 eV                                      
   ICORE  =        2    local potential                                         
   LCOR   =        T    correct aug charges                                     
   LPAW   =        T    paw PP                                                  
   EAUG   =  342.924                                                            
   DEXC   =    -.002                                                            
   RMAX   =    2.887    core radius for proj-oper                               
   RAUG   =    1.300    factor for augmentation sphere                          
   RDEP   =    1.931    radius for radial grids                                 
   QCUT   =   -4.330; QGAM   =    8.659    optimization parameters              
                                                                                
   Description                                                                  
     l     E      TYP  RCUT    TYP  RCUT                                        
     0   .000     23  1.900                                                     
     0   .000     23  1.900                                                     
     1   .000     23  1.900                                                     
     1   .000     23  1.900                                                     
     2   .000     23  1.900                                                     
  local pseudopotential read in
  partial core-charges read in
  atomic valenz-charges read in
  non local Contribution for L=           0  read in
    real space projection operators read in
  non local Contribution for L=           0  read in
    real space projection operators read in
  non local Contribution for L=           1  read in
    real space projection operators read in
  non local Contribution for L=           1  read in
    real space projection operators read in
    PAW grid and wavefunctions read in

   number of l-projection  operators is LMAX  =           4
   number of lm-projection operators is LMMAX =           8

 POTCAR:    PAW_PBE S 17Jan2003                   
   VRHFIN =S : s2p4                                                             
   LEXCH  = PE                                                                  
   EATOM  =   276.8230 eV,   20.3459 Ry                                         
                                                                                
   TITEL  = PAW_PBE S 17Jan2003                                                 
   LULTRA =        F    use ultrasoft PP ?                                      
   IUNSCR =        1    unscreen: 0-lin 1-nonlin 2-no                           
   RPACOR =    1.500    partial core radius                                     
   POMASS =   32.066; ZVAL   =    6.000    mass and valenz                      
   RCORE  =    1.900    outmost cutoff radius                                   
   RWIGS  =    2.200; RWIGS  =    1.164    wigner-seitz radius (au A)           
   ENMAX  =  280.000; ENMIN  =  194.016 eV                                      
   ICORE  =        2    local potential                                         
   LCOR   =        T    correct aug charges                                     
   LPAW   =        T    paw PP                                                  
   EAUG   =  335.092                                                            
   DEXC   =     .000                                                            
   RMAX   =    2.867    core radius for proj-oper                               
   RAUG   =    1.300    factor for augmentation sphere                          
   RDEP   =    1.954    radius for radial grids                                 
   QCUT   =   -4.360; QGAM   =    8.721    optimization parameters              
                                                                                
   Description                                                                  
     l     E      TYP  RCUT    TYP  RCUT                                        
     0   .000     23  1.900                                                     
     0   .000     23  1.900                                                     
     1   .000     23  1.900                                                     
     1   .000     23  1.900                                                     
     2   .000     23  1.900                                                     
  local pseudopotential read in
  partial core-charges read in
  atomic valenz-charges read in
  non local Contribution for L=           0  read in
    real space projection operators read in
  non local Contribution for L=           0  read in
    real space projection operators read in
  non local Contribution for L=           1  read in
    real space projection operators read in
  non local Contribution for L=           1  read in
    real space projection operators read in
    PAW grid and wavefunctions read in

   number of l-projection  operators is LMAX  =           4
   number of lm-projection operators is LMMAX =           8

 Optimization of the real space projectors (new method)

 maximal supplied QI-value         = 16.25
 optimisation between [QCUT,QGAM] = [ 11.54, 23.24] = [ 37.28,151.24] Ry 
 Optimized for a Real-space Cutoff    1.49 Angstroem

   l    n(q)    QCUT    max X(q) W(low)/X(q) W(high)/X(q)  e(spline) 
   2      9    11.539     4.811    0.20E-04    0.14E-04    0.45E-07
   2      9    11.539    15.146    0.24E-03    0.12E-03    0.20E-06
   0     10    11.539    14.357    0.18E-04    0.12E-05    0.14E-07
   0     10    11.539    43.282    0.39E-04    0.17E-04    0.23E-06
   1     10    11.539     5.514    0.99E-05    0.13E-04    0.19E-07
   1     10    11.539     7.697    0.38E-04    0.79E-04    0.91E-07
 Optimization of the real space projectors (new method)

 maximal supplied QI-value         = 19.84
 optimisation between [QCUT,QGAM] = [ 11.51, 23.22] = [ 37.09,150.92] Ry 
 Optimized for a Real-space Cutoff    1.21 Angstroem

   l    n(q)    QCUT    max X(q) W(low)/X(q) W(high)/X(q)  e(spline) 
   0      8    11.508     6.651    0.19E-04    0.31E-05    0.49E-08
   0      8    11.508    90.285    0.95E-04    0.17E-03    0.51E-07
   1      8    11.508     4.328    0.14E-04    0.32E-04    0.22E-07
   1      8    11.508    54.583    0.16E-03    0.71E-04    0.89E-07
 Optimization of the real space projectors (new method)

 maximal supplied QI-value         = 19.84
 optimisation between [QCUT,QGAM] = [ 11.51, 23.22] = [ 37.09,150.92] Ry 
 Optimized for a Real-space Cutoff    1.21 Angstroem

   l    n(q)    QCUT    max X(q) W(low)/X(q) W(high)/X(q)  e(spline) 
   0      8    11.508     5.487    0.18E-04    0.22E-05    0.47E-08
   0      8    11.508    85.627    0.96E-04    0.18E-03    0.54E-07
   1      8    11.508     3.530    0.17E-04    0.28E-04    0.21E-07
   1      8    11.508    42.714    0.18E-03    0.63E-04    0.92E-07

 ----------------------------------------------------------------------------- 
|                                                                             |
|  ADVICE TO THIS USER RUNNING 'VASP/VAMP'   (HEAR YOUR MASTER'S VOICE ...):  |
|                                                                             |
|      You enforced a specific xc-type in the INCAR file,                     |
|      a different type was found on the POTCAR file                          |
|          I HOPE YOU KNOW, WHAT YOU ARE  DOING                               |
|                                                                             |
 ----------------------------------------------------------------------------- 

 PAW_PBE Ni 06Sep2000                   :
 energy of atom  1       EATOM=-1077.9025
 kinetic energy error for atom=    0.0030 (will be added to EATOM!!)
  PAW_PBE P 17Jan2003                   :
 energy of atom  2       EATOM= -176.0430
 kinetic energy error for atom=    0.0011 (will be added to EATOM!!)
  PAW_PBE S 17Jan2003                   :
 energy of atom  3       EATOM= -276.8230
 kinetic energy error for atom=    0.0016 (will be added to EATOM!!)


 POSCAR: Ni2 P2 S6                               
  positions in direct lattice
  velocities in cartesian coordinates
  No initial velocities read in
 exchange correlation table for  LEXCH =       42
   RHO(1)=    0.500       N(1)  =     2000
   RHO(2)=  100.500       N(2)  =     4000



--------------------------------------------------------------------------------------------------------


 ion  position               nearest neighbor table
   1  0.333  0.333  0.500-   6 2.78   5 2.78   7 2.78   8 2.78  10 2.78   9 2.78
   2  0.667  0.667  0.500-   9 2.78   8 2.78  10 2.78   5 2.78   7 2.78   6 2.78
   3  0.000  0.000  0.448-   4 2.43   8 2.63  10 2.63   9 2.63
   4  0.000  0.000  0.552-   3 2.43   5 2.63   7 2.63   6 2.63
   5  0.626  0.000  0.574-   4 2.63   1 2.78   2 2.78
   6  0.000  0.373  0.574-   4 2.63   1 2.78   2 2.78
   7  0.373  0.626  0.574-   4 2.63   1 2.78   2 2.78
   8  0.374  1.000  0.426-   3 2.63   2 2.78   1 2.78
   9  1.000  0.627  0.426-   3 2.63   2 2.78   1 2.78
  10  0.627  0.374  0.426-   3 2.63   2 2.78   1 2.78

  LATTYP: Found a hexagonal cell.
 ALAT       =     6.9077769333
 C/A-ratio  =     3.3939410937
  
  Lattice vectors:
  
 A1 = (   3.4538890000,  -5.9823100000,   0.0000000000)
 A2 = (  -6.9077770000,   0.0000000000,   0.0000000000)
 A3 = (   0.0000000000,   0.0000000000, -23.4445880000)


Analysis of symmetry for initial positions (statically):
=====================================================================
 Subroutine PRICEL returns:
 Original cell was already a primitive cell.
 

 Routine SETGRP: Setting up the symmetry group for a 
 hexagonal supercell.


 Subroutine GETGRP returns: Found  6 space group operations
 (whereof  6 operations were pure point group operations)
 out of a pool of 24 trial point group operations.


The static configuration has the point symmetry S_6 .


Analysis of symmetry for dynamics (positions and initial velocities):
=====================================================================
 Subroutine PRICEL returns:
 Original cell was already a primitive cell.
 

 Routine SETGRP: Setting up the symmetry group for a 
 hexagonal supercell.


 Subroutine GETGRP returns: Found  6 space group operations
 (whereof  6 operations were pure point group operations)
 out of a pool of 24 trial point group operations.


The dynamic configuration has the point symmetry S_6 .


Analysis of constrained symmetry for selective dynamics:
=====================================================================
 Subroutine PRICEL returns:
 Original cell was already a primitive cell.
 

 Routine SETGRP: Setting up the symmetry group for a 
 hexagonal supercell.


 Subroutine GETGRP returns: Found  6 space group operations
 (whereof  6 operations were pure point group operations)
 out of a pool of 24 trial point group operations.


The constrained configuration has the point symmetry S_6 .


Analysis of structural, dynamic, and magnetic symmetry:
=====================================================================
 Subroutine PRICEL returns:
 Original cell was already a primitive cell.
 

 Routine SETGRP: Setting up the symmetry group for a 
 hexagonal supercell.


 Subroutine GETGRP returns: Found  6 space group operations
 (whereof  6 operations were pure point group operations)
 out of a pool of 24 trial point group operations.


The magnetic configuration has the point symmetry S_6 .


 Subroutine INISYM returns: Found  6 space group operations
 (whereof  6 operations are pure point group operations),
 and found     1 'primitive' translations



 KPOINTS: Kpoints from vasprun.xml                

Automatic generation of k-mesh.
Space group operators:
 irot       det(A)        alpha          n_x          n_y          n_z        tau_x        tau_y        tau_z
    1     1.000000     0.000000     1.000000     0.000000     0.000000     0.000000     0.000000     0.000000
    2    -1.000000     0.000000     1.000000     0.000000     0.000000     0.000000     0.000000     0.000000
    3     1.000000   120.000000     0.000000     0.000000     1.000000     0.000000     0.000000     0.000000
    4    -1.000000   120.000000     0.000000     0.000000     1.000000     0.000000     0.000000     0.000000
    5     1.000000   120.000000     0.000000     0.000000    -1.000000     0.000000     0.000000     0.000000
    6    -1.000000   120.000000     0.000000     0.000000    -1.000000     0.000000     0.000000     0.000000
 
 Subroutine IBZKPT returns following result:
 ===========================================
 
 Found      5 irreducible k-points:
 
 Following reciprocal coordinates:
            Coordinates               Weight
  0.000000  0.000000  0.000000      1.000000
  0.200000  0.000000  0.000000      6.000000
  0.400000  0.000000  0.000000      6.000000
  0.400000  0.200000  0.000000      6.000000
 -0.400000  0.200000  0.000000      6.000000
 
 Following cartesian coordinates:
            Coordinates               Weight
  0.000000  0.000000  0.000000      1.000000
  0.028953 -0.016716  0.000000      6.000000
  0.057906 -0.033432  0.000000      6.000000
  0.057906  0.000000  0.000000      6.000000
 -0.057906  0.066864  0.000000      6.000000
 
 TETIRR: Found     15 inequivalent tetrahedra from      150


--------------------------------------------------------------------------------------------------------




 Dimension of arrays:
   k-points           NKPTS =      5   k-points in BZ     NKDIM =      5   number of bands    NBANDS=     48
   number of dos      NEDOS =    301   number of ions     NIONS =     10
   non local maximal  LDIM  =      6   non local SUM 2l+1 LMDIM =     18
   total plane-waves  NPLWV = 524880
   max r-space proj   IRMAX =   7543   max aug-charges    IRDMAX=  17759
   dimension x,y,z NGX =    54 NGY =   54 NGZ =  180
   dimension x,y,z NGXF=   108 NGYF=  108 NGZF=  360
   support grid    NGXF=   108 NGYF=  108 NGZF=  360
   ions per type =               2   2   6
   NGX,Y,Z   is equivalent  to a cutoff of  13.00, 13.00, 12.76 a.u.
   NGXF,Y,Z  is equivalent  to a cutoff of  25.99, 25.99, 25.53 a.u.

 SYSTEM =  unknown system                          
 POSCAR =  Ni2 P2 S6                               

 Startparameter for this run:
   NWRITE =      2    write-flag & timer
   PREC   = accura    normal or accurate (medium, high low for compatibility)
   ISTART =      0    job   : 0-new  1-cont  2-samecut
   ICHARG =      2    charge: 1-file 2-atom 10-const
   ISPIN  =      2    spin polarized calculation?
   LNONCOLLINEAR =      F non collinear calculations
   LSORBIT =      F    spin-orbit coupling
   INIWAV =      1    electr: 0-lowe 1-rand  2-diag
   LASPH  =      F    aspherical Exc in radial PAW
   METAGGA=      F    non-selfconsistent MetaGGA calc.

 Electronic Relaxation 1
   ENCUT  =  520.0 eV  38.22 Ry    6.18 a.u.  12.84 12.84 43.59*2*pi/ulx,y,z
   ENINI  =  520.0     initial cutoff
   ENAUG  =  544.6 eV  augmentation charge cutoff
   NELM   =    400;   NELMIN=  2; NELMDL=  0     # of ELM steps 
   EDIFF  = 0.1E-03   stopping-criterion for ELM
   LREAL  =      T    real-space projection
   NLSPLINE    = F    spline interpolate recip. space projectors
   LCOMPAT=      F    compatible to vasp.4.4
   GGA_COMPAT  = T    GGA compatible to vasp.4.4-vasp.4.6
   LMAXPAW     = -100 max onsite density
   LMAXMIX     =    2 max onsite mixed and CHGCAR
   VOSKOWN=      0    Vosko Wilk Nusair interpolation
   ROPT   =   -0.00025  -0.00025  -0.00025
 Ionic relaxation
   EDIFFG = 0.1E-02   stopping-criterion for IOM
   NSW    =     99    number of steps for IOM
   NBLOCK =      1;   KBLOCK =     99    inner block; outer block 
   IBRION =      2    ionic relax: 0-MD 1-quasi-New 2-CG
   NFREE  =      1    steps in history (QN), initial steepest desc. (CG)
   ISIF   =      3    stress and relaxation
   IWAVPR =     11    prediction:  0-non 1-charg 2-wave 3-comb
   ISYM   =      2    0-nonsym 1-usesym 2-fastsym
   LCORR  =      T    Harris-Foulkes like correction to forces

   POTIM  = 0.5000    time-step for ionic-motion
   TEIN   =    0.0    initial temperature
   TEBEG  =    0.0;   TEEND  =   0.0 temperature during run
   SMASS  =  -3.00    Nose mass-parameter (am)
   estimated Nose-frequenzy (Omega)   =  0.10E-29 period in steps =****** mass=  -0.109E-26a.u.
   SCALEE = 1.0000    scale energy and forces
   NPACO  =    256;   APACO  = 16.0  distance and # of slots for P.C.
   PSTRESS=    0.0 pullay stress

  Mass of Ions in am
   POMASS =  58.69 30.97 32.07
  Ionic Valenz
   ZVAL   =  10.00  5.00  6.00
  Atomic Wigner-Seitz radii
   RWIGS  =  -1.00 -1.00 -1.00
  virtual crystal weights 
   VCA    =   1.00  1.00  1.00
   NELECT =      66.0000    total number of electrons
   NUPDOWN=      -1.0000    fix difference up-down

 DOS related values:
   EMIN   =  10.00;   EMAX   =-10.00  energy-range for DOS
   EFERMI =   0.00
   ISMEAR =    -5;   SIGMA  =   0.05  broadening in eV -4-tet -1-fermi 0-gaus

 Electronic relaxation 2 (details)
   IALGO  =     38    algorithm
   LDIAG  =      T    sub-space diagonalisation (order eigenvalues)
   LSUBROT=      F    optimize rotation matrix (better conditioning)
   TURBO    =      0    0=normal 1=particle mesh
   IRESTART =      0    0=no restart 2=restart with 2 vectors
   NREBOOT  =      0    no. of reboots
   NMIN     =      0    reboot dimension
   EREF     =   0.00    reference energy to select bands
   IMIX   =      4    mixing-type and parameters
     AMIX     =   0.40;   BMIX     =  1.00
     AMIX_MAG =   1.60;   BMIX_MAG =  1.00
     AMIN     =   0.01
     WC   =   100.;   INIMIX=   1;  MIXPRE=   1;  MAXMIX= -45

 Intra band minimization:
   WEIMIN = 0.0010     energy-eigenvalue tresh-hold
   EBREAK =  0.52E-06  absolut break condition
   DEPER  =   0.30     relativ break condition  

   TIME   =   0.40     timestep for ELM

  volume/ion in A,a.u.               =      96.88       653.80
  Fermi-wavevector in a.u.,A,eV,Ry     =   0.668610  1.263490  6.082339  0.447039
  Thomas-Fermi vector in A             =   1.743574

 Write flags
   LWAVE        =      F    write WAVECAR
   LDOWNSAMPLE  =      F    k-point downsampling of WAVECAR
   LCHARG       =      T    write CHGCAR
   LVTOT        =      F    write LOCPOT, total local potential
   LVHAR        =      F    write LOCPOT, Hartree potential only
   LELF         =      F    write electronic localiz. function (ELF)
   LORBIT       =     11    0 simple, 1 ext, 2 COOP (PROOUT), +10 PAW based schemes


 Dipole corrections
   LMONO  =      F    monopole corrections only (constant potential shift)
   LDIPOL =      F    correct potential (dipole corrections)
   IDIPOL =      0    1-x, 2-y, 3-z, 4-all directions 
   EPSILON=  1.0000000 bulk dielectric constant

 Exchange correlation treatment:
   GGA     =    BO    GGA type
   LEXCH   =    42    internal setting for exchange type
   VOSKOWN=      0    Vosko Wilk Nusair interpolation
   LHFCALC =     F    Hartree Fock is set to
   LHFONE  =     F    Hartree Fock one center treatment
   AEXX    =    0.0000 exact exchange contribution

 vdW DFT:
   LUSE_VDW   =     T    switch on vdW DFT
   Zab_VDW    =-.8491    correlation parameter
   PARAM1     =0.1833
   PARAM2     =0.2200
   PARAM3     =0.0000
   -- rVV10 --
   BPARAM     = 6.3000
   CPARAM     = 0.0093

 Linear response parameters
   LEPSILON=     F    determine dielectric tensor
   LRPA    =     F    only Hartree local field effects (RPA)
   LNABLA  =     F    use nabla operator in PAW spheres
   LVEL    =     F    velocity operator in full k-point grid
   LINTERFAST=   F  fast interpolation
   KINTER  =     0    interpolate to denser k-point grid
   CSHIFT  =0.1000    complex shift for real part using Kramers Kronig
   OMEGAMAX=  -1.0    maximum frequency
   DEG_THRESHOLD= 0.2000000E-02 threshold for treating states as degnerate
   RTIME   =   -0.100 relaxation time in fs
  (WPLASMAI=    0.000 imaginary part of plasma frequency in eV, 0.658/RTIME)
   DFIELD  = 0.0000000 0.0000000 0.0000000 field for delta impulse in time

 Orbital magnetization related:
   ORBITALMAG=     F  switch on orbital magnetization
   LCHIMAG   =     F  perturbation theory with respect to B field
   DQ        =  0.001000  dq finite difference perturbation B field
   LLRAUG    =     F  two centre corrections for induced B field



--------------------------------------------------------------------------------------------------------


 conjugate gradient relaxation of ions
   using selective dynamics as specified on POSCAR
 charge density and potential will be updated during run
 spin polarized calculation
 Variant of blocked Davidson
 Davidson routine will perform the subspace rotation
 perform sub-space diagonalisation
    after iterative eigenvector-optimisation
 modified Broyden-mixing scheme, WC =      100.0
 initial mixing is a Kerker type mixing with AMIX =  0.4000 and BMIX =      1.0000
 Hartree-type preconditioning will be used
 using additional bands           15
 real space projection scheme for non local part
 use partial core corrections
 calculate Harris-corrections to forces   (improved forces if not selfconsistent)
 use gradient corrections 
 use of overlap-Matrix (Vanderbilt PP)
 Fermi weights with tetrahedron method with Bloechl corrections


--------------------------------------------------------------------------------------------------------


  energy-cutoff  :      520.00
  volume of cell :      968.84
      direct lattice vectors                 reciprocal lattice vectors
     6.907777000 -0.000000000  0.000000000     0.144764372 -0.083579742  0.000000000
     3.453888000  5.982310000  0.000000000     0.000000000  0.167159509 -0.000000000
     0.000000000  0.000000000 23.444588000    -0.000000000  0.000000000  0.042653767

  length of vectors
     6.907777000  6.907776433 23.444588000     0.167159495  0.167159509  0.042653767



 k-points in units of 2pi/SCALE and weight: Kpoints from vasprun.xml                
   0.00000000  0.00000000  0.00000000       0.040
   0.02895287 -0.01671595  0.00000000       0.240
   0.05790575 -0.03343190  0.00000000       0.240
   0.05790575  0.00000000  0.00000000       0.240
  -0.05790575  0.06686380  0.00000000       0.240

 k-points in reciprocal lattice and weights: Kpoints from vasprun.xml                
   0.00000000  0.00000000  0.00000000       0.040
   0.20000000  0.00000000  0.00000000       0.240
   0.40000000  0.00000000  0.00000000       0.240
   0.40000000  0.20000000  0.00000000       0.240
  -0.40000000  0.20000000  0.00000000       0.240

 position of ions in fractional coordinates (direct lattice) 
   0.33333300  0.33333300  0.49992500
   0.66666700  0.66666700  0.50007500
   0.00000000  0.00000000  0.44821600
   0.00000000  0.00000000  0.55178400
   0.62635700  0.00042000  0.57375200
   0.00042000  0.37322400  0.57375200
   0.37322400  0.62635700  0.57375200
   0.37364300  0.99958000  0.42624800
   0.99958000  0.62677600  0.42624800
   0.62677600  0.37364300  0.42624800

 position of ions in cartesian coordinates  (Angst):
   3.45388488  1.99410134 11.72053566
   6.90778012  3.98820866 11.72405234
   0.00000000  0.00000000 10.50823946
   0.00000000  0.00000000 12.93634854
   4.32818511  0.00251257 13.45137925
   1.29197516  2.23274167 13.45137925
   4.74151509  3.74706174 13.45137925
   6.03347989  5.97979743  9.99320875
   9.06968984  3.74956833  9.99320875
   5.62014991  2.23524826  9.99320875



--------------------------------------------------------------------------------------------------------


 k-point  1 :   0.0000 0.0000 0.0000  plane waves:   26073
 k-point  2 :   0.2000 0.0000 0.0000  plane waves:   26070
 k-point  3 :   0.4000 0.0000 0.0000  plane waves:   26086
 k-point  4 :   0.4000 0.2000 0.0000  plane waves:   26085
 k-point  5 :  -0.4000 0.2000 0.0000  plane waves:   26115

 maximum and minimum number of plane-waves per node :     26115    26070

 maximum number of plane-waves:     26115
 maximum index in each direction: 
   IXMAX=   13   IYMAX=   12   IZMAX=   43
   IXMIN=  -13   IYMIN=  -13   IZMIN=  -43


 serial   3D FFT for wavefunctions
 parallel 3D FFT for charge:
    minimum data exchange during FFTs selected (reduces bandwidth)


 total amount of memory used by VASP MPI-rank0   126065. kBytes
=======================================================================

   base      :      30000. kBytes
   nonlr-proj:       5770. kBytes
   fftplans  :      11247. kBytes
   grid      :      66142. kBytes
   one-center:        311. kBytes
   wavefun   :      12595. kBytes

     INWAV:  cpu time    0.0000: real time    0.0004
 Broyden mixing: mesh for mixing (old mesh)
   NGX = 25   NGY = 25   NGZ = 87
  (NGX  =108   NGY  =108   NGZ  =360)
  gives a total of  54375 points

 initial charge density was supplied:
 charge density of overlapping atoms calculated
 number of electron      66.0000000 magnetization       7.3200000
 keeping initial charge density in first step


--------------------------------------------------------------------------------------------------------


 Maximum index for non-local projection operator         7247
 Maximum index for augmentation-charges         1209 (set IRDMAX)


--------------------------------------------------------------------------------------------------------


 First call to EWALD:  gamma=   0.179
 Maximum number of real-space cells 4x 4x 1
 Maximum number of reciprocal cells 2x 2x 6

    FEWALD:  cpu time    0.0040: real time    0.0015


--------------------------------------- Iteration      1(   1)  ---------------------------------------


vdW kernel read from vdw_kernel.bindat
  0.0000  0.2424  0.5071  0.7962  1.1119  1.4567  1.8333  2.2446  2.6937  3.1842
  3.7199  4.3049  4.9438  5.6415  6.4036  7.2358  8.1446  9.1372 10.2212 11.4050
 12.6979 14.1099 15.6519 17.3360 19.1751 21.1837 23.3773 25.7729 28.3892 31.2465
 34.3669 37.7748 41.4965 45.5611 50.0000

    POTLOK:  cpu time   52.8440: real time   53.0735
    SETDIJ:  cpu time    0.0360: real time    0.0381
     EDDAV:  cpu time   22.3080: real time   22.4845
 BZINTS: Fermi energy:  4.738262; 66.000000 electrons
         Band energy: -43.011632;  BLOECHL correction: -0.016903
       DOS:  cpu time    0.0040: real time    0.0046
    --------------------------------------------
      LOOP:  cpu time   75.1920: real time   75.6007

 eigenvalue-minimisations  :   960
 total energy-change (2. order) : 0.4359344E+03  (-0.2050881E+04)
 number of electron      66.0000000 magnetization       7.3200000
 augmentation part       66.0000000 magnetization       7.3200000

 Free energy of the ion-electron system (eV)
  ---------------------------------------------------
  alpha Z        PSCENC =        26.75080663
  Ewald energy   TEWEN  =      8617.63405943
  -Hartree energ DENC   =    -12388.72010489
  -exchange      EXHF   =         0.00000000
  -V(xc)+E(xc)   XCENC  =       132.56608498
  PAW double counting   =      2431.14985990    -2524.58302600
  entropy T*S    EENTRO =         0.00000000
  eigenvalues    EBANDS =       -43.01163221
  atomic energy  EATOM  =      4184.14832191
  Solvation  Ediel_sol  =         0.00000000
  ---------------------------------------------------
  free energy    TOTEN  =       435.93436975 eV

  energy without entropy =      435.93436975  energy(sigma->0) =      435.93436975


--------------------------------------------------------------------------------------------------------




--------------------------------------- Iteration      1(   2)  ---------------------------------------


     EDDAV:  cpu time   32.5520: real time   32.6025
 BZINTS: Fermi energy: -2.156280; 66.000000 electrons
         Band energy:-440.737397;  BLOECHL correction: -0.030620
       DOS:  cpu time    0.0040: real time    0.0051
    --------------------------------------------
      LOOP:  cpu time   32.5560: real time   32.6076

 eigenvalue-minimisations  :  1440
 total energy-change (2. order) :-0.3977258E+03  (-0.3736676E+03)
 number of electron      66.0000000 magnetization       7.3200000
 augmentation part       66.0000000 magnetization       7.3200000

 Free energy of the ion-electron system (eV)
  ---------------------------------------------------
  alpha Z        PSCENC =        26.75080663
  Ewald energy   TEWEN  =      8617.63405943
  -Hartree energ DENC   =    -12388.72010489
  -exchange      EXHF   =         0.00000000
  -V(xc)+E(xc)   XCENC  =       132.56608498
  PAW double counting   =      2431.14985990    -2524.58302600
  entropy T*S    EENTRO =         0.00000000
  eigenvalues    EBANDS =      -440.73739717
  atomic energy  EATOM  =      4184.14832191
  Solvation  Ediel_sol  =         0.00000000
  ---------------------------------------------------
  free energy    TOTEN  =        38.20860479 eV

  energy without entropy =       38.20860479  energy(sigma->0) =       38.20860479


--------------------------------------------------------------------------------------------------------




--------------------------------------- Iteration      1(   3)  ---------------------------------------


     EDDAV:  cpu time   28.5680: real time   28.6357
 BZINTS: Fermi energy: -2.802317; 66.000000 electrons
         Band energy:-518.605300;  BLOECHL correction:  0.000000
       DOS:  cpu time    0.0000: real time    0.0012
    --------------------------------------------
      LOOP:  cpu time   28.5680: real time   28.6369

 eigenvalue-minimisations  :  1248
 total energy-change (2. order) :-0.7786790E+02  (-0.7453900E+02)
 number of electron      66.0000000 magnetization       7.3200000
 augmentation part       66.0000000 magnetization       7.3200000

 Free energy of the ion-electron system (eV)
  ---------------------------------------------------
  alpha Z        PSCENC =        26.75080663
  Ewald energy   TEWEN  =      8617.63405943
  -Hartree energ DENC   =    -12388.72010489
  -exchange      EXHF   =         0.00000000
  -V(xc)+E(xc)   XCENC  =       132.56608498
  PAW double counting   =      2431.14985990    -2524.58302600
  entropy T*S    EENTRO =         0.00000000
  eigenvalues    EBANDS =      -518.60530016
  atomic energy  EATOM  =      4184.14832191
  Solvation  Ediel_sol  =         0.00000000
  ---------------------------------------------------
  free energy    TOTEN  =       -39.65929819 eV

  energy without entropy =      -39.65929819  energy(sigma->0) =      -39.65929819


--------------------------------------------------------------------------------------------------------




--------------------------------------- Iteration      1(   4)  ---------------------------------------


     EDDAV:  cpu time   24.8560: real time   25.4089
 BZINTS: Fermi energy: -2.826645; 66.000000 electrons
         Band energy:-521.506423;  BLOECHL correction:  0.000000
       DOS:  cpu time    0.0000: real time    0.0037
    --------------------------------------------
      LOOP:  cpu time   24.8560: real time   25.4126

 eigenvalue-minimisations  :  1104
 total energy-change (2. order) :-0.2901123E+01  (-0.2883784E+01)
 number of electron      66.0000000 magnetization       7.3200000
 augmentation part       66.0000000 magnetization       7.3200000

 Free energy of the ion-electron system (eV)
  ---------------------------------------------------
  alpha Z        PSCENC =        26.75080663
  Ewald energy   TEWEN  =      8617.63405943
  -Hartree energ DENC   =    -12388.72010489
  -exchange      EXHF   =         0.00000000
  -V(xc)+E(xc)   XCENC  =       132.56608498
  PAW double counting   =      2431.14985990    -2524.58302600
  entropy T*S    EENTRO =         0.00000000
  eigenvalues    EBANDS =      -521.50642291
  atomic energy  EATOM  =      4184.14832191
  Solvation  Ediel_sol  =         0.00000000
  ---------------------------------------------------
  free energy    TOTEN  =       -42.56042094 eV

  energy without entropy =      -42.56042094  energy(sigma->0) =      -42.56042094


--------------------------------------------------------------------------------------------------------




--------------------------------------- Iteration      1(   5)  ---------------------------------------


     EDDAV:  cpu time   31.7160: real time   31.9973
 BZINTS: Fermi energy: -2.810128; 66.000000 electrons
         Band energy:-521.594537;  BLOECHL correction:  0.000000
       DOS:  cpu time    0.0040: real time    0.0040
    CHARGE:  cpu time    2.1200: real time    2.1211
    MIXING:  cpu time    0.0440: real time    0.0435
    --------------------------------------------
      LOOP:  cpu time   33.8840: real time   34.1659

 eigenvalue-minimisations  :  1424
 total energy-change (2. order) :-0.8811380E-01  (-0.8809800E-01)
 number of electron      65.9999991 magnetization       7.3929087
 augmentation part        2.1156448 magnetization       4.6402556

 Broyden mixing:
  rms(total) = 0.40711E+01    rms(broyden)= 0.40710E+01
  rms(prec ) = 0.43211E+01
  weight for this iteration     100.00

 Free energy of the ion-electron system (eV)
  ---------------------------------------------------
  alpha Z        PSCENC =        26.75080663
  Ewald energy   TEWEN  =      8617.63405943
  -Hartree energ DENC   =    -12388.72010489
  -exchange      EXHF   =         0.00000000
  -V(xc)+E(xc)   XCENC  =       132.56608498
  PAW double counting   =      2431.14985990    -2524.58302600
  entropy T*S    EENTRO =         0.00000000
  eigenvalues    EBANDS =      -521.59453670
  atomic energy  EATOM  =      4184.14832191
  Solvation  Ediel_sol  =         0.00000000
  ---------------------------------------------------
  free energy    TOTEN  =       -42.64853474 eV

  energy without entropy =      -42.64853474  energy(sigma->0) =      -42.64853474


--------------------------------------------------------------------------------------------------------




--------------------------------------- Iteration      1(   6)  ---------------------------------------


    POTLOK:  cpu time   51.9520: real time   52.4414
    SETDIJ:  cpu time    0.0440: real time    0.0422
     EDDAV:  cpu time   27.4040: real time   29.6465
 BZINTS: Fermi energy: -4.257155; 66.000000 electrons
         Band energy:-792.965415;  BLOECHL correction: -0.022835
       DOS:  cpu time    0.0080: real time    0.0068
    CHARGE:  cpu time    1.9880: real time    2.2197
    MIXING:  cpu time    0.0640: real time    0.0647
    --------------------------------------------
      LOOP:  cpu time   81.4600: real time   84.4212

 eigenvalue-minimisations  :  1312
 total energy-change (2. order) :-0.5052661E+02  (-0.5784756E+02)
 number of electron      65.9999990 magnetization       7.0608136
 augmentation part       10.5761803 magnetization       7.5238457

 Broyden mixing:
  rms(total) = 0.61375E+01    rms(broyden)= 0.61374E+01
  rms(prec ) = 0.63746E+01
  weight for this iteration     100.00

 eigenvalues of (default mixing * dielectric matrix)
  average eigenvalue GAMMA=   0.3717
  0.3717

 Free energy of the ion-electron system (eV)
  ---------------------------------------------------
  alpha Z        PSCENC =        26.75080663
  Ewald energy   TEWEN  =      8617.63405943
  -Hartree energ DENC   =    -12201.90549560
  -exchange      EXHF   =         0.00000000
  -V(xc)+E(xc)   XCENC  =       133.58348857
  PAW double counting   =      2107.31190590    -2167.73282037
  entropy T*S    EENTRO =         0.00000000
  eigenvalues    EBANDS =      -792.96541500
  atomic energy  EATOM  =      4184.14832191
  Solvation  Ediel_sol  =         0.00000000
  ---------------------------------------------------
  free energy    TOTEN  =       -93.17514853 eV

  energy without entropy =      -93.17514853  energy(sigma->0) =      -93.17514853


--------------------------------------------------------------------------------------------------------




--------------------------------------- Iteration      1(   7)  ---------------------------------------


    POTLOK:  cpu time   52.0680: real time   52.5499
    SETDIJ:  cpu time    0.0360: real time    0.0366
     EDDAV:  cpu time   25.8760: real time   26.0268
 BZINTS: Fermi energy: -4.598236; 66.000000 electrons
         Band energy:-631.710308;  BLOECHL correction: -0.021035
       DOS:  cpu time    0.0040: real time    0.0069
    CHARGE:  cpu time    2.1560: real time    2.2116
    MIXING:  cpu time    0.0400: real time    0.0420
    --------------------------------------------
      LOOP:  cpu time   80.1800: real time   80.8740

 eigenvalue-minimisations  :  1136
 total energy-change (2. order) : 0.4441481E+02  (-0.6472164E+01)
 number of electron      65.9999990 magnetization       6.9132045
 augmentation part        9.6098269 magnetization       4.9918437

 Broyden mixing:
  rms(total) = 0.32541E+01    rms(broyden)= 0.32541E+01
  rms(prec ) = 0.34491E+01
  weight for this iteration     100.00

 eigenvalues of (default mixing * dielectric matrix)
  average eigenvalue GAMMA=   0.4533
  0.4533  0.4533

 Free energy of the ion-electron system (eV)
  ---------------------------------------------------
  alpha Z        PSCENC =        26.75080663
  Ewald energy   TEWEN  =      8617.63405943
  -Hartree energ DENC   =    -12289.57340665
  -exchange      EXHF   =         0.00000000
  -V(xc)+E(xc)   XCENC  =       130.99742601
  PAW double counting   =      2267.61136745    -2354.61860450
  entropy T*S    EENTRO =         0.00000000
  eigenvalues    EBANDS =      -631.71030757
  atomic energy  EATOM  =      4184.14832191
  Solvation  Ediel_sol  =         0.00000000
  ---------------------------------------------------
  free energy    TOTEN  =       -48.76033729 eV

  energy without entropy =      -48.76033729  energy(sigma->0) =      -48.76033729


--------------------------------------------------------------------------------------------------------




--------------------------------------- Iteration      1(   8)  ---------------------------------------


    POTLOK:  cpu time   51.2080: real time   51.6643
    SETDIJ:  cpu time    0.0360: real time    0.0380
     EDDAV:  cpu time   28.0120: real time   28.0758
 BZINTS: Fermi energy: -4.538884; 66.000000 electrons
         Band energy:-573.079096;  BLOECHL correction: -0.023939
       DOS:  cpu time    0.0040: real time    0.0067
    CHARGE:  cpu time    2.0800: real time    2.1386
    MIXING:  cpu time    0.0440: real time    0.0409
    --------------------------------------------
      LOOP:  cpu time   81.3840: real time   81.9643

 eigenvalue-minimisations  :  1248
 total energy-change (2. order) : 0.1179497E+02  (-0.1428034E+01)
 number of electron      65.9999990 magnetization       6.7888479
 augmentation part        8.3871834 magnetization       3.9436722

 Broyden mixing:
  rms(total) = 0.19329E+01    rms(broyden)= 0.19328E+01
  rms(prec ) = 0.20467E+01
  weight for this iteration     100.00

 eigenvalues of (default mixing * dielectric matrix)
  average eigenvalue GAMMA=   0.4977
  0.5410  0.5410  0.4110

 Free energy of the ion-electron system (eV)
  ---------------------------------------------------
  alpha Z        PSCENC =        26.75080663
  Ewald energy   TEWEN  =      8617.63405943
  -Hartree energ DENC   =    -12329.87999671
  -exchange      EXHF   =         0.00000000
  -V(xc)+E(xc)   XCENC  =       131.67049919
  PAW double counting   =      2336.72557235    -2430.93553858
  entropy T*S    EENTRO =         0.00000000
  eigenvalues    EBANDS =      -573.07909609
  atomic energy  EATOM  =      4184.14832191
  Solvation  Ediel_sol  =         0.00000000
  ---------------------------------------------------
  free energy    TOTEN  =       -36.96537187 eV

  energy without entropy =      -36.96537187  energy(sigma->0) =      -36.96537187


--------------------------------------------------------------------------------------------------------




--------------------------------------- Iteration      1(   9)  ---------------------------------------


    POTLOK:  cpu time   50.7880: real time   50.9916
    SETDIJ:  cpu time    0.0400: real time    0.0366
     EDDAV:  cpu time   31.0200: real time   31.2745
 BZINTS: Fermi energy: -4.343655; 66.024757 electrons
         Band energy:-547.071302;  BLOECHL correction: -0.002817
       DOS:  cpu time    0.0080: real time    0.0096
    CHARGE:  cpu time    2.1320: real time    2.1443
    MIXING:  cpu time    0.0400: real time    0.0416
    --------------------------------------------
      LOOP:  cpu time   84.0280: real time   84.4982

 eigenvalue-minimisations  :  1408
 total energy-change (2. order) : 0.2239614E+01  (-0.4401406E+00)
 number of electron      66.0247558 magnetization       6.7253732
 augmentation part        6.6691064 magnetization       4.4054132

 Broyden mixing:
  rms(total) = 0.44911E+00    rms(broyden)= 0.44793E+00
  rms(prec ) = 0.46326E+00
  weight for this iteration     100.00

 eigenvalues of (default mixing * dielectric matrix)
  average eigenvalue GAMMA=   0.4611
  0.5372  0.5372  0.3850  0.3850

 Free energy of the ion-electron system (eV)
  ---------------------------------------------------
  alpha Z        PSCENC =        26.75080663
  Ewald energy   TEWEN  =      8617.63405943
  -Hartree energ DENC   =    -12353.09633991
  -exchange      EXHF   =         0.00000000
  -V(xc)+E(xc)   XCENC  =       132.06227821
  PAW double counting   =      2379.85805131    -2475.01163286
  entropy T*S    EENTRO =         0.00000000
  eigenvalues    EBANDS =      -547.07130233
  atomic energy  EATOM  =      4184.14832191
  Solvation  Ediel_sol  =         0.00000000
  ---------------------------------------------------
  free energy    TOTEN  =       -34.72575760 eV

  energy without entropy =      -34.72575760  energy(sigma->0) =      -34.72575760


--------------------------------------------------------------------------------------------------------




--------------------------------------- Iteration      1(  10)  ---------------------------------------


    POTLOK:  cpu time   50.5920: real time   51.0096
    SETDIJ:  cpu time    0.0360: real time    0.0367
     EDDAV:  cpu time   27.8840: real time   28.3811
 BZINTS: Fermi energy: -4.657545; 66.000000 electrons
         Band energy:-587.341098;  BLOECHL correction: -0.005456
       DOS:  cpu time    0.0040: real time    0.0070
    CHARGE:  cpu time    2.1960: real time    2.1968
    MIXING:  cpu time    0.0440: real time    0.0427
    --------------------------------------------
      LOOP:  cpu time   80.7560: real time   81.6738

 eigenvalue-minimisations  :  1264
 total energy-change (2. order) :-0.3915438E+02  (-0.1345831E+00)
 number of electron      65.9999989 magnetization       6.7249823
 augmentation part        6.3859769 magnetization       8.1480026

 Broyden mixing:
  rms(total) = 0.18019E+01    rms(broyden)= 0.17922E+01
  rms(prec ) = 0.19763E+01
  weight for this iteration     100.00

 eigenvalues of (default mixing * dielectric matrix)
  average eigenvalue GAMMA=   0.3688
  0.5369  0.5369  0.3837  0.3837  0.0027

 Free energy of the ion-electron system (eV)
  ---------------------------------------------------
  alpha Z        PSCENC =        26.75080663
  Ewald energy   TEWEN  =      8617.63405943
  -Hartree energ DENC   =    -12352.11391853
  -exchange      EXHF   =         0.00000000
  -V(xc)+E(xc)   XCENC  =       132.03580805
  PAW double counting   =      2378.40069957    -2473.39481294
  entropy T*S    EENTRO =         0.00000000
  eigenvalues    EBANDS =      -587.34109835
  atomic energy  EATOM  =      4184.14832191
  Solvation  Ediel_sol  =         0.00000000
  ---------------------------------------------------
  free energy    TOTEN  =       -73.88013423 eV

  energy without entropy =      -73.88013423  energy(sigma->0) =      -73.88013423


--------------------------------------------------------------------------------------------------------




--------------------------------------- Iteration      1(  11)  ---------------------------------------


    POTLOK:  cpu time   50.7920: real time   51.2109
    SETDIJ:  cpu time    0.0360: real time    0.0362
     EDDAV:  cpu time   26.4160: real time   26.6424
 BZINTS: Fermi energy: -4.383314; 66.026102 electrons
         Band energy:-548.175569;  BLOECHL correction: -0.003050
       DOS:  cpu time    0.0080: real time    0.0091
    CHARGE:  cpu time    2.1320: real time    2.1400
    MIXING:  cpu time    0.0440: real time    0.0450
    --------------------------------------------
      LOOP:  cpu time   79.4280: real time   80.0835

 eigenvalue-minimisations  :  1184
 total energy-change (2. order) : 0.3935027E+02  (-0.8268936E+02)
 number of electron      66.0261010 magnetization       6.3688064
 augmentation part        6.6887582 magnetization       4.0074454

 Broyden mixing:
  rms(total) = 0.45536E+00    rms(broyden)= 0.43024E+00
  rms(prec ) = 0.44715E+00
  weight for this iteration     100.00

 eigenvalues of (default mixing * dielectric matrix)
  average eigenvalue GAMMA=   0.5830
  0.8350  0.8350  0.6716  0.6716  0.4842  0.0008

 Free energy of the ion-electron system (eV)
  ---------------------------------------------------
  alpha Z        PSCENC =        26.75080663
  Ewald energy   TEWEN  =      8617.63405943
  -Hartree energ DENC   =    -12352.10247265
  -exchange      EXHF   =         0.00000000
  -V(xc)+E(xc)   XCENC  =       132.30352765
  PAW double counting   =      2378.43404209    -2473.52258244
  entropy T*S    EENTRO =         0.00000000
  eigenvalues    EBANDS =      -548.17556869
  atomic energy  EATOM  =      4184.14832191
  Solvation  Ediel_sol  =         0.00000000
  ---------------------------------------------------
  free energy    TOTEN  =       -34.52986607 eV

  energy without entropy =      -34.52986607  energy(sigma->0) =      -34.52986607


--------------------------------------------------------------------------------------------------------




--------------------------------------- Iteration      1(  12)  ---------------------------------------


    POTLOK:  cpu time   50.7480: real time   50.9085
    SETDIJ:  cpu time    0.0360: real time    0.0367
     EDDAV:  cpu time   29.1080: real time   29.2460
 BZINTS: Fermi energy: -4.294176; 66.000000 electrons
         Band energy:-544.536811;  BLOECHL correction:  0.000000
       DOS:  cpu time    0.0000: real time    0.0020
    CHARGE:  cpu time    2.1240: real time    2.1259
    MIXING:  cpu time    0.0440: real time    0.0437
    --------------------------------------------
      LOOP:  cpu time   82.0600: real time   82.3628

 eigenvalue-minimisations  :  1312
 total energy-change (2. order) :-0.1823209E+00  (-0.1335119E-01)
 number of electron      65.9999989 magnetization       5.8520205
 augmentation part        6.5344731 magnetization       3.5723381

 Broyden mixing:
  rms(total) = 0.24513E+00    rms(broyden)= 0.24328E+00
  rms(prec ) = 0.24973E+00
  weight for this iteration     100.00

 eigenvalues of (default mixing * dielectric matrix)
  average eigenvalue GAMMA=   0.7424
  1.4121  1.4121  0.6408  0.6408  0.5616  0.5288  0.0008

 Free energy of the ion-electron system (eV)
  ---------------------------------------------------
  alpha Z        PSCENC =        26.75080663
  Ewald energy   TEWEN  =      8617.63405943
  -Hartree energ DENC   =    -12356.10558061
  -exchange      EXHF   =         0.00000000
  -V(xc)+E(xc)   XCENC  =       132.08248582
  PAW double counting   =      2384.50281676    -2479.18828550
  entropy T*S    EENTRO =         0.00000000
  eigenvalues    EBANDS =      -544.53681140
  atomic energy  EATOM  =      4184.14832191
  Solvation  Ediel_sol  =         0.00000000
  ---------------------------------------------------
  free energy    TOTEN  =       -34.71218695 eV

  energy without entropy =      -34.71218695  energy(sigma->0) =      -34.71218695


--------------------------------------------------------------------------------------------------------




--------------------------------------- Iteration      1(  13)  ---------------------------------------


    POTLOK:  cpu time   51.0000: real time   51.1513
    SETDIJ:  cpu time    0.0480: real time    0.0466
     EDDAV:  cpu time   28.2360: real time   28.4289
 BZINTS: Fermi energy: -4.305684; 66.000000 electrons
         Band energy:-544.533707;  BLOECHL correction:  0.000000
       DOS:  cpu time    0.0000: real time    0.0035
    CHARGE:  cpu time    2.1360: real time    2.1509
    MIXING:  cpu time    0.0440: real time    0.0452
    --------------------------------------------
      LOOP:  cpu time   81.4640: real time   81.8264

 eigenvalue-minimisations  :  1264
 total energy-change (2. order) :-0.1208428E+00  (-0.9367894E-02)
 number of electron      65.9999989 magnetization       5.4724232
 augmentation part        6.5257497 magnetization       3.2033471

 Broyden mixing:
  rms(total) = 0.14019E+00    rms(broyden)= 0.14006E+00
  rms(prec ) = 0.14473E+00
  weight for this iteration     100.00

 eigenvalues of (default mixing * dielectric matrix)
  average eigenvalue GAMMA=   0.8437
  2.4444  0.6507  0.6507  0.9302  0.9302  0.5031  0.6393  0.0008

 Free energy of the ion-electron system (eV)
  ---------------------------------------------------
  alpha Z        PSCENC =        26.75080663
  Ewald energy   TEWEN  =      8617.63405943
  -Hartree energ DENC   =    -12356.70380776
  -exchange      EXHF   =         0.00000000
  -V(xc)+E(xc)   XCENC  =       131.94941470
  PAW double counting   =      2384.01867984    -2478.09679755
  entropy T*S    EENTRO =         0.00000000
  eigenvalues    EBANDS =      -544.53370698
  atomic energy  EATOM  =      4184.14832191
  Solvation  Ediel_sol  =         0.00000000
  ---------------------------------------------------
  free energy    TOTEN  =       -34.83302977 eV

  energy without entropy =      -34.83302977  energy(sigma->0) =      -34.83302977


--------------------------------------------------------------------------------------------------------




--------------------------------------- Iteration      1(  14)  ---------------------------------------


    POTLOK:  cpu time   50.7120: real time   50.9876
    SETDIJ:  cpu time    0.0360: real time    0.0367
     EDDAV:  cpu time   29.7240: real time   29.9260
 BZINTS: Fermi energy: -4.270105; 66.000000 electrons
         Band energy:-542.180659;  BLOECHL correction:  0.000000
       DOS:  cpu time    0.0000: real time    0.0043
    CHARGE:  cpu time    2.1200: real time    2.1228
    MIXING:  cpu time    0.0640: real time    0.0636
    --------------------------------------------
      LOOP:  cpu time   82.6560: real time   83.1409

 eigenvalue-minimisations  :  1344
 total energy-change (2. order) :-0.8137138E-01  (-0.9865887E-02)
 number of electron      65.9999989 magnetization       5.2662189
 augmentation part        6.1931983 magnetization       3.1154377

 Broyden mixing:
  rms(total) = 0.20391E+00    rms(broyden)= 0.20384E+00
  rms(prec ) = 0.21944E+00
  weight for this iteration     100.00

 eigenvalues of (default mixing * dielectric matrix)
  average eigenvalue GAMMA=   0.8306
  2.2639  1.4593  0.6490  0.6490  0.7502  0.7502  0.5063  0.4463  0.0008

 Free energy of the ion-electron system (eV)
  ---------------------------------------------------
  alpha Z        PSCENC =        26.75080663
  Ewald energy   TEWEN  =      8617.63405943
  -Hartree energ DENC   =    -12359.42441371
  -exchange      EXHF   =         0.00000000
  -V(xc)+E(xc)   XCENC  =       132.01876128
  PAW double counting   =      2388.90927218    -2482.77055009
  entropy T*S    EENTRO =         0.00000000
  eigenvalues    EBANDS =      -542.18065877
  atomic energy  EATOM  =      4184.14832191
  Solvation  Ediel_sol  =         0.00000000
  ---------------------------------------------------
  free energy    TOTEN  =       -34.91440115 eV

  energy without entropy =      -34.91440115  energy(sigma->0) =      -34.91440115


--------------------------------------------------------------------------------------------------------




--------------------------------------- Iteration      1(  15)  ---------------------------------------


    POTLOK:  cpu time   50.8280: real time   51.0856
    SETDIJ:  cpu time    0.0360: real time    0.0367
     EDDAV:  cpu time   30.9880: real time   31.2481
 BZINTS: Fermi energy: -4.270573; 66.000000 electrons
         Band energy:-540.968664;  BLOECHL correction: -0.005638
       DOS:  cpu time    0.0080: real time    0.0069
    CHARGE:  cpu time    2.1360: real time    2.1433
    MIXING:  cpu time    0.0480: real time    0.0481
    --------------------------------------------
      LOOP:  cpu time   84.0480: real time   84.5686

 eigenvalue-minimisations  :  1408
 total energy-change (2. order) :-0.8766041E-01  (-0.8407540E-02)
 number of electron      65.9999989 magnetization       5.2677478
 augmentation part        5.9483087 magnetization       3.3089740

 Broyden mixing:
  rms(total) = 0.38428E+00    rms(broyden)= 0.38426E+00
  rms(prec ) = 0.41478E+00
  weight for this iteration     100.00

 eigenvalues of (default mixing * dielectric matrix)
  average eigenvalue GAMMA=   0.7841
  2.3861  1.2525  0.6441  0.6441  0.8803  0.6915  0.5056  0.4181  0.4181  0.0008

 Free energy of the ion-electron system (eV)
  ---------------------------------------------------
  alpha Z        PSCENC =        26.75080663
  Ewald energy   TEWEN  =      8617.63405943
  -Hartree energ DENC   =    -12360.29885975
  -exchange      EXHF   =         0.00000000
  -V(xc)+E(xc)   XCENC  =       131.99748490
  PAW double counting   =      2390.65678434    -2484.92199548
  entropy T*S    EENTRO =         0.00000000
  eigenvalues    EBANDS =      -540.96866354
  atomic energy  EATOM  =      4184.14832191
  Solvation  Ediel_sol  =         0.00000000
  ---------------------------------------------------
  free energy    TOTEN  =       -35.00206156 eV

  energy without entropy =      -35.00206156  energy(sigma->0) =      -35.00206156


--------------------------------------------------------------------------------------------------------




--------------------------------------- Iteration      1(  16)  ---------------------------------------


    POTLOK:  cpu time   50.7320: real time   51.1458
    SETDIJ:  cpu time    0.0360: real time    0.0370
     EDDAV:  cpu time   27.2000: real time   27.4004
 BZINTS: Fermi energy: -4.271988; 66.000000 electrons
         Band energy:-540.937747;  BLOECHL correction: -0.005343
       DOS:  cpu time    0.0080: real time    0.0080
    CHARGE:  cpu time    2.1080: real time    2.1324
    MIXING:  cpu time    0.0480: real time    0.0475
    --------------------------------------------
      LOOP:  cpu time   80.1280: real time   80.7711

 eigenvalue-minimisations  :  1216
 total energy-change (2. order) : 0.6377346E-02  (-0.2032108E-02)
 number of electron      65.9999989 magnetization       5.2726675
 augmentation part        5.9470698 magnetization       3.2983852

 Broyden mixing:
  rms(total) = 0.38198E+00    rms(broyden)= 0.38198E+00
  rms(prec ) = 0.41249E+00
  weight for this iteration     100.00

 eigenvalues of (default mixing * dielectric matrix)
  average eigenvalue GAMMA=   0.7193
  2.4004  1.2327  0.6440  0.6440  0.8612  0.6847  0.5010  0.4573  0.4573  0.0008
  0.0286

 Free energy of the ion-electron system (eV)
  ---------------------------------------------------
  alpha Z        PSCENC =        26.75080663
  Ewald energy   TEWEN  =      8617.63405943
  -Hartree energ DENC   =    -12360.31051713
  -exchange      EXHF   =         0.00000000
  -V(xc)+E(xc)   XCENC  =       131.99908942
  PAW double counting   =      2390.68423686    -2484.96393387
  entropy T*S    EENTRO =         0.00000000
  eigenvalues    EBANDS =      -540.93774747
  atomic energy  EATOM  =      4184.14832191
  Solvation  Ediel_sol  =         0.00000000
  ---------------------------------------------------
  free energy    TOTEN  =       -34.99568421 eV

  energy without entropy =      -34.99568421  energy(sigma->0) =      -34.99568421


--------------------------------------------------------------------------------------------------------




--------------------------------------- Iteration      1(  17)  ---------------------------------------


    POTLOK:  cpu time   50.9280: real time   51.0760
    SETDIJ:  cpu time    0.0400: real time    0.0371
     EDDAV:  cpu time   28.6880: real time   28.8468
 BZINTS: Fermi energy: -4.271222; 66.000000 electrons
         Band energy:-540.943182;  BLOECHL correction: -0.004760
       DOS:  cpu time    0.0040: real time    0.0053
    CHARGE:  cpu time    2.1320: real time    2.1370
    MIXING:  cpu time    0.0480: real time    0.0482
    --------------------------------------------
      LOOP:  cpu time   81.8400: real time   82.1505

 eigenvalue-minimisations  :  1280
 total energy-change (2. order) : 0.6741007E-02  (-0.2634258E-03)
 number of electron      65.9999989 magnetization       5.1773174
 augmentation part        5.9699288 magnetization       3.1702587

 Broyden mixing:
  rms(total) = 0.36554E+00    rms(broyden)= 0.36554E+00
  rms(prec ) = 0.39452E+00
  weight for this iteration     100.00

 eigenvalues of (default mixing * dielectric matrix)
  average eigenvalue GAMMA=   0.7657
  1.9682  1.9682  0.6523  0.6523  0.8452  0.8452  0.6271  0.6271  0.5014  0.2623
  0.2386  0.0008

 Free energy of the ion-electron system (eV)
  ---------------------------------------------------
  alpha Z        PSCENC =        26.75080663
  Ewald energy   TEWEN  =      8617.63405943
  -Hartree energ DENC   =    -12360.29953209
  -exchange      EXHF   =         0.00000000
  -V(xc)+E(xc)   XCENC  =       132.00306130
  PAW double counting   =      2390.58181382    -2484.86429263
  entropy T*S    EENTRO =         0.00000000
  eigenvalues    EBANDS =      -540.94318158
  atomic energy  EATOM  =      4184.14832191
  Solvation  Ediel_sol  =         0.00000000
  ---------------------------------------------------
  free energy    TOTEN  =       -34.98894321 eV

  energy without entropy =      -34.98894321  energy(sigma->0) =      -34.98894321


--------------------------------------------------------------------------------------------------------




--------------------------------------- Iteration      1(  18)  ---------------------------------------


    POTLOK:  cpu time   51.0000: real time   51.1671
    SETDIJ:  cpu time    0.0360: real time    0.0371
     EDDAV:  cpu time   31.7000: real time   31.9002
 BZINTS: Fermi energy: -4.267057; 66.000000 electrons
         Band energy:-542.516773;  BLOECHL correction:  0.000000
       DOS:  cpu time    0.0040: real time    0.0039
    CHARGE:  cpu time    2.1040: real time    2.1817
    MIXING:  cpu time    0.0480: real time    0.0506
    --------------------------------------------
      LOOP:  cpu time   84.8920: real time   85.3406

 eigenvalue-minimisations  :  1440
 total energy-change (2. order) : 0.6474903E-01  (-0.1213700E-01)
 number of electron      65.9999989 magnetization       5.0092589
 augmentation part        6.3870208 magnetization       2.7027253

 Broyden mixing:
  rms(total) = 0.99647E-01    rms(broyden)= 0.99510E-01
  rms(prec ) = 0.10158E+00
  weight for this iteration     100.00

 eigenvalues of (default mixing * dielectric matrix)
  average eigenvalue GAMMA=   0.8159
  2.4399  2.0429  0.6447  0.6447  0.8377  0.8377  0.6579  0.6579  0.6497  0.5147
  0.3191  0.3588  0.0008

 Free energy of the ion-electron system (eV)
  ---------------------------------------------------
  alpha Z        PSCENC =        26.75080663
  Ewald energy   TEWEN  =      8617.63405943
  -Hartree energ DENC   =    -12358.54283222
  -exchange      EXHF   =         0.00000000
  -V(xc)+E(xc)   XCENC  =       132.01668440
  PAW double counting   =      2386.10587595    -2480.52033695
  entropy T*S    EENTRO =         0.00000000
  eigenvalues    EBANDS =      -542.51677334
  atomic energy  EATOM  =      4184.14832191
  Solvation  Ediel_sol  =         0.00000000
  ---------------------------------------------------
  free energy    TOTEN  =       -34.92419418 eV

  energy without entropy =      -34.92419418  energy(sigma->0) =      -34.92419418


--------------------------------------------------------------------------------------------------------




--------------------------------------- Iteration      1(  19)  ---------------------------------------


    POTLOK:  cpu time   50.9800: real time   51.1476
    SETDIJ:  cpu time    0.0360: real time    0.0369
     EDDAV:  cpu time   30.7120: real time   30.8778
 BZINTS: Fermi energy: -4.213715; 66.000000 electrons
         Band energy:-539.032335;  BLOECHL correction:  0.000000
       DOS:  cpu time    0.0000: real time    0.0032
    CHARGE:  cpu time    2.1080: real time    2.1169
    MIXING:  cpu time    0.0520: real time    0.0503
    --------------------------------------------
      LOOP:  cpu time   83.8880: real time   84.2327

 eigenvalue-minimisations  :  1392
 total energy-change (2. order) :-0.5395940E-01  (-0.7461815E-02)
 number of electron      65.9999989 magnetization       5.0068822
 augmentation part        6.2490416 magnetization       2.7725873

 Broyden mixing:
  rms(total) = 0.19262E+00    rms(broyden)= 0.19261E+00
  rms(prec ) = 0.20382E+00
  weight for this iteration     100.00

 eigenvalues of (default mixing * dielectric matrix)
  average eigenvalue GAMMA=   0.8536
  2.7698  1.9256  0.3397  0.9759  0.9759  0.6464  0.6464  0.6778  0.6778  0.7169
  0.7169  0.5287  0.3522  0.0008

 Free energy of the ion-electron system (eV)
  ---------------------------------------------------
  alpha Z        PSCENC =        26.75080663
  Ewald energy   TEWEN  =      8617.63405943
  -Hartree energ DENC   =    -12362.20466803
  -exchange      EXHF   =         0.00000000
  -V(xc)+E(xc)   XCENC  =       132.16860770
  PAW double counting   =      2391.77720010    -2486.22014637
  entropy T*S    EENTRO =         0.00000000
  eigenvalues    EBANDS =      -539.03233494
  atomic energy  EATOM  =      4184.14832191
  Solvation  Ediel_sol  =         0.00000000
  ---------------------------------------------------
  free energy    TOTEN  =       -34.97815358 eV

  energy without entropy =      -34.97815358  energy(sigma->0) =      -34.97815358


--------------------------------------------------------------------------------------------------------




--------------------------------------- Iteration      1(  20)  ---------------------------------------


    POTLOK:  cpu time   50.8880: real time   51.0511
    SETDIJ:  cpu time    0.0360: real time    0.0366
     EDDAV:  cpu time   28.9400: real time   29.2361
 BZINTS: Fermi energy: -4.155704; 66.000000 electrons
         Band energy:-534.882863;  BLOECHL correction:  0.000000
       DOS:  cpu time    0.0000: real time    0.0037
    CHARGE:  cpu time    2.1280: real time    2.1319
    MIXING:  cpu time    0.0560: real time    0.0579
    --------------------------------------------
      LOOP:  cpu time   82.0480: real time   82.5173

 eigenvalue-minimisations  :  1312
 total energy-change (2. order) :-0.3779455E-01  (-0.4992636E-02)
 number of electron      65.9999989 magnetization       5.1501211
 augmentation part        6.1759728 magnetization       2.9416117

 Broyden mixing:
  rms(total) = 0.27060E+00    rms(broyden)= 0.27060E+00
  rms(prec ) = 0.28850E+00
  weight for this iteration     100.00

 eigenvalues of (default mixing * dielectric matrix)
  average eigenvalue GAMMA=   0.8791
  2.4624  1.8505  1.8505  1.2286  0.3446  0.6435  0.6435  0.8526  0.5772  0.5772
  0.6499  0.6499  0.5134  0.3427  0.0008

 Free energy of the ion-electron system (eV)
  ---------------------------------------------------
  alpha Z        PSCENC =        26.75080663
  Ewald energy   TEWEN  =      8617.63405943
  -Hartree energ DENC   =    -12366.36023402
  -exchange      EXHF   =         0.00000000
  -V(xc)+E(xc)   XCENC  =       132.34139904
  PAW double counting   =      2396.89608654    -2491.54352455
  entropy T*S    EENTRO =         0.00000000
  eigenvalues    EBANDS =      -534.88286310
  atomic energy  EATOM  =      4184.14832191
  Solvation  Ediel_sol  =         0.00000000
  ---------------------------------------------------
  free energy    TOTEN  =       -35.01594813 eV

  energy without entropy =      -35.01594813  energy(sigma->0) =      -35.01594813


--------------------------------------------------------------------------------------------------------




--------------------------------------- Iteration      1(  21)  ---------------------------------------


    POTLOK:  cpu time   50.6520: real time   50.9469
    SETDIJ:  cpu time    0.0360: real time    0.0356
     EDDAV:  cpu time   28.4760: real time   28.7182
 BZINTS: Fermi energy: -4.091449; 66.000000 electrons
         Band energy:-529.518553;  BLOECHL correction:  0.000000
       DOS:  cpu time    0.0040: real time    0.0037
    CHARGE:  cpu time    2.0560: real time    2.1439
    MIXING:  cpu time    0.0520: real time    0.0530
    --------------------------------------------
      LOOP:  cpu time   81.2760: real time   81.9013

 eigenvalue-minimisations  :  1280
 total energy-change (2. order) :-0.4751825E-01  (-0.7369928E-02)
 number of electron      65.9999989 magnetization       5.0503716
 augmentation part        6.1439685 magnetization       2.8340854

 Broyden mixing:
  rms(total) = 0.34695E+00    rms(broyden)= 0.34695E+00
  rms(prec ) = 0.36964E+00
  weight for this iteration     100.00

 eigenvalues of (default mixing * dielectric matrix)
  average eigenvalue GAMMA=   0.8644
  2.6985  1.7473  1.7473  1.0433  1.0433  0.6440  0.6440  0.6121  0.6121  0.6572
  0.6572  0.5133  0.3445  0.5156  0.3503  0.0008

 Free energy of the ion-electron system (eV)
  ---------------------------------------------------
  alpha Z        PSCENC =        26.75080663
  Ewald energy   TEWEN  =      8617.63405943
  -Hartree energ DENC   =    -12371.70216813
  -exchange      EXHF   =         0.00000000
  -V(xc)+E(xc)   XCENC  =       132.57735257
  PAW double counting   =      2402.56001390    -2497.51329974
  entropy T*S    EENTRO =         0.00000000
  eigenvalues    EBANDS =      -529.51855296
  atomic energy  EATOM  =      4184.14832191
  Solvation  Ediel_sol  =         0.00000000
  ---------------------------------------------------
  free energy    TOTEN  =       -35.06346638 eV

  energy without entropy =      -35.06346638  energy(sigma->0) =      -35.06346638


--------------------------------------------------------------------------------------------------------




--------------------------------------- Iteration      1(  22)  ---------------------------------------


    POTLOK:  cpu time   50.8360: real time   51.2475
    SETDIJ:  cpu time    0.0320: real time    0.0385
     EDDAV:  cpu time   25.7200: real time   26.0612
 BZINTS: Fermi energy: -4.129737; 66.000000 electrons
         Band energy:-531.977000;  BLOECHL correction:  0.000000
       DOS:  cpu time    0.0000: real time    0.0034
    CHARGE:  cpu time    2.1080: real time    2.1169
    MIXING:  cpu time    0.0560: real time    0.0546
    --------------------------------------------
      LOOP:  cpu time   78.7520: real time   79.5221

 eigenvalue-minimisations  :  1152
 total energy-change (2. order) : 0.1958997E-01  (-0.2343343E-02)
 number of electron      65.9999989 magnetization       4.8398553
 augmentation part        6.1623496 magnetization       2.6328362

 Broyden mixing:
  rms(total) = 0.30857E+00    rms(broyden)= 0.30857E+00
  rms(prec ) = 0.32934E+00
  weight for this iteration     100.00

 eigenvalues of (default mixing * dielectric matrix)
  average eigenvalue GAMMA=   0.9936
  3.3855  1.7690  1.9800  1.9800  0.3468  1.0127  1.0127  0.6437  0.6437  0.6539
  0.6539  0.6692  0.6692  0.6080  0.5157  0.3457  0.0008

 Free energy of the ion-electron system (eV)
  ---------------------------------------------------
  alpha Z        PSCENC =        26.75080663
  Ewald energy   TEWEN  =      8617.63405943
  -Hartree energ DENC   =    -12369.27684925
  -exchange      EXHF   =         0.00000000
  -V(xc)+E(xc)   XCENC  =       132.47481351
  PAW double counting   =      2400.13916003    -2494.93718907
  entropy T*S    EENTRO =         0.00000000
  eigenvalues    EBANDS =      -531.97699960
  atomic energy  EATOM  =      4184.14832191
  Solvation  Ediel_sol  =         0.00000000
  ---------------------------------------------------
  free energy    TOTEN  =       -35.04387641 eV

  energy without entropy =      -35.04387641  energy(sigma->0) =      -35.04387641


--------------------------------------------------------------------------------------------------------




--------------------------------------- Iteration      1(  23)  ---------------------------------------


    POTLOK:  cpu time   50.7880: real time   51.1802
    SETDIJ:  cpu time    0.0360: real time    0.0363
     EDDAV:  cpu time   26.4200: real time   26.9126
 BZINTS: Fermi energy: -4.191726; 66.000000 electrons
         Band energy:-536.954244;  BLOECHL correction:  0.000000
       DOS:  cpu time    0.0000: real time    0.0035
    CHARGE:  cpu time    2.1440: real time    2.1494
    MIXING:  cpu time    0.0560: real time    0.0570
    --------------------------------------------
      LOOP:  cpu time   79.4440: real time   80.3390

 eigenvalue-minimisations  :  1200
 total energy-change (2. order) : 0.3552397E-01  (-0.6592367E-02)
 number of electron      65.9999989 magnetization       4.2429267
 augmentation part        6.1961816 magnetization       2.0568874

 Broyden mixing:
  rms(total) = 0.23542E+00    rms(broyden)= 0.23542E+00
  rms(prec ) = 0.25222E+00
  weight for this iteration     100.00

 eigenvalues of (default mixing * dielectric matrix)
  average eigenvalue GAMMA=   1.1552
  5.0594  2.8293  2.2073  2.2073  0.3467  1.0205  1.0205  0.6439  0.6439  0.6946
  0.6946  0.6730  0.6730  0.6098  0.6098  0.5136  0.3454  0.0008

 Free energy of the ion-electron system (eV)
  ---------------------------------------------------
  alpha Z        PSCENC =        26.75080663
  Ewald energy   TEWEN  =      8617.63405943
  -Hartree energ DENC   =    -12364.38061724
  -exchange      EXHF   =         0.00000000
  -V(xc)+E(xc)   XCENC  =       132.28392803
  PAW double counting   =      2395.35584696    -2489.84645381
  entropy T*S    EENTRO =         0.00000000
  eigenvalues    EBANDS =      -536.95424434
  atomic energy  EATOM  =      4184.14832191
  Solvation  Ediel_sol  =         0.00000000
  ---------------------------------------------------
  free energy    TOTEN  =       -35.00835244 eV

  energy without entropy =      -35.00835244  energy(sigma->0) =      -35.00835244


--------------------------------------------------------------------------------------------------------




--------------------------------------- Iteration      1(  24)  ---------------------------------------


    POTLOK:  cpu time   50.9560: real time   51.0648
    SETDIJ:  cpu time    0.0360: real time    0.0371
     EDDAV:  cpu time   28.3520: real time   28.5615
 BZINTS: Fermi energy: -4.357017; 66.000000 electrons
         Band energy:-549.213831;  BLOECHL correction:  0.000000
       DOS:  cpu time    0.0000: real time    0.0036
    CHARGE:  cpu time    2.1080: real time    2.1122
    MIXING:  cpu time    0.0600: real time    0.0593
    --------------------------------------------
      LOOP:  cpu time   81.5120: real time   81.8385

 eigenvalue-minimisations  :  1280
 total energy-change (2. order) : 0.1556866E-01  (-0.3456304E-01)
 number of electron      65.9999989 magnetization       4.1509176
 augmentation part        6.2459065 magnetization       2.0809644

 Broyden mixing:
  rms(total) = 0.12894E+00    rms(broyden)= 0.12891E+00
  rms(prec ) = 0.14058E+00
  weight for this iteration     100.00

 eigenvalues of (default mixing * dielectric matrix)
  average eigenvalue GAMMA=   1.1528
  5.3867  3.0074  2.2901  2.2901  1.0686  1.0686  0.3467  0.6440  0.6440  0.7068
  0.7068  0.6210  0.6210  0.5805  0.5237  0.5250  0.5250  0.3458  0.0008

 Free energy of the ion-electron system (eV)
  ---------------------------------------------------
[...]
     34      -2.2385      0.00000
     35      -2.0593      0.00000
     36      -0.2256      0.00000
     37      -0.1211      0.00000
     38       0.8105      0.00000
     39       0.8361      0.00000
     40       1.1102      0.00000
     41       1.6624      0.00000
     42       1.8386      0.00000
     43       2.4107      0.00000
     44       2.6407      0.00000
     45       2.6986      0.00000
     46       3.2654      0.00000
     47       3.4697      0.00000
     48       3.6908      0.00000

 k-point     5 :      -0.4000    0.2000    0.0000
  band No.  band energies     occupation 
      1     -18.7632      1.00000
      2     -17.4410      1.00000
      3     -16.5884      1.00000
      4     -16.2615      1.00000
      5     -15.9404      1.00000
      6     -15.8138      1.00000
      7     -12.3999      1.00000
      8     -11.0689      1.00000
      9      -9.1120      1.00000
     10      -8.7133      1.00000
     11      -8.6806      1.00000
     12      -8.2769      1.00000
     13      -7.8495      1.00000
     14      -6.9571      1.00000
     15      -6.4302      1.00000
     16      -6.3507      1.00000
     17      -6.1838      1.00000
     18      -6.1240      1.00000
     19      -6.0183      1.00000
     20      -5.7932      1.00000
     21      -5.5493      1.00000
     22      -4.9700      1.00000
     23      -4.6871      1.00000
     24      -4.6499      1.00000
     25      -4.6264      1.00000
     26      -4.1908      1.00000
     27      -4.0263      1.00000
     28      -4.0119      1.00000
     29      -3.6206      1.00000
     30      -3.6145      1.00000
     31      -3.4912      1.00000
     32      -2.8104      1.00000
     33      -2.5687      1.00000
     34      -2.1762      0.00000
     35      -1.8937      0.00000
     36      -0.6118      0.00000
     37      -0.2063      0.00000
     38       0.4190      0.00000
     39       0.8732      0.00000
     40       0.9517      0.00000
     41       1.1475      0.00000
     42       1.6911      0.00000
     43       2.7763      0.00000
     44       2.9905      0.00000
     45       3.1870      0.00000
     46       3.2320      0.00000
     47       3.4375      0.00000
     48       3.7682      0.00000


--------------------------------------------------------------------------------------------------------


 soft charge-density along one line, spin component           1
         0         1         2         3         4         5         6         7         8         9
 total charge-density along one line

 soft charge-density along one line, spin component           2
         0         1         2         3         4         5         6         7         8         9
 total charge-density along one line

 pseudopotential strength for first ion, spin component:           1
-10.213  -0.051  -0.000   0.000  -0.000   1.239   0.022   0.000
 -0.051 -10.286   0.000  -0.000   0.000   0.022   1.271  -0.000
 -0.000   0.000 -10.197   0.000   0.000   0.000  -0.000   1.232
  0.000  -0.000   0.000 -10.286   0.051  -0.000   0.000  -0.000
 -0.000   0.000   0.000   0.051 -10.213   0.000  -0.000  -0.000
  1.239   0.022   0.000  -0.000   0.000   0.801  -0.010  -0.000
  0.022   1.271  -0.000   0.000  -0.000  -0.010   0.788   0.000
  0.000  -0.000   1.232  -0.000  -0.000  -0.000   0.000   0.805
 -0.000   0.000  -0.000   1.271  -0.022   0.000  -0.000   0.000
  0.000  -0.000  -0.000  -0.022   1.239  -0.000   0.000   0.000
  0.000  -0.000   0.004  -0.000   0.000   0.000  -0.000  -0.001
 -0.000   0.000  -0.000   0.000  -0.000   0.000  -0.000   0.000
  0.000  -0.000   0.000  -0.000   0.001  -0.000   0.000  -0.000
 -0.000  -0.000  -0.000  -0.000   0.000  -0.000   0.000   0.000
  0.001  -0.000   0.000  -0.000  -0.000  -0.000  -0.000  -0.000
  0.000   0.000  -0.000   0.000  -0.001   0.000   0.000   0.000
  0.000   0.000  -0.000   0.000  -0.000  -0.000  -0.000   0.000
 -0.001   0.000  -0.000   0.000   0.000   0.000  -0.000   0.000
 pseudopotential strength for first ion, spin component:           2
-10.213  -0.051  -0.000   0.000  -0.000   1.239   0.022   0.000
 -0.051 -10.286   0.000  -0.000   0.000   0.022   1.271  -0.000
 -0.000   0.000 -10.197   0.000   0.000   0.000  -0.000   1.232
  0.000  -0.000   0.000 -10.286   0.051  -0.000   0.000  -0.000
 -0.000   0.000   0.000   0.051 -10.213   0.000  -0.000  -0.000
  1.239   0.022   0.000  -0.000   0.000   0.801  -0.010  -0.000
  0.022   1.271  -0.000   0.000  -0.000  -0.010   0.788   0.000
  0.000  -0.000   1.232  -0.000  -0.000  -0.000   0.000   0.805
 -0.000   0.000  -0.000   1.271  -0.022   0.000  -0.000   0.000
  0.000  -0.000  -0.000  -0.022   1.239  -0.000   0.000   0.000
  0.000  -0.000   0.004  -0.000   0.000   0.000  -0.000  -0.001
 -0.000   0.000  -0.000   0.000  -0.000   0.000  -0.000   0.000
  0.000  -0.000   0.000  -0.000   0.001  -0.000   0.000  -0.000
 -0.000  -0.000  -0.000  -0.000   0.000  -0.000   0.000   0.000
  0.001  -0.000   0.000  -0.000  -0.000  -0.000  -0.000  -0.000
  0.000   0.000  -0.000   0.000  -0.001   0.000   0.000   0.000
  0.000   0.000  -0.000   0.000  -0.000  -0.000  -0.000   0.000
 -0.001   0.000  -0.000   0.000   0.000   0.000  -0.000   0.000
 total augmentation occupancy for first ion, spin component:           1
  1.820  -0.165   0.000   0.000  -0.000   0.023   0.070  -0.000  -0.000  -0.000  -0.000  -0.000  -0.000  -0.000   0.016   0.000
 -0.165   1.658  -0.000  -0.000   0.000   0.069   0.096   0.000  -0.000  -0.000  -0.000  -0.000  -0.000  -0.000   0.010   0.000
  0.000  -0.000   1.947  -0.000  -0.000  -0.000   0.000  -0.042   0.000   0.000  -0.008  -0.006  -0.000  -0.000   0.000  -0.000
  0.000  -0.000  -0.000   1.658   0.165  -0.000   0.000   0.000   0.096  -0.069   0.000   0.000  -0.010  -0.000  -0.000   0.000
 -0.000   0.000  -0.000   0.165   1.820   0.000  -0.000   0.000  -0.070   0.023   0.000   0.000   0.016   0.000   0.000   0.000
  0.023   0.069  -0.000  -0.000   0.000   0.093   0.078   0.000  -0.000  -0.000   0.000  -0.000  -0.000   0.000  -0.009   0.000
  0.070   0.096   0.000   0.000  -0.000   0.078   0.165   0.000  -0.000  -0.000  -0.000   0.000  -0.000   0.000  -0.005   0.000
 -0.000   0.000  -0.042   0.000   0.000   0.000   0.000   0.061   0.000  -0.000   0.021  -0.012   0.000   0.000  -0.000   0.000
 -0.000  -0.000   0.000   0.096  -0.070  -0.000  -0.000   0.000   0.165  -0.078  -0.000  -0.000   0.005   0.000  -0.000  -0.000
 -0.000  -0.000   0.000  -0.069   0.023  -0.000  -0.000  -0.000  -0.078   0.093  -0.000   0.000  -0.009  -0.000   0.000  -0.001
 -0.000   0.000  -0.008   0.000   0.000   0.000  -0.000   0.021  -0.000  -0.000   0.915  -0.310  -0.000  -0.000   0.000  -0.000
 -0.000   0.000  -0.006   0.000   0.000  -0.000  -0.000  -0.012  -0.000   0.000  -0.310   0.164   0.000   0.000   0.000   0.000
 -0.000  -0.000  -0.000  -0.010   0.016  -0.000  -0.000   0.000   0.005  -0.009  -0.000  -0.000   0.172   0.000  -0.000  -0.016
 -0.000  -0.000  -0.000  -0.000   0.000   0.000   0.000   0.000   0.000  -0.000  -0.000   0.000  -0.000   0.180  -0.000  -0.000
  0.016   0.010   0.000  -0.000   0.000  -0.009  -0.005  -0.000  -0.000   0.000  -0.000  -0.000  -0.000   0.000   0.172   0.000
  0.000   0.000  -0.000   0.000   0.000   0.000   0.000   0.000  -0.000  -0.001  -0.000   0.000  -0.016  -0.000   0.000   0.002
  0.000  -0.000   0.000   0.000  -0.000  -0.000  -0.000  -0.000  -0.000   0.000   0.000  -0.000   0.000  -0.017   0.000  -0.000
  0.000  -0.000   0.000   0.000  -0.000  -0.001   0.000  -0.000   0.000  -0.000   0.000  -0.000  -0.000   0.000  -0.016  -0.000
 total augmentation occupancy for first ion, spin component:           2
  0.000  -0.000   0.000   0.000  -0.000   0.000   0.000   0.000  -0.000  -0.000   0.000   0.000   0.000  -0.000   0.000   0.000
 -0.000   0.000  -0.000  -0.000   0.000  -0.000   0.000  -0.000  -0.000  -0.000   0.000   0.000   0.000   0.000   0.000  -0.000
  0.000  -0.000   0.000  -0.000  -0.000   0.000   0.000   0.000   0.000  -0.000   0.000   0.000   0.000  -0.000   0.000   0.000
  0.000  -0.000  -0.000   0.000   0.000  -0.000   0.000  -0.000   0.000   0.000   0.000   0.000  -0.000   0.000   0.000  -0.000
  0.000   0.000  -0.000   0.000   0.000   0.000  -0.000  -0.000  -0.000   0.000  -0.000  -0.000   0.000   0.000  -0.000  -0.000
  0.000  -0.000   0.000  -0.000   0.000   0.000   0.000   0.000   0.000  -0.000   0.000  -0.000  -0.000   0.000  -0.000  -0.000
  0.000   0.000   0.000   0.000  -0.000   0.000  -0.000  -0.000   0.000   0.000   0.000  -0.000  -0.000  -0.000  -0.000  -0.000
  0.000  -0.000   0.000  -0.000  -0.000   0.000  -0.000   0.000   0.000  -0.000   0.000  -0.000   0.000   0.000  -0.000  -0.000
 -0.000  -0.000   0.000   0.000  -0.000   0.000   0.000   0.000  -0.000  -0.000  -0.000  -0.000   0.000  -0.000  -0.000   0.000
 -0.000  -0.000  -0.000   0.000   0.000  -0.000   0.000  -0.000  -0.000   0.000  -0.000   0.000  -0.000  -0.000   0.000   0.000
  0.000   0.000   0.000   0.000  -0.000   0.000  -0.000   0.000  -0.000  -0.000   0.000  -0.000   0.000  -0.000  -0.000  -0.000
  0.000   0.000   0.000   0.000  -0.000  -0.000  -0.000  -0.000  -0.000   0.000  -0.000   0.000  -0.000  -0.000  -0.000   0.000
  0.000   0.000   0.000  -0.000   0.000  -0.000  -0.000   0.000   0.000  -0.000  -0.000  -0.000   0.000  -0.000  -0.000  -0.000
 -0.000   0.000  -0.000   0.000   0.000   0.000  -0.000   0.000  -0.000  -0.000  -0.000  -0.000  -0.000  -0.000  -0.000   0.000
  0.000   0.000   0.000   0.000  -0.000  -0.000  -0.000  -0.000  -0.000   0.000  -0.000  -0.000  -0.000  -0.000   0.000   0.000
  0.000  -0.000   0.000  -0.000  -0.000  -0.000  -0.000  -0.000   0.000   0.000  -0.000   0.000  -0.000  -0.000   0.000   0.000
 -0.000   0.000  -0.000   0.000   0.000  -0.000   0.000  -0.000  -0.000   0.000   0.000  -0.000   0.000  -0.000   0.000   0.000
 -0.000   0.000   0.000  -0.000  -0.000   0.000  -0.000  -0.000  -0.000   0.000  -0.000   0.000  -0.000   0.000  -0.000  -0.000


------------------------ aborting loop because EDIFF is reached ----------------------------------------





 total charge     

# of ion       s       p       d       tot
------------------------------------------
    1        0.362   0.408   8.380   9.150
    2        0.362   0.408   8.380   9.150
    3        0.996   1.438   0.000   2.433
    4        0.996   1.438   0.000   2.433
    5        1.383   2.327   0.000   3.710
    6        1.364   2.303   0.000   3.667
    7        1.377   2.313   0.000   3.690
    8        1.383   2.327   0.000   3.710
    9        1.364   2.303   0.000   3.667
   10        1.377   2.313   0.000   3.690
--------------------------------------------------
tot         10.963  17.579  16.760  45.302



 magnetization (x)

# of ion       s       p       d       tot
------------------------------------------
    1        0.000   0.000  -0.000   0.000
    2        0.000   0.000  -0.000   0.000
    3        0.000  -0.000   0.000  -0.000
    4        0.000  -0.000   0.000  -0.000
    5       -0.000  -0.000   0.000  -0.000
    6        0.000  -0.000   0.000  -0.000
    7        0.000  -0.000   0.000  -0.000
    8       -0.000  -0.000   0.000  -0.000
    9        0.000  -0.000   0.000  -0.000
   10        0.000  -0.000   0.000  -0.000
--------------------------------------------------
tot          0.000  -0.000  -0.000  -0.000

    CHARGE:  cpu time    2.2000: real time    2.2065
    FORLOC:  cpu time    0.0560: real time    0.0559
    FORNL :  cpu time    6.8880: real time    6.9003
    STRESS:  cpu time   20.6520: real time   20.7332
    FORCOR:  cpu time   52.0640: real time   52.1929
    FORHAR:  cpu time    0.3240: real time    0.3217
    MIXING:  cpu time    0.0400: real time    0.0414
    OFIELD:  cpu time    0.0000: real time    0.0001

  FORCE on cell =-STRESS in cart. coord.  units (eV):
  Direction    XX          YY          ZZ          XY          YZ          ZX
  --------------------------------------------------------------------------------------
  Alpha Z    41.48654    41.48654    41.48654
  Ewald   14173.47934 14173.47538-16641.56577    -0.00194    -0.00071    -0.00127
  Hartree 14923.17281 14923.17360-14352.86437    -0.00027     0.00007     0.00011
  E(xc)    -276.34555  -276.34560  -276.35246     0.00006     0.00000     0.00001
  Local  -30048.71185-30048.71046 29992.94939     0.00173     0.00042     0.00077
  n-local   476.80736   477.68329   478.90579     0.45860     0.24302     0.35034
  augment   -19.90833   -19.90860   -24.95725     0.00036     0.00009     0.00001
  Kinetic   733.50518   725.01721   782.33951    -4.47032    -0.43419     0.08863
  Fock        0.00000     0.00000     0.00000     0.00000     0.00000     0.00000
  -------------------------------------------------------------------------------------
  Total      -0.32157    -0.32157    -0.05862     0.00000    -0.00000     0.00000
  in kB      -0.82473    -0.82473    -0.15035     0.00000    -0.00000     0.00000
  external pressure =       -0.60 kB  Pullay stress =        0.00 kB


 VOLUME and BASIS-vectors are now :
 -----------------------------------------------------------------------------
  energy-cutoff  :      520.00
  volume of cell :      624.71
      direct lattice vectors                 reciprocal lattice vectors
     5.818915606  0.000000132  0.000000000     0.171853328 -0.099219554  0.000000000
     2.909457405  5.039328596 -0.000000000    -0.000000005  0.198439136 -0.000000000
    -0.000000000  0.000000000 21.304178139    -0.000000000  0.000000000  0.046939149

  length of vectors
     5.818915606  5.818915284 21.304178139     0.198439125  0.198439136  0.046939149


 FORCES acting on ions
    electron-ion (+dipol)            ewald-force                    non-local-force                 convergence-correction
 -----------------------------------------------------------------------------------------------
   -.241E-03 -.155E-03 0.716E+00   0.963E-03 0.567E-03 -.720E+00   -.694E-17 0.687E-21 0.947E-02   0.853E-07 0.343E-07 -.151E-03
   0.241E-03 0.155E-03 -.716E+00   -.963E-03 -.567E-03 0.720E+00   0.129E-20 -.687E-21 -.947E-02   -.853E-07 -.343E-07 0.151E-03
   -.487E-04 -.249E-04 0.358E+03   -.297E-03 -.165E-03 -.355E+03   -.308E-17 0.137E-16 -.286E+01   0.467E-08 -.841E-10 -.204E-02
   0.487E-04 0.249E-04 -.358E+03   0.297E-03 0.165E-03 0.355E+03   0.482E-17 -.206E-16 0.286E+01   -.467E-08 0.846E-10 0.204E-02
   0.284E+01 -.643E-01 -.616E+03   -.544E+01 0.681E-01 0.620E+03   0.261E+01 -.607E-02 -.361E+01   -.557E-02 -.351E-04 0.194E-02
   -.148E+01 -.243E+01 -.616E+03   0.278E+01 0.467E+01 0.620E+03   -.131E+01 -.226E+01 -.361E+01   0.275E-02 0.484E-02 0.194E-02
   -.137E+01 0.249E+01 -.616E+03   0.266E+01 -.474E+01 0.620E+03   -.130E+01 0.226E+01 -.361E+01   0.281E-02 -.480E-02 0.194E-02
   -.284E+01 0.643E-01 0.616E+03   0.544E+01 -.681E-01 -.620E+03   -.261E+01 0.607E-02 0.361E+01   0.557E-02 0.351E-04 -.194E-02
   0.148E+01 0.243E+01 0.616E+03   -.278E+01 -.467E+01 -.620E+03   0.131E+01 0.226E+01 0.361E+01   -.275E-02 -.484E-02 -.194E-02
   0.137E+01 -.249E+01 0.616E+03   -.266E+01 0.474E+01 -.620E+03   0.130E+01 -.226E+01 0.361E+01   -.281E-02 0.480E-02 -.194E-02
 -----------------------------------------------------------------------------------------------
   0.522E-10 0.863E-10 -.187E-09   0.000E+00 -.711E-14 -.114E-12   0.000E+00 -.444E-15 0.000E+00   -.351E-13 -.685E-12 0.366E-11


 POSITION                                       TOTAL-FORCE (eV/Angst)
 -----------------------------------------------------------------------------------
      2.90945      1.67977     10.65102        -0.000000      0.000000      0.004690
      5.81892      3.35955     10.65315        -0.000000      0.000000     -0.004690
     -0.00000      0.00000      9.55163        -0.000000      0.000000     -0.003595
     -0.00000      0.00000     11.75255        -0.000000      0.000000      0.003595
      3.80412      0.00052     12.14544         0.004620     -0.001500     -0.007824
      1.00785      1.74461     12.14544        -0.003609     -0.003251     -0.007824
      3.91641      3.29421     12.14544        -0.001011      0.004751     -0.007824
      4.92425      5.03881      9.15874        -0.004620      0.001500      0.007824
      7.72052      3.29472      9.15874         0.003609      0.003251      0.007824
      4.81196      1.74512      9.15874         0.001011     -0.004751      0.007824
 -----------------------------------------------------------------------------------
    total drift:                                0.000000      0.000000     -0.000000


--------------------------------------------------------------------------------------------------------



  FREE ENERGIE OF THE ION-ELECTRON SYSTEM (eV)
  ---------------------------------------------------
  free  energy   TOTEN  =       -44.07208378 eV

  energy  without entropy=      -44.07208378  energy(sigma->0) =      -44.07208378

 d Force = 0.6740880E-05[ 0.338E-05, 0.101E-04]  d Energy = 0.3901032E-03-0.383E-03
 d Force =-0.2841736E+00[-0.284E+00,-0.284E+00]  d Ewald  =-0.1299723E+01 0.102E+01


--------------------------------------------------------------------------------------------------------


    POTLOK:  cpu time   52.2560: real time   52.5464


--------------------------------------------------------------------------------------------------------




--------------------------------------------------------------------------------------------------------


  
 reached required accuracy - stopping structural energy minimisation
     LOOP+:  cpu time  530.0280: real time  532.5232
    4ORBIT:  cpu time    0.0000: real time    0.0000



 total charge     

# of ion       s       p       d       tot
------------------------------------------
    1        0.362   0.408   8.380   9.150
    2        0.362   0.408   8.380   9.150
    3        0.996   1.438   0.000   2.433
    4        0.996   1.438   0.000   2.433
    5        1.383   2.327   0.000   3.710
    6        1.364   2.303   0.000   3.667
    7        1.377   2.313   0.000   3.690
    8        1.383   2.327   0.000   3.710
    9        1.364   2.303   0.000   3.667
   10        1.377   2.313   0.000   3.690
--------------------------------------------------
tot         10.963  17.579  16.760  45.302



 magnetization (x)

# of ion       s       p       d       tot
------------------------------------------
    1        0.000   0.000  -0.000   0.000
    2        0.000   0.000  -0.000   0.000
    3        0.000  -0.000   0.000  -0.000
    4        0.000  -0.000   0.000  -0.000
    5       -0.000  -0.000   0.000  -0.000
    6        0.000  -0.000   0.000  -0.000
    7        0.000  -0.000   0.000  -0.000
    8       -0.000  -0.000   0.000  -0.000
    9        0.000  -0.000   0.000  -0.000
   10        0.000  -0.000   0.000  -0.000
--------------------------------------------------
tot          0.000  -0.000  -0.000  -0.000

 BZINTS: Fermi energy: -2.316446; 66.000000 electrons
         Band energy:-527.261123;  BLOECHL correction:  0.000000

 total amount of memory used by VASP MPI-rank0   137757. kBytes
=======================================================================

   base      :      30000. kBytes
   nonlr-proj:      17462. kBytes
   fftplans  :      11247. kBytes
   grid      :      66142. kBytes
   one-center:        311. kBytes
   wavefun   :      12595. kBytes

  
  
 General timing and accounting informations for this job:
 ========================================================
  
                  Total CPU time used (sec):    16558.049
                            User time (sec):    16199.840
                          System time (sec):      358.208
                         Elapsed time (sec):    16644.423
  
                   Maximum memory used (kb):      393468.
                   Average memory used (kb):           0.
  
                          Minor page faults:     14702737
                          Major page faults:            8
                 Voluntary context switches:         1090
