PROCAR lm decomposed
# of k-points:    5         # of bands:   48         # of ions:   10

 k-point     1 :    0.00000000 0.00000000 0.00000000     weight = 0.04000000

band     1 # energy  -19.09414596 # occ.  1.00000000

ion      s     py     pz     px    dxy    dyz    dz2    dxz  x2-y2    tot
    1  0.008  0.000  0.000  0.000  0.000  0.000  0.000  0.000  0.000  0.008
    2  0.008  0.000  0.000  0.000  0.000  0.000  0.000  0.000  0.000  0.008
    3  0.132  0.000  0.001  0.000  0.000  0.000  0.000  0.000  0.000  0.133
    4  0.132  0.000  0.001  0.000  0.000  0.000  0.000  0.000  0.000  0.133
    5  0.053  0.000  0.001  0.004  0.000  0.000  0.000  0.000  0.000  0.057
    6  0.053  0.003  0.001  0.001  0.000  0.000  0.000  0.000  0.000  0.057
    7  0.053  0.003  0.001  0.001  0.000  0.000  0.000  0.000  0.000  0.057
    8  0.053  0.000  0.001  0.004  0.000  0.000  0.000  0.000  0.000  0.057
    9  0.053  0.003  0.001  0.001  0.000  0.000  0.000  0.000  0.000  0.057
   10  0.053  0.003  0.001  0.001  0.000  0.000  0.000  0.000  0.000  0.057
tot    0.597  0.011  0.007  0.011  0.000  0.000  0.000  0.000  0.000  0.626

band     2 # energy  -17.74063401 # occ.  1.00000000

ion      s     py     pz     px    dxy    dyz    dz2    dxz  x2-y2    tot
    1  0.000  0.000  0.004  0.000  0.000  0.000  0.000  0.000  0.000  0.004
    2  0.000  0.000  0.004  0.000  0.000  0.000  0.000  0.000  0.000  0.004
    3  0.094  0.000  0.004  0.000  0.000  0.000  0.000  0.000  0.000  0.098
    4  0.094  0.000  0.004  0.000  0.000  0.000  0.000  0.000  0.000  0.098
    5  0.073  0.000  0.000  0.004  0.000  0.000  0.000  0.000  0.000  0.077
    6  0.073  0.003  0.000  0.001  0.000  0.000  0.000  0.000  0.000  0.077
    7  0.073  0.003  0.000  0.001  0.000  0.000  0.000  0.000  0.000  0.077
    8  0.073  0.000  0.000  0.004  0.000  0.000  0.000  0.000  0.000  0.077
    9  0.073  0.003  0.000  0.001  0.000  0.000  0.000  0.000  0.000  0.077
   10  0.073  0.003  0.000  0.001  0.000  0.000  0.000  0.000  0.000  0.077
tot    0.625  0.012  0.017  0.012  0.000  0.000  0.000  0.000  0.000  0.667

band     3 # energy  -15.81288433 # occ.  1.00000000

ion      s     py     pz     px    dxy    dyz    dz2    dxz  x2-y2    tot
    1  0.000  0.000  0.000  0.002  0.003  0.004  0.000  0.000  0.000  0.009
    2  0.000  0.000  0.000  0.002  0.003  0.004  0.000  0.000  0.000  0.009
    3  0.000  0.000  0.000  0.031  0.000  0.000  0.000  0.000  0.000  0.031
    4  0.000  0.000  0.000  0.031  0.000  0.000  0.000  0.000  0.000  0.031
    5  0.204  0.000  0.001  0.005  0.000  0.000  0.000  0.000  0.000  0.210
    6  0.047  0.001  0.000  0.000  0.000  0.000  0.000  0.000  0.000  0.049
    7  0.055  0.001  0.000  0.000  0.000  0.000  0.000  0.000  0.000  0.057
    8  0.204  0.000  0.001  0.005  0.000  0.000  0.000  0.000  0.000  0.210
    9  0.047  0.001  0.000  0.000  0.000  0.000  0.000  0.000  0.000  0.049
   10  0.055  0.001  0.000  0.000  0.000  0.000  0.000  0.000  0.000  0.057
tot    0.611  0.005  0.004  0.077  0.005  0.008  0.000  0.000  0.000  0.710

band     4 # energy  -15.81282859 # occ.  1.00000000

ion      s     py     pz     px    dxy    dyz    dz2    dxz  x2-y2    tot
    1  0.000  0.002  0.000  0.000  0.000  0.000  0.000  0.004  0.003  0.009
    2  0.000  0.002  0.000  0.000  0.000  0.000  0.000  0.004  0.003  0.009
    3  0.000  0.031  0.000  0.000  0.000  0.000  0.000  0.000  0.000  0.031
    4  0.000  0.031  0.000  0.000  0.000  0.000  0.000  0.000  0.000  0.031
    5  0.000  0.000  0.000  0.000  0.000  0.000  0.000  0.000  0.000  0.000
    6  0.157  0.003  0.001  0.001  0.000  0.000  0.000  0.000  0.000  0.161
    7  0.149  0.002  0.001  0.001  0.000  0.000  0.000  0.000  0.000  0.154
    8  0.000  0.000  0.000  0.000  0.000  0.000  0.000  0.000  0.000  0.000
    9  0.157  0.003  0.001  0.001  0.000  0.000  0.000  0.000  0.000  0.161
   10  0.149  0.002  0.001  0.001  0.000  0.000  0.000  0.000  0.000  0.154
tot    0.611  0.077  0.004  0.005  0.000  0.000  0.000  0.008  0.005  0.710

band     5 # energy  -15.60106341 # occ.  1.00000000

ion      s     py     pz     px    dxy    dyz    dz2    dxz  x2-y2    tot
    1  0.000  0.006  0.000  0.000  0.000  0.000  0.000  0.002  0.001  0.008
    2  0.000  0.006  0.000  0.000  0.000  0.000  0.000  0.002  0.001  0.008
    3  0.000  0.000  0.000  0.022  0.000  0.000  0.000  0.000  0.000  0.022
    4  0.000  0.000  0.000  0.022  0.000  0.000  0.000  0.000  0.000  0.022
    5  0.216  0.000  0.001  0.003  0.000  0.000  0.000  0.000  0.000  0.220
    6  0.067  0.001  0.000  0.000  0.000  0.000  0.000  0.000  0.000  0.069
    7  0.042  0.000  0.000  0.000  0.000  0.000  0.000  0.000  0.000  0.043
    8  0.216  0.000  0.001  0.003  0.000  0.000  0.000  0.000  0.000  0.220
    9  0.067  0.001  0.000  0.000  0.000  0.000  0.000  0.000  0.000  0.069
   10  0.042  0.000  0.000  0.000  0.000  0.000  0.000  0.000  0.000  0.043
tot    0.651  0.014  0.003  0.051  0.000  0.000  0.000  0.003  0.002  0.725

band     6 # energy  -15.60102017 # occ.  1.00000000

ion      s     py     pz     px    dxy    dyz    dz2    dxz  x2-y2    tot
    1  0.000  0.000  0.000  0.006  0.001  0.002  0.000  0.000  0.000  0.008
    2  0.000  0.000  0.000  0.006  0.001  0.002  0.000  0.000  0.000  0.008
    3  0.000  0.022  0.000  0.000  0.000  0.000  0.000  0.000  0.000  0.022
    4  0.000  0.022  0.000  0.000  0.000  0.000  0.000  0.000  0.000  0.022
    5  0.001  0.000  0.000  0.000  0.000  0.000  0.000  0.000  0.000  0.001
    6  0.150  0.002  0.001  0.001  0.000  0.000  0.000  0.000  0.000  0.153
    7  0.175  0.002  0.001  0.001  0.000  0.000  0.000  0.000  0.000  0.178
    8  0.001  0.000  0.000  0.000  0.000  0.000  0.000  0.000  0.000  0.001
    9  0.150  0.002  0.001  0.001  0.000  0.000  0.000  0.000  0.000  0.153
   10  0.175  0.002  0.001  0.001  0.000  0.000  0.000  0.000  0.000  0.178
tot    0.651  0.051  0.003  0.014  0.002  0.003  0.000  0.000  0.000  0.725

band     7 # energy  -13.37489386 # occ.  1.00000000

ion      s     py     pz     px    dxy    dyz    dz2    dxz  x2-y2    tot
    1  0.023  0.000  0.000  0.000  0.000  0.000  0.001  0.000  0.000  0.024
    2  0.023  0.000  0.000  0.000  0.000  0.000  0.001  0.000  0.000  0.024
    3  0.116  0.000  0.015  0.000  0.000  0.000  0.000  0.000  0.000  0.131
    4  0.116  0.000  0.015  0.000  0.000  0.000  0.000  0.000  0.000  0.131
    5  0.043  0.000  0.000  0.011  0.000  0.000  0.000  0.000  0.000  0.055
    6  0.043  0.008  0.000  0.003  0.000  0.000  0.000  0.000  0.000  0.055
    7  0.043  0.008  0.000  0.003  0.000  0.000  0.000  0.000  0.000  0.055
    8  0.043  0.000  0.000  0.011  0.000  0.000  0.000  0.000  0.000  0.055
    9  0.043  0.008  0.000  0.003  0.000  0.000  0.000  0.000  0.000  0.055
   10  0.043  0.008  0.000  0.003  0.000  0.000  0.000  0.000  0.000  0.055
tot    0.539  0.034  0.030  0.034  0.000  0.000  0.001  0.000  0.000  0.638

band     8 # energy  -11.38487802 # occ.  1.00000000

ion      s     py     pz     px    dxy    dyz    dz2    dxz  x2-y2    tot
    1  0.000  0.000  0.013  0.000  0.000  0.000  0.000  0.000  0.000  0.013
    2  0.000  0.000  0.013  0.000  0.000  0.000  0.000  0.000  0.000  0.013
    3  0.131  0.000  0.006  0.000  0.000  0.000  0.000  0.000  0.000  0.137
    4  0.131  0.000  0.006  0.000  0.000  0.000  0.000  0.000  0.000  0.137
    5  0.033  0.000  0.000  0.027  0.000  0.000  0.000  0.000  0.000  0.059
    6  0.033  0.020  0.000  0.007  0.000  0.000  0.000  0.000  0.000  0.059
    7  0.033  0.020  0.000  0.007  0.000  0.000  0.000  0.000  0.000  0.059
    8  0.033  0.000  0.000  0.027  0.000  0.000  0.000  0.000  0.000  0.059
    9  0.033  0.020  0.000  0.007  0.000  0.000  0.000  0.000  0.000  0.059
   10  0.033  0.020  0.000  0.007  0.000  0.000  0.000  0.000  0.000  0.059
tot    0.457  0.080  0.037  0.080  0.000  0.000  0.000  0.000  0.000  0.655

band     9 # energy   -9.38746337 # occ.  1.00000000

ion      s     py     pz     px    dxy    dyz    dz2    dxz  x2-y2    tot
    1  0.032  0.000  0.000  0.000  0.000  0.000  0.003  0.000  0.000  0.035
    2  0.032  0.000  0.000  0.000  0.000  0.000  0.003  0.000  0.000  0.035
    3  0.002  0.000  0.105  0.000  0.000  0.000  0.000  0.000  0.000  0.107
    4  0.002  0.000  0.105  0.000  0.000  0.000  0.000  0.000  0.000  0.107
    5  0.001  0.000  0.022  0.012  0.000  0.000  0.000  0.000  0.000  0.035
    6  0.001  0.009  0.022  0.003  0.000  0.000  0.000  0.000  0.000  0.035
    7  0.001  0.009  0.022  0.003  0.000  0.000  0.000  0.000  0.000  0.035
    8  0.001  0.000  0.022  0.012  0.000  0.000  0.000  0.000  0.000  0.035
    9  0.001  0.009  0.022  0.003  0.000  0.000  0.000  0.000  0.000  0.035
   10  0.001  0.009  0.022  0.003  0.000  0.000  0.000  0.000  0.000  0.035
tot    0.075  0.036  0.343  0.036  0.000  0.000  0.007  0.000  0.000  0.497

band    10 # energy   -8.95392757 # occ.  1.00000000

ion      s     py     pz     px    dxy    dyz    dz2    dxz  x2-y2    tot
    1  0.000  0.001  0.000  0.000  0.000  0.010  0.000  0.024  0.000  0.035
    2  0.000  0.001  0.000  0.000  0.000  0.010  0.000  0.024  0.000  0.035
    3  0.000  0.048  0.000  0.019  0.000  0.000  0.000  0.000  0.000  0.067
    4  0.000  0.048  0.000  0.019  0.000  0.000  0.000  0.000  0.000  0.067
    5  0.007  0.015  0.001  0.020  0.000  0.000  0.000  0.000  0.000  0.043
    6  0.024  0.054  0.004  0.016  0.000  0.000  0.000  0.000  0.000  0.097
    7  0.005  0.002  0.001  0.029  0.000  0.000  0.000  0.000  0.000  0.037
    8  0.007  0.015  0.001  0.020  0.000  0.000  0.000  0.000  0.000  0.043
    9  0.024  0.054  0.004  0.016  0.000  0.000  0.000  0.000  0.000  0.097
   10  0.005  0.002  0.001  0.029  0.000  0.000  0.000  0.000  0.000  0.037
tot    0.071  0.237  0.011  0.171  0.000  0.020  0.000  0.048  0.000  0.558

band    11 # energy   -8.95389540 # occ.  1.00000000

ion      s     py     pz     px    dxy    dyz    dz2    dxz  x2-y2    tot
    1  0.000  0.000  0.000  0.001  0.000  0.024  0.000  0.010  0.000  0.035
    2  0.000  0.000  0.000  0.001  0.000  0.024  0.000  0.010  0.000  0.035
    3  0.000  0.019  0.000  0.048  0.000  0.000  0.000  0.000  0.000  0.067
    4  0.000  0.019  0.000  0.048  0.000  0.000  0.000  0.000  0.000  0.067
    5  0.017  0.006  0.003  0.050  0.000  0.000  0.000  0.000  0.000  0.075
    6  0.000  0.004  0.000  0.017  0.000  0.000  0.000  0.000  0.000  0.021
    7  0.019  0.056  0.003  0.004  0.000  0.000  0.000  0.000  0.000  0.081
    8  0.017  0.006  0.003  0.050  0.000  0.000  0.000  0.000  0.000  0.075
    9  0.000  0.004  0.000  0.017  0.000  0.000  0.000  0.000  0.000  0.021
   10  0.019  0.056  0.003  0.004  0.000  0.000  0.000  0.000  0.000  0.081
tot    0.071  0.171  0.011  0.237  0.000  0.048  0.000  0.020  0.000  0.558

band    12 # energy   -8.62094171 # occ.  1.00000000

ion      s     py     pz     px    dxy    dyz    dz2    dxz  x2-y2    tot
    1  0.000  0.013  0.000  0.006  0.002  0.001  0.000  0.001  0.004  0.027
    2  0.000  0.013  0.000  0.006  0.002  0.001  0.000  0.001  0.004  0.027
    3  0.000  0.021  0.000  0.042  0.000  0.000  0.000  0.000  0.000  0.063
    4  0.000  0.021  0.000  0.042  0.000  0.000  0.000  0.000  0.000  0.063
    5  0.004  0.007  0.002  0.059  0.000  0.000  0.000  0.000  0.000  0.071
    6  0.005  0.070  0.002  0.006  0.000  0.000  0.000  0.000  0.000  0.083
    7  0.000  0.003  0.000  0.020  0.000  0.000  0.000  0.000  0.000  0.023
    8  0.004  0.007  0.002  0.059  0.000  0.000  0.000  0.000  0.000  0.071
    9  0.005  0.070  0.002  0.006  0.000  0.000  0.000  0.000  0.000  0.083
   10  0.000  0.003  0.000  0.020  0.000  0.000  0.000  0.000  0.000  0.023
tot    0.017  0.228  0.007  0.268  0.004  0.001  0.000  0.003  0.008  0.535

band    13 # energy   -8.62091853 # occ.  1.00000000

ion      s     py     pz     px    dxy    dyz    dz2    dxz  x2-y2    tot
    1  0.000  0.006  0.000  0.013  0.004  0.001  0.000  0.001  0.002  0.027
    2  0.000  0.006  0.000  0.013  0.004  0.001  0.000  0.001  0.002  0.027
    3  0.000  0.042  0.000  0.021  0.000  0.000  0.000  0.000  0.000  0.063
    4  0.000  0.042  0.000  0.021  0.000  0.000  0.000  0.000  0.000  0.063
    5  0.002  0.015  0.001  0.029  0.000  0.000  0.000  0.000  0.000  0.047
    6  0.001  0.002  0.000  0.032  0.000  0.000  0.000  0.000  0.000  0.035
    7  0.006  0.069  0.002  0.018  0.000  0.000  0.000  0.000  0.000  0.095
    8  0.002  0.015  0.001  0.029  0.000  0.000  0.000  0.000  0.000  0.047
    9  0.001  0.002  0.000  0.032  0.000  0.000  0.000  0.000  0.000  0.035
   10  0.006  0.069  0.002  0.018  0.000  0.000  0.000  0.000  0.000  0.095
tot    0.017  0.268  0.007  0.228  0.008  0.003  0.000  0.001  0.004  0.535

band    14 # energy   -7.61301075 # occ.  1.00000000

ion      s     py     pz     px    dxy    dyz    dz2    dxz  x2-y2    tot
    1  0.084  0.000  0.000  0.000  0.000  0.000  0.020  0.000  0.000  0.104
    2  0.084  0.000  0.000  0.000  0.000  0.000  0.020  0.000  0.000  0.104
    3  0.000  0.000  0.000  0.000  0.000  0.000  0.000  0.000  0.000  0.000
    4  0.000  0.000  0.000  0.000  0.000  0.000  0.000  0.000  0.000  0.000
    5  0.000  0.058  0.000  0.000  0.000  0.000  0.000  0.000  0.000  0.058
    6  0.000  0.015  0.000  0.044  0.000  0.000  0.000  0.000  0.000  0.058
    7  0.000  0.015  0.000  0.044  0.000  0.000  0.000  0.000  0.000  0.058
    8  0.000  0.058  0.000  0.000  0.000  0.000  0.000  0.000  0.000  0.058
    9  0.000  0.015  0.000  0.044  0.000  0.000  0.000  0.000  0.000  0.058
   10  0.000  0.015  0.000  0.044  0.000  0.000  0.000  0.000  0.000  0.058
tot    0.168  0.175  0.000  0.175  0.000  0.000  0.040  0.000  0.000  0.558

band    15 # energy   -6.28463754 # occ.  1.00000000

ion      s     py     pz     px    dxy    dyz    dz2    dxz  x2-y2    tot
    1  0.000  0.000  0.042  0.000  0.000  0.000  0.000  0.000  0.000  0.042
    2  0.000  0.000  0.042  0.000  0.000  0.000  0.000  0.000  0.000  0.042
    3  0.000  0.000  0.000  0.000  0.000  0.000  0.000  0.000  0.000  0.000
    4  0.000  0.000  0.000  0.000  0.000  0.000  0.000  0.000  0.000  0.000
    5  0.000  0.074  0.000  0.000  0.000  0.000  0.000  0.000  0.000  0.074
    6  0.000  0.019  0.000  0.056  0.000  0.000  0.000  0.000  0.000  0.074
    7  0.000  0.019  0.000  0.056  0.000  0.000  0.000  0.000  0.000  0.074
    8  0.000  0.074  0.000  0.000  0.000  0.000  0.000  0.000  0.000  0.074
    9  0.000  0.019  0.000  0.056  0.000  0.000  0.000  0.000  0.000  0.074
   10  0.000  0.019  0.000  0.056  0.000  0.000  0.000  0.000  0.000  0.074
tot    0.000  0.223  0.084  0.223  0.000  0.000  0.000  0.000  0.000  0.531

band    16 # energy   -5.74548638 # occ.  1.00000000

ion      s     py     pz     px    dxy    dyz    dz2    dxz  x2-y2    tot
    1  0.000  0.000  0.000  0.003  0.078  0.072  0.000  0.004  0.004  0.161
    2  0.000  0.000  0.000  0.003  0.078  0.072  0.000  0.004  0.004  0.161
    3  0.000  0.000  0.000  0.000  0.000  0.000  0.000  0.000  0.000  0.000
    4  0.000  0.000  0.000  0.000  0.000  0.000  0.000  0.000  0.000  0.000
    5  0.005  0.000  0.098  0.005  0.000  0.000  0.000  0.000  0.000  0.108
    6  0.002  0.003  0.048  0.000  0.000  0.000  0.000  0.000  0.000  0.054
    7  0.000  0.001  0.009  0.001  0.000  0.000  0.000  0.000  0.000  0.011
    8  0.005  0.000  0.098  0.005  0.000  0.000  0.000  0.000  0.000  0.108
    9  0.002  0.003  0.048  0.000  0.000  0.000  0.000  0.000  0.000  0.054
   10  0.000  0.001  0.009  0.001  0.000  0.000  0.000  0.000  0.000  0.011
tot    0.016  0.010  0.309  0.017  0.156  0.144  0.000  0.008  0.009  0.668

band    17 # energy   -5.74546265 # occ.  1.00000000

ion      s     py     pz     px    dxy    dyz    dz2    dxz  x2-y2    tot
    1  0.000  0.003  0.000  0.000  0.004  0.004  0.000  0.072  0.078  0.161
    2  0.000  0.003  0.000  0.000  0.004  0.004  0.000  0.072  0.078  0.161
    3  0.000  0.000  0.000  0.000  0.000  0.000  0.000  0.000  0.000  0.000
    4  0.000  0.000  0.000  0.000  0.000  0.000  0.000  0.000  0.000  0.000
    5  0.000  0.002  0.005  0.000  0.000  0.000  0.000  0.000  0.000  0.008
    6  0.003  0.001  0.055  0.003  0.000  0.000  0.000  0.000  0.000  0.061
    7  0.005  0.003  0.095  0.002  0.000  0.000  0.000  0.000  0.000  0.104
    8  0.000  0.002  0.005  0.000  0.000  0.000  0.000  0.000  0.000  0.008
    9  0.003  0.001  0.055  0.003  0.000  0.000  0.000  0.000  0.000  0.061
   10  0.005  0.003  0.095  0.002  0.000  0.000  0.000  0.000  0.000  0.104
tot    0.016  0.017  0.309  0.010  0.009  0.008  0.000  0.144  0.156  0.668

band    18 # energy   -5.72024066 # occ.  1.00000000

ion      s     py     pz     px    dxy    dyz    dz2    dxz  x2-y2    tot
    1  0.000  0.000  0.000  0.000  0.001  0.001  0.000  0.133  0.119  0.254
    2  0.000  0.000  0.000  0.000  0.001  0.001  0.000  0.133  0.119  0.254
    3  0.000  0.000  0.000  0.000  0.000  0.000  0.000  0.000  0.000  0.000
    4  0.000  0.000  0.000  0.000  0.000  0.000  0.000  0.000  0.000  0.000
    5  0.000  0.000  0.018  0.011  0.000  0.000  0.000  0.000  0.000  0.030
    6  0.000  0.005  0.003  0.046  0.000  0.000  0.000  0.000  0.000  0.054
    7  0.000  0.002  0.006  0.041  0.000  0.000  0.000  0.000  0.000  0.050
    8  0.000  0.000  0.018  0.011  0.000  0.000  0.000  0.000  0.000  0.030
    9  0.000  0.005  0.003  0.046  0.000  0.000  0.000  0.000  0.000  0.054
   10  0.000  0.002  0.006  0.041  0.000  0.000  0.000  0.000  0.000  0.050
tot    0.001  0.016  0.055  0.197  0.002  0.002  0.000  0.266  0.237  0.776

band    19 # energy   -5.72022323 # occ.  1.00000000

ion      s     py     pz     px    dxy    dyz    dz2    dxz  x2-y2    tot
    1  0.000  0.000  0.000  0.000  0.119  0.133  0.000  0.001  0.001  0.254
    2  0.000  0.000  0.000  0.000  0.119  0.133  0.000  0.001  0.001  0.254
    3  0.000  0.000  0.000  0.000  0.000  0.000  0.000  0.000  0.000  0.000
    4  0.000  0.000  0.000  0.000  0.000  0.000  0.000  0.000  0.000  0.000
    5  0.000  0.059  0.000  0.000  0.000  0.000  0.000  0.000  0.000  0.059
    6  0.000  0.018  0.015  0.002  0.000  0.000  0.000  0.000  0.000  0.035
    7  0.000  0.021  0.012  0.006  0.000  0.000  0.000  0.000  0.000  0.039
    8  0.000  0.059  0.000  0.000  0.000  0.000  0.000  0.000  0.000  0.059
    9  0.000  0.018  0.015  0.002  0.000  0.000  0.000  0.000  0.000  0.035
   10  0.000  0.021  0.012  0.006  0.000  0.000  0.000  0.000  0.000  0.039
tot    0.001  0.197  0.055  0.016  0.237  0.266  0.000  0.002  0.002  0.776

band    20 # energy   -5.55264553 # occ.  1.00000000

ion      s     py     pz     px    dxy    dyz    dz2    dxz  x2-y2    tot
    1  0.015  0.000  0.000  0.000  0.000  0.000  0.105  0.000  0.000  0.120
    2  0.015  0.000  0.000  0.000  0.000  0.000  0.105  0.000  0.000  0.120
    3  0.001  0.000  0.071  0.000  0.000  0.000  0.000  0.000  0.000  0.073
    4  0.001  0.000  0.071  0.000  0.000  0.000  0.000  0.000  0.000  0.073
    5  0.001  0.000  0.026  0.010  0.000  0.000  0.000  0.000  0.000  0.037
    6  0.001  0.007  0.026  0.002  0.000  0.000  0.000  0.000  0.000  0.037
    7  0.001  0.007  0.026  0.003  0.000  0.000  0.000  0.000  0.000  0.037
    8  0.001  0.000  0.026  0.010  0.000  0.000  0.000  0.000  0.000  0.037
    9  0.001  0.007  0.026  0.002  0.000  0.000  0.000  0.000  0.000  0.037
   10  0.001  0.007  0.026  0.003  0.000  0.000  0.000  0.000  0.000  0.037
tot    0.038  0.030  0.299  0.030  0.000  0.000  0.211  0.000  0.000  0.608

band    21 # energy   -5.37164173 # occ.  1.00000000

ion      s     py     pz     px    dxy    dyz    dz2    dxz  x2-y2    tot
    1  0.000  0.000  0.009  0.000  0.000  0.000  0.000  0.000  0.000  0.009
    2  0.000  0.000  0.009  0.000  0.000  0.000  0.000  0.000  0.000  0.009
    3  0.004  0.000  0.023  0.000  0.000  0.000  0.000  0.000  0.000  0.027
    4  0.004  0.000  0.023  0.000  0.000  0.000  0.000  0.000  0.000  0.027
    5  0.000  0.000  0.071  0.000  0.000  0.000  0.000  0.000  0.000  0.071
    6  0.000  0.000  0.071  0.000  0.000  0.000  0.000  0.000  0.000  0.071
    7  0.000  0.000  0.071  0.000  0.000  0.000  0.000  0.000  0.000  0.071
    8  0.000  0.000  0.071  0.000  0.000  0.000  0.000  0.000  0.000  0.071
    9  0.000  0.000  0.071  0.000  0.000  0.000  0.000  0.000  0.000  0.071
   10  0.000  0.000  0.071  0.000  0.000  0.000  0.000  0.000  0.000  0.071
tot    0.008  0.001  0.488  0.001  0.000  0.000  0.000  0.000  0.000  0.498

band    22 # energy   -5.06628723 # occ.  1.00000000

ion      s     py     pz     px    dxy    dyz    dz2    dxz  x2-y2    tot
    1  0.000  0.014  0.000  0.002  0.000  0.001  0.000  0.007  0.002  0.026
    2  0.000  0.014  0.000  0.002  0.000  0.001  0.000  0.007  0.002  0.026
    3  0.000  0.002  0.000  0.013  0.000  0.000  0.000  0.000  0.000  0.015
    4  0.000  0.002  0.000  0.013  0.000  0.000  0.000  0.000  0.000  0.015
    5  0.007  0.001  0.114  0.016  0.000  0.000  0.000  0.000  0.000  0.139
    6  0.005  0.002  0.073  0.014  0.000  0.000  0.000  0.000  0.000  0.094
    7  0.000  0.001  0.004  0.013  0.000  0.000  0.000  0.000  0.000  0.019
    8  0.007  0.001  0.114  0.016  0.000  0.000  0.000  0.000  0.000  0.139
    9  0.005  0.002  0.073  0.014  0.000  0.000  0.000  0.000  0.000  0.094
   10  0.000  0.001  0.004  0.013  0.000  0.000  0.000  0.000  0.000  0.019
tot    0.025  0.042  0.382  0.115  0.000  0.002  0.000  0.014  0.003  0.584

band    23 # energy   -5.06626990 # occ.  1.00000000

ion      s     py     pz     px    dxy    dyz    dz2    dxz  x2-y2    tot
    1  0.000  0.002  0.000  0.014  0.002  0.007  0.000  0.001  0.000  0.026
    2  0.000  0.002  0.000  0.014  0.002  0.007  0.000  0.001  0.000  0.026
    3  0.000  0.013  0.000  0.002  0.000  0.000  0.000  0.000  0.000  0.015
    4  0.000  0.013  0.000  0.002  0.000  0.000  0.000  0.000  0.000  0.015
    5  0.001  0.012  0.014  0.002  0.000  0.000  0.000  0.000  0.000  0.029
    6  0.004  0.014  0.054  0.001  0.000  0.000  0.000  0.000  0.000  0.073
    7  0.008  0.016  0.123  0.002  0.000  0.000  0.000  0.000  0.000  0.149
    8  0.001  0.012  0.014  0.002  0.000  0.000  0.000  0.000  0.000  0.029
    9  0.004  0.014  0.054  0.001  0.000  0.000  0.000  0.000  0.000  0.073
   10  0.008  0.016  0.123  0.002  0.000  0.000  0.000  0.000  0.000  0.149
tot    0.025  0.115  0.382  0.042  0.003  0.014  0.000  0.002  0.000  0.584

band    24 # energy   -4.28760315 # occ.  1.00000000

ion      s     py     pz     px    dxy    dyz    dz2    dxz  x2-y2    tot
    1  0.000  0.002  0.000  0.009  0.063  0.063  0.000  0.014  0.015  0.165
    2  0.000  0.002  0.000  0.009  0.063  0.063  0.000  0.014  0.015  0.165
    3  0.000  0.004  0.000  0.016  0.000  0.000  0.000  0.000  0.000  0.019
    4  0.000  0.004  0.000  0.016  0.000  0.000  0.000  0.000  0.000  0.019
    5  0.003  0.014  0.000  0.032  0.000  0.000  0.000  0.000  0.000  0.050
    6  0.000  0.016  0.000  0.061  0.000  0.000  0.000  0.000  0.000  0.077
    7  0.003  0.004  0.000  0.047  0.000  0.000  0.000  0.000  0.000  0.054
    8  0.003  0.014  0.000  0.032  0.000  0.000  0.000  0.000  0.000  0.050
    9  0.000  0.016  0.000  0.061  0.000  0.000  0.000  0.000  0.000  0.077
   10  0.003  0.004  0.000  0.047  0.000  0.000  0.000  0.000  0.000  0.054
tot    0.012  0.079  0.001  0.329  0.126  0.125  0.000  0.029  0.029  0.730

band    25 # energy   -4.28757080 # occ.  1.00000000

ion      s     py     pz     px    dxy    dyz    dz2    dxz  x2-y2    tot
    1  0.000  0.009  0.000  0.002  0.015  0.014  0.000  0.063  0.063  0.165
    2  0.000  0.009  0.000  0.002  0.015  0.014  0.000  0.063  0.063  0.165
    3  0.000  0.016  0.000  0.004  0.000  0.000  0.000  0.000  0.000  0.019
    4  0.000  0.016  0.000  0.004  0.000  0.000  0.000  0.000  0.000  0.019
    5  0.001  0.062  0.000  0.007  0.000  0.000  0.000  0.000  0.000  0.071
    6  0.004  0.033  0.000  0.006  0.000  0.000  0.000  0.000  0.000  0.044
    7  0.001  0.045  0.000  0.020  0.000  0.000  0.000  0.000  0.000  0.066
    8  0.001  0.062  0.000  0.007  0.000  0.000  0.000  0.000  0.000  0.071
    9  0.004  0.033  0.000  0.006  0.000  0.000  0.000  0.000  0.000  0.044
   10  0.001  0.045  0.000  0.020  0.000  0.000  0.000  0.000  0.000  0.066
tot    0.012  0.329  0.001  0.079  0.029  0.029  0.000  0.125  0.126  0.730

band    26 # energy   -4.02680268 # occ.  1.00000000

ion      s     py     pz     px    dxy    dyz    dz2    dxz  x2-y2    tot
    1  0.000  0.000  0.000  0.000  0.114  0.112  0.000  0.109  0.110  0.446
    2  0.000  0.000  0.000  0.000  0.114  0.112  0.000  0.109  0.110  0.446
    3  0.000  0.002  0.000  0.001  0.000  0.000  0.000  0.000  0.000  0.003
    4  0.000  0.002  0.000  0.001  0.000  0.000  0.000  0.000  0.000  0.003
    5  0.000  0.001  0.002  0.000  0.000  0.000  0.000  0.000  0.000  0.003
    6  0.000  0.000  0.003  0.000  0.000  0.000  0.000  0.000  0.000  0.004
    7  0.000  0.000  0.000  0.001  0.000  0.000  0.000  0.000  0.000  0.002
    8  0.000  0.001  0.002  0.000  0.000  0.000  0.000  0.000  0.000  0.003
    9  0.000  0.000  0.003  0.000  0.000  0.000  0.000  0.000  0.000  0.004
   10  0.000  0.000  0.000  0.001  0.000  0.000  0.000  0.000  0.000  0.002
tot    0.000  0.006  0.011  0.006  0.229  0.224  0.000  0.217  0.221  0.914

band    27 # energy   -4.02679419 # occ.  1.00000000

ion      s     py     pz     px    dxy    dyz    dz2    dxz  x2-y2    tot
    1  0.000  0.000  0.000  0.000  0.110  0.109  0.000  0.112  0.114  0.446
    2  0.000  0.000  0.000  0.000  0.110  0.109  0.000  0.112  0.114  0.446
    3  0.000  0.001  0.000  0.002  0.000  0.000  0.000  0.000  0.000  0.003
    4  0.000  0.001  0.000  0.002  0.000  0.000  0.000  0.000  0.000  0.003
    5  0.000  0.001  0.002  0.000  0.000  0.000  0.000  0.000  0.000  0.003
    6  0.000  0.000  0.000  0.001  0.000  0.000  0.000  0.000  0.000  0.002
    7  0.000  0.000  0.003  0.000  0.000  0.000  0.000  0.000  0.000  0.004
    8  0.000  0.001  0.002  0.000  0.000  0.000  0.000  0.000  0.000  0.003
    9  0.000  0.000  0.000  0.001  0.000  0.000  0.000  0.000  0.000  0.002
   10  0.000  0.000  0.003  0.000  0.000  0.000  0.000  0.000  0.000  0.004
tot    0.000  0.006  0.011  0.006  0.221  0.217  0.000  0.224  0.229  0.914

band    28 # energy   -3.74757769 # occ.  1.00000000

ion      s     py     pz     px    dxy    dyz    dz2    dxz  x2-y2    tot
    1  0.009  0.000  0.000  0.000  0.000  0.000  0.455  0.000  0.000  0.464
    2  0.009  0.000  0.000  0.000  0.000  0.000  0.455  0.000  0.000  0.464
    3  0.000  0.000  0.000  0.000  0.000  0.000  0.000  0.000  0.000  0.000
    4  0.000  0.000  0.000  0.000  0.000  0.000  0.000  0.000  0.000  0.000
    5  0.000  0.003  0.000  0.000  0.000  0.000  0.000  0.000  0.000  0.003
    6  0.000  0.001  0.000  0.002  0.000  0.000  0.000  0.000  0.000  0.003
    7  0.000  0.001  0.000  0.002  0.000  0.000  0.000  0.000  0.000  0.003
    8  0.000  0.003  0.000  0.000  0.000  0.000  0.000  0.000  0.000  0.003
    9  0.000  0.001  0.000  0.002  0.000  0.000  0.000  0.000  0.000  0.003
   10  0.000  0.001  0.000  0.002  0.000  0.000  0.000  0.000  0.000  0.003
tot    0.018  0.008  0.000  0.008  0.000  0.000  0.911  0.000  0.000  0.944

band    29 # energy   -3.68371324 # occ.  1.00000000

ion      s     py     pz     px    dxy    dyz    dz2    dxz  x2-y2    tot
    1  0.010  0.000  0.000  0.000  0.000  0.000  0.350  0.000  0.000  0.360
    2  0.010  0.000  0.000  0.000  0.000  0.000  0.350  0.000  0.000  0.360
    3  0.001  0.000  0.017  0.000  0.000  0.000  0.000  0.000  0.000  0.017
    4  0.001  0.000  0.017  0.000  0.000  0.000  0.000  0.000  0.000  0.017
    5  0.002  0.000  0.013  0.001  0.000  0.000  0.000  0.000  0.000  0.016
    6  0.002  0.001  0.013  0.000  0.000  0.000  0.000  0.000  0.000  0.016
    7  0.002  0.001  0.013  0.000  0.000  0.000  0.000  0.000  0.000  0.016
    8  0.002  0.000  0.013  0.001  0.000  0.000  0.000  0.000  0.000  0.016
    9  0.002  0.001  0.013  0.000  0.000  0.000  0.000  0.000  0.000  0.016
   10  0.002  0.001  0.013  0.000  0.000  0.000  0.000  0.000  0.000  0.016
tot    0.031  0.002  0.113  0.002  0.000  0.000  0.699  0.000  0.000  0.849

band    30 # energy   -3.54219621 # occ.  1.00000000

ion      s     py     pz     px    dxy    dyz    dz2    dxz  x2-y2    tot
    1  0.000  0.000  0.000  0.006  0.228  0.072  0.000  0.000  0.002  0.309
    2  0.000  0.000  0.000  0.006  0.228  0.072  0.000  0.000  0.002  0.309
    3  0.000  0.000  0.000  0.000  0.000  0.000  0.000  0.000  0.000  0.000
    4  0.000  0.000  0.000  0.000  0.000  0.000  0.000  0.000  0.000  0.000
    5  0.000  0.000  0.006  0.012  0.000  0.000  0.000  0.000  0.000  0.018
    6  0.000  0.002  0.002  0.041  0.000  0.000  0.000  0.000  0.000  0.044
    7  0.000  0.005  0.001  0.044  0.000  0.000  0.000  0.000  0.000  0.050
    8  0.000  0.000  0.006  0.012  0.000  0.000  0.000  0.000  0.000  0.018
    9  0.000  0.002  0.002  0.041  0.000  0.000  0.000  0.000  0.000  0.044
   10  0.000  0.005  0.001  0.044  0.000  0.000  0.000  0.000  0.000  0.050
tot    0.000  0.014  0.017  0.207  0.457  0.144  0.000  0.001  0.003  0.843

band    31 # energy   -3.54219074 # occ.  1.00000000

ion      s     py     pz     px    dxy    dyz    dz2    dxz  x2-y2    tot
    1  0.000  0.006  0.000  0.000  0.002  0.000  0.000  0.072  0.228  0.309
    2  0.000  0.006  0.000  0.000  0.002  0.000  0.000  0.072  0.228  0.309
    3  0.000  0.000  0.000  0.000  0.000  0.000  0.000  0.000  0.000  0.000
    4  0.000  0.000  0.000  0.000  0.000  0.000  0.000  0.000  0.000  0.000
    5  0.000  0.057  0.000  0.000  0.000  0.000  0.000  0.000  0.000  0.057
    6  0.000  0.021  0.004  0.005  0.000  0.000  0.000  0.000  0.000  0.031
    7  0.000  0.019  0.005  0.001  0.000  0.000  0.000  0.000  0.000  0.025
    8  0.000  0.057  0.000  0.000  0.000  0.000  0.000  0.000  0.000  0.057
    9  0.000  0.021  0.004  0.005  0.000  0.000  0.000  0.000  0.000  0.031