<?xml version="1.0" encoding="ISO-8859-1"?>
<modeling>
 <generator>
  <i name="program" type="string">vasp </i>
  <i name="version" type="string">5.4.4.18Apr17-6-g9f103f2a35  </i>
  <i name="subversion" type="string">(build May  1 2020 15:48:39) complex            parallel </i>
  <i name="platform" type="string">LinuxGNU </i>
  <i name="date" type="string">2020 06 20 </i>
  <i name="time" type="string">21:58:58 </i>
 </generator>
 <incar>
  <i type="int" name="ISTART">     1</i>
  <i type="string" name="PREC">accurate</i>
  <i type="string" name="ALGO"> Normal</i>
  <i type="int" name="ISPIN">     2</i>
  <i name="AMIN">      0.01000000</i>
  <i type="int" name="NELM">   400</i>
  <i type="int" name="IBRION">     2</i>
  <i name="EDIFF">      0.00010000</i>
  <i type="int" name="NSW">    99</i>
  <i type="int" name="ISIF">     3</i>
  <i name="ENCUT">    520.00000000</i>
  <v name="MAGMOM">      1.26000000      1.26000000      0.60000000      0.60000000      0.60000000      0.60000000      0.60000000      0.60000000      0.60000000      0.60000000</v>
  <i type="string" name="LREAL"> Auto</i>
  <i type="int" name="ISMEAR">    -5</i>
  <i name="SIGMA">      0.05000000</i>
  <i type="logical" name="LWAVE"> F  </i>
  <i type="int" name="LORBIT">    11</i>
  <v type="int" name="KPOINT_BSE">    -1     0     0     0</v>
  <i type="int" name="NELM">   400</i>
  <i type="string" name="GGA"> Bo</i>
  <i name="PARAM1">      0.18333333</i>
  <i name="PARAM2">      0.22000000</i>
  <i type="logical" name="LUSE_VDW"> T  </i>
  <i name="AGGAC">      0.00000000</i>
 </incar>
 <structure name="primitive_cell" >
  <crystal>
   <varray name="basis" >
    <v>       6.90777700      -0.00000000       0.00000000 </v>
    <v>       3.45388800       5.98231000       0.00000000 </v>
    <v>       0.00000000       0.00000000      23.44458800 </v>
   </varray>
   <i name="volume">    968.83501932 </i>
   <varray name="rec_basis" >
    <v>       0.14476437      -0.08357974       0.00000000 </v>
    <v>       0.00000000       0.16715951      -0.00000000 </v>
    <v>      -0.00000000       0.00000000       0.04265377 </v>
   </varray>
  </crystal>
  <varray name="positions" >
   <v>       0.33333300       0.33333300       0.49992500 </v>
   <v>       0.00042000       0.37322400      -0.42624800 </v>
   <v>      -0.37364300       0.00042000      -0.42624800 </v>
   <v>       0.37322400      -0.37364300      -0.42624800 </v>
   <v>       0.37364300      -0.00042000       0.42624800 </v>
   <v>      -0.37322400       0.37364300       0.42624800 </v>
   <v>      -0.00042000      -0.37322400       0.42624800 </v>
   <v>      -0.33333300      -0.33333300      -0.49992500 </v>
   <v>       0.00000000       0.00000000       0.44821600 </v>
   <v>       0.00000000       0.00000000      -0.44821600 </v>
  </varray>
 </structure>
 <varray name="primitive_index" >
  <v type="int" >        1 </v>
  <v type="int" >        6 </v>
  <v type="int" >        5 </v>
  <v type="int" >        7 </v>
  <v type="int" >        8 </v>
  <v type="int" >       10 </v>
  <v type="int" >        9 </v>
  <v type="int" >        2 </v>
  <v type="int" >        3 </v>
  <v type="int" >        4 </v>
 </varray>
 <kpoints>
  <generation param="Gamma">
   <v type="int" name="divisions">       5        5        1 </v>
   <v name="usershift">      0.00000000       0.00000000       0.00000000 </v>
   <v name="genvec1">      0.20000000       0.00000000       0.00000000 </v>
   <v name="genvec2">      0.00000000       0.20000000       0.00000000 </v>
   <v name="genvec3">      0.00000000       0.00000000       1.00000000 </v>
   <v name="shift">      0.00000000       0.00000000       0.00000000 </v>
  </generation>
  <varray name="kpointlist" >
   <v>       0.00000000       0.00000000       0.00000000 </v>
   <v>       0.20000000       0.00000000       0.00000000 </v>
   <v>       0.40000000       0.00000000       0.00000000 </v>
   <v>       0.40000000       0.20000000       0.00000000 </v>
   <v>      -0.40000000       0.20000000       0.00000000 </v>
  </varray>
  <varray name="weights" >
   <v>       0.04000000 </v>
   <v>       0.24000000 </v>
   <v>       0.24000000 </v>
   <v>       0.24000000 </v>
   <v>       0.24000000 </v>
  </varray>
  <varray name="tetrahedronlist"  type="int" >
   <v type="int" >        6        1        1        2        2 </v>
   <v type="int" >       12        1        2        2        2 </v>
   <v type="int" >       12        2        2        3        4 </v>
   <v type="int" >       12        2        2        2        4 </v>
   <v type="int" >       12        2        3        3        4 </v>
   <v type="int" >       12        2        3        4        4 </v>
   <v type="int" >        6        2        2        4        4 </v>
   <v type="int" >       12        3        3        3        5 </v>
   <v type="int" >       12        3        3        4        5 </v>
   <v type="int" >       12        3        4        4        5 </v>
   <v type="int" >        6        3        3        5        5 </v>
   <v type="int" >       12        3        4        5        5 </v>
   <v type="int" >        6        4        4        5        5 </v>
   <v type="int" >       12        4        5        5        5 </v>
   <v type="int" >        6        5        5        5        5 </v>
  </varray>
  <i name="volumeweight">      0.00666667 </i>
 </kpoints>
 <parameters>
  <separator name="general" >
   <i type="string" name="SYSTEM">unknown system</i>
   <i type="logical" name="LCOMPAT"> F  </i>
  </separator>
  <separator name="electronic" >
   <i type="string" name="PREC">accura</i>
   <i name="ENMAX">    520.00000000</i>
   <i name="ENAUG">    544.56500000</i>
   <i name="EDIFF">      0.00010000</i>
   <i type="int" name="IALGO">    38</i>
   <i type="int" name="IWAVPR">    11</i>
   <i type="int" name="NBANDS">    48</i>
   <i name="NELECT">     66.00000000</i>
   <i type="int" name="TURBO">     0</i>
   <i type="int" name="IRESTART">     0</i>
   <i type="int" name="NREBOOT">     0</i>
   <i type="int" name="NMIN">     0</i>
   <i name="EREF">      0.00000000</i>
   <separator name="electronic smearing" >
    <i type="int" name="ISMEAR">    -5</i>
    <i name="SIGMA">      0.05000000</i>
    <i name="KSPACING">      0.50000000</i>
    <i type="logical" name="KGAMMA"> T  </i>
   </separator>
   <separator name="electronic projectors" >
    <i type="logical" name="LREAL"> T  </i>
    <v name="ROPT">     -0.00025000     -0.00025000     -0.00025000</v>
    <i type="int" name="LMAXPAW">  -100</i>
    <i type="int" name="LMAXMIX">     2</i>
    <i type="logical" name="NLSPLINE"> F  </i>
   </separator>
   <separator name="electronic startup" >
    <i type="int" name="ISTART">     0</i>
    <i type="int" name="ICHARG">     2</i>
    <i type="int" name="INIWAV">     1</i>
   </separator>
   <separator name="electronic spin" >
    <i type="int" name="ISPIN">     2</i>
    <i type="logical" name="LNONCOLLINEAR"> F  </i>
    <v name="MAGMOM">      1.26000000      1.26000000      0.60000000      0.60000000      0.60000000      0.60000000      0.60000000      0.60000000      0.60000000      0.60000000</v>
    <i name="NUPDOWN">     -1.00000000</i>
    <i type="logical" name="LSORBIT"> F  </i>
    <v name="SAXIS">      0.00000000      0.00000000      1.00000000</v>
    <i type="logical" name="LSPIRAL"> F  </i>
    <v name="QSPIRAL">      0.00000000      0.00000000      0.00000000</v>
    <i type="logical" name="LZEROZ"> F  </i>
   </separator>
   <separator name="electronic exchange-correlation" >
    <i type="logical" name="LASPH"> F  </i>
    <i type="logical" name="LMETAGGA"> F  </i>
   </separator>
   <separator name="electronic convergence" >
    <i type="int" name="NELM">   400</i>
    <i type="int" name="NELMDL">     0</i>
    <i type="int" name="NELMIN">     2</i>
    <i name="ENINI">    520.00000000</i>
    <separator name="electronic convergence detail" >
     <i type="logical" name="LDIAG"> T  </i>
     <i type="logical" name="LSUBROT"> F  </i>
     <i name="WEIMIN">      0.00100000</i>
     <i name="EBREAK">      0.00000052</i>
     <i name="DEPER">      0.30000000</i>
     <i type="int" name="NRMM">     4</i>
     <i name="TIME">      0.40000000</i>
    </separator>
   </separator>
   <separator name="electronic mixer" >
    <i name="AMIX">      0.40000000</i>
    <i name="BMIX">      1.00000000</i>
    <i name="AMIN">      0.01000000</i>
    <i name="AMIX_MAG">      1.60000000</i>
    <i name="BMIX_MAG">      1.00000000</i>
    <separator name="electronic mixer details" >
     <i type="int" name="IMIX">     4</i>
     <i type="logical" name="MIXFIRST"> F  </i>
     <i type="int" name="MAXMIX">   -45</i>
     <i name="WC">    100.00000000</i>
     <i type="int" name="INIMIX">     1</i>
     <i type="int" name="MIXPRE">     1</i>
     <i type="int" name="MREMOVE">     5</i>
    </separator>
   </separator>
   <separator name="electronic dipolcorrection" >
    <i type="logical" name="LDIPOL"> F  </i>
    <i type="logical" name="LMONO"> F  </i>
    <i type="int" name="IDIPOL">     0</i>
    <i name="EPSILON">      1.00000000</i>
    <v name="DIPOL">   -100.00000000   -100.00000000   -100.00000000</v>
    <i name="EFIELD">      0.00000000</i>
   </separator>
  </separator>
  <separator name="grids" >
   <i type="int" name="NGX">    54</i>
   <i type="int" name="NGY">    54</i>
   <i type="int" name="NGZ">   180</i>
   <i type="int" name="NGXF">   108</i>
   <i type="int" name="NGYF">   108</i>
   <i type="int" name="NGZF">   360</i>
   <i type="logical" name="ADDGRID"> F  </i>
  </separator>
  <separator name="ionic" >
   <i type="int" name="NSW">    99</i>
   <i type="int" name="IBRION">     2</i>
   <i type="int" name="MDALGO">     0</i>
   <i type="int" name="ISIF">     3</i>
   <i name="PSTRESS">      0.00000000</i>
   <i name="EDIFFG">      0.00100000</i>
   <i type="int" name="NFREE">     1</i>
   <i name="POTIM">      0.50000000</i>
   <i name="SMASS">     -3.00000000</i>
   <i name="SCALEE">      1.00000000</i>
  </separator>
  <separator name="ionic md" >
   <i name="TEBEG">      0.00010000</i>
   <i name="TEEND">      0.00010000</i>
   <i type="int" name="NBLOCK">     1</i>
   <i type="int" name="KBLOCK">    99</i>
   <i type="int" name="NPACO">   256</i>
   <i name="APACO">     16.00000000</i>
  </separator>
  <separator name="symmetry" >
   <i type="int" name="ISYM">     2</i>
   <i name="SYMPREC">      0.00001000</i>
  </separator>
  <separator name="dos" >
   <i type="int" name="LORBIT">    11</i>
   <v name="RWIGS">     -1.00000000     -1.00000000     -1.00000000</v>
   <i type="int" name="NEDOS">   301</i>
   <i name="EMIN">     10.00000000</i>
   <i name="EMAX">    -10.00000000</i>
   <i name="EFERMI">      0.00000000</i>
  </separator>
  <separator name="writing" >
   <i type="int" name="NWRITE">     2</i>
   <i type="logical" name="LWAVE"> F  </i>
   <i type="logical" name="LDOWNSAMPLE"> F  </i>
   <i type="logical" name="LCHARG"> T  </i>
   <i type="logical" name="LPARD"> F  </i>
   <i type="logical" name="LVTOT"> F  </i>
   <i type="logical" name="LVHAR"> F  </i>
   <i type="logical" name="LELF"> F  </i>
   <i type="logical" name="LOPTICS"> F  </i>
   <v name="STM">      0.00000000      0.00000000      0.00000000      0.00000000      0.00000000      0.00000000      0.00000000</v>
  </separator>
  <separator name="performance" >
   <i type="int" name="NPAR">    16</i>
   <i type="int" name="NSIM">     4</i>
   <i type="int" name="NBLK">    -1</i>
   <i type="logical" name="LPLANE"> T  </i>
   <i type="logical" name="LSCALAPACK"> T  </i>
   <i type="logical" name="LSCAAWARE"> F  </i>
   <i type="logical" name="LSCALU"> F  </i>
   <i type="logical" name="LASYNC"> F  </i>
   <i type="logical" name="LORBITALREAL"> F  </i>
  </separator>
  <separator name="miscellaneous" >
   <i type="int" name="IDIOT">     3</i>
   <i type="int" name="ISPECIAL">     0</i>
   <i type="logical" name="LMUSIC"> F  </i>
   <v name="POMASS">     58.69000000     30.97400000     32.06600000</v>
   <v name="DARWINR">      0.00000000      0.00000000      0.00000000</v>
   <v name="DARWINV">      1.00000000      1.00000000      1.00000000</v>
   <i type="logical" name="LCORR"> T  </i>
  </separator>
  <i type="logical" name="GGA_COMPAT"> T  </i>
  <i type="logical" name="LBERRY"> F  </i>
  <i type="int" name="ICORELEVEL">     0</i>
  <i type="logical" name="LDAU"> F  </i>
  <i type="int" name="I_CONSTRAINED_M">     0</i>
  <separator name="electronic exchange-correlation" >
   <i type="string" name="GGA">BO</i>
   <i type="int" name="VOSKOWN">     0</i>
   <i type="logical" name="LHFCALC"> F  </i>
   <i type="string" name="PRECFOCK"></i>
   <i type="logical" name="LSYMGRAD"> F  </i>
   <i type="logical" name="LHFONE"> F  </i>
   <i type="logical" name="LRHFCALC"> F  </i>
   <i type="logical" name="LTHOMAS"> F  </i>
   <i type="logical" name="LMODELHF"> F  </i>
   <i name="ENCUT4O">     -1.00000000</i>
   <i type="int" name="EXXOEP">     0</i>
   <i type="int" name="FOURORBIT">     0</i>
   <i name="AEXX">      0.00000000</i>
   <i name="HFALPHA">      0.00000000</i>
   <i name="MCALPHA">      0.00000000</i>
   <i name="ALDAX">      1.00000000</i>
   <i name="AGGAX">      1.00000000</i>
   <i name="ALDAC">      1.00000000</i>
   <i name="AGGAC">      0.00000000</i>
   <i type="int" name="NKREDX">     1</i>
   <i type="int" name="NKREDY">     1</i>
   <i type="int" name="NKREDZ">     1</i>
   <i type="logical" name="SHIFTRED"> F  </i>
   <i type="logical" name="ODDONLY"> F  </i>
   <i type="logical" name="EVENONLY"> F  </i>
   <i type="int" name="LMAXFOCK">     0</i>
   <i type="int" name="NMAXFOCKAE">     0</i>
   <i type="logical" name="LFOCKAEDFT"> F  </i>
   <i name="HFSCREEN">      0.00000000</i>
   <i name="HFSCREENC">      0.00000000</i>
   <i type="int" name="NBANDSGWLOW">     0</i>
  </separator>
  <separator name="vdW DFT" >
   <i type="logical" name="LUSE_VDW"> T  </i>
   <i name="Zab_VDW">     -0.84910000</i>
   <i name="PARAM1">      0.18333333</i>
   <i name="PARAM2">      0.22000000</i>
   <i name="PARAM3">      0.00000000</i>
  </separator>
  <separator name="model GW" >
   <i type="int" name="MODEL_GW">     0</i>
   <i name="MODEL_EPS0">     58.13010116</i>
   <i name="MODEL_ALPHA">      1.00000000</i>
  </separator>
  <separator name="linear response parameters" >
   <i type="logical" name="LEPSILON"> F  </i>
   <i type="logical" name="LRPA"> F  </i>
   <i type="logical" name="LNABLA"> F  </i>
   <i type="logical" name="LVEL"> F  </i>
   <i type="int" name="KINTER">     0</i>
   <i name="CSHIFT">      0.10000000</i>
   <i name="OMEGAMAX">     -1.00000000</i>
   <i name="DEG_THRESHOLD">      0.00200000</i>
   <i name="RTIME">     -0.10000000</i>
   <i name="WPLASMAI">      0.00000000</i>
   <v name="DFIELD">      0.00000000      0.00000000      0.00000000</v>
   <v name="WPLASMA">      0.00000000      0.00000000      0.00000000      0.00000000      0.00000000      0.00000000      0.00000000      0.00000000      0.00000000</v>
  </separator>
  <separator name="orbital magnetization" >
   <i type="logical" name="NUCIND"> F  </i>
   <v name="MAGPOS">      0.00000000      0.00000000      0.00000000</v>
   <i type="logical" name="LNICSALL"> T  </i>
   <i type="logical" name="ORBITALMAG"> F  </i>
   <i type="logical" name="LMAGBLOCH"> F  </i>
   <i type="logical" name="LCHIMAG"> F  </i>
   <i type="logical" name="LGAUGE"> T  </i>
   <i type="int" name="MAGATOM">     0</i>
   <v name="MAGDIPOL">      0.00000000      0.00000000      0.00000000</v>
   <v name="AVECCONST">      0.00000000      0.00000000      0.00000000</v>
  </separator>
  <separator name="response functions" >
   <i type="logical" name="LADDER"> F  </i>
   <i type="logical" name="LRPAFORCE"> F  </i>
   <i type="logical" name="LFXC"> F  </i>
   <i type="logical" name="LHARTREE"> T  </i>
   <i type="int" name="IBSE">     0</i>
   <v type="int" name="KPOINT">    -1     0     0     0</v>
   <i type="logical" name="LTCTE"> F  </i>
   <i type="logical" name="LTETE"> F  </i>
   <i type="logical" name="LTRIPLET"> F  </i>
   <i type="logical" name="LFXCEPS"> F  </i>
   <i type="logical" name="LFXHEG"> F  </i>
   <i type="int" name="NATURALO">     2</i>
   <i type="logical" name="L2ORDER"> F  </i>
   <i type="logical" name="LMP2LT"> F  </i>
   <i type="logical" name="LUSEW"> F  </i>
   <i name="ENCUTGW">     -2.00000000</i>
   <i name="ENCUTGWSOFT">     -2.00000000</i>
   <i name="ENCUTLF">     -1.00000000</i>
   <i type="int" name="LMAXMP2">    -1</i>
   <i name="SCISSOR">      0.00000000</i>
   <i type="int" name="NOMEGA">     0</i>
   <i type="int" name="NOMEGAR">     0</i>
   <i type="int" name="NBANDSGW">    -1</i>
   <i type="int" name="NBANDSO">    -1</i>
   <i type="int" name="NBANDSV">    -1</i>
   <i type="int" name="NELM">   400</i>
   <i type="int" name="NELMHF">     1</i>
   <i type="int" name="DIM">     3</i>
   <i type="int" name="ANTIRES">     0</i>
   <i name="OMEGAMAX">    -30.00000000</i>
   <i name="OMEGAMIN">    -30.00000000</i>
   <i name="OMEGATL">   -200.00000000</i>
   <i type="int" name="OMEGAGRID">   140</i>
   <i name="CSHIFT">     -0.10000000</i>
   <i type="logical" name="SELFENERGY"> F  </i>
   <i type="logical" name="LSPECTRAL"> F  </i>
   <i type="logical" name="LSPECTRALGW"> F  </i>
   <i type="logical" name="LSINGLES"> F  </i>
   <i type="logical" name="LFERMIGW"> F  </i>
   <i type="logical" name="ODDONLYGW"> F  </i>
   <i type="logical" name="EVENONLYGW"> F  </i>
   <i type="int" name="NKREDLFX">     1</i>
   <i type="int" name="NKREDLFY">     1</i>
   <i type="int" name="NKREDLFZ">     1</i>
   <i type="int" name="MAXMEM">  2800</i>
   <i type="int" name="TELESCOPE">     0</i>
   <i type="int" name="TAUPAR">     1</i>
   <i type="int" name="OMEGAPAR">    -1</i>
   <i name="LAMBDA">      1.00000000</i>
  </separator>
  <separator name="External order field" >
   <i name="OFIELD_KAPPA">      0.00000000</i>
   <v name="OFIELD_K">      0.00000000      0.00000000      0.00000000</v>
   <i name="OFIELD_Q6_NEAR">      0.00000000</i>
   <i name="OFIELD_Q6_FAR">      0.00000000</i>
   <i name="OFIELD_A">      0.00000000</i>
  </separator>
 </parameters>
 <atominfo>
  <atoms>      10 </atoms>
  <types>       3 </types>
  <array name="atoms" >
   <dimension dim="1">ion</dimension>
   <field type="string">element</field>
   <field type="int">atomtype</field>
   <set>
    <rc><c>Ni</c><c>   1</c></rc>
    <rc><c>Ni</c><c>   1</c></rc>
    <rc><c>P </c><c>   2</c></rc>
    <rc><c>P </c><c>   2</c></rc>
    <rc><c>S </c><c>   3</c></rc>
    <rc><c>S </c><c>   3</c></rc>
    <rc><c>S </c><c>   3</c></rc>
    <rc><c>S </c><c>   3</c></rc>
    <rc><c>S </c><c>   3</c></rc>
    <rc><c>S </c><c>   3</c></rc>
   </set>
  </array>
  <array name="atomtypes" >
   <dimension dim="1">type</dimension>
   <field type="int">atomspertype</field>
   <field type="string">element</field>
   <field>mass</field>
   <field>valence</field>
   <field type="string">pseudopotential</field>
   <set>
    <rc><c>   2</c><c>Ni</c><c>     58.69000000</c><c>     10.00000000</c><c> PAW_PBE Ni 06Sep2000                   </c></rc>
    <rc><c>   2</c><c>P </c><c>     30.97400000</c><c>      5.00000000</c><c>  PAW_PBE P 17Jan2003                   </c></rc>
    <rc><c>   6</c><c>S </c><c>     32.06600000</c><c>      6.00000000</c><c>  PAW_PBE S 17Jan2003                   </c></rc>
   </set>
  </array>
 </atominfo>
 <structure name="initialpos" >
  <crystal>
   <varray name="basis" >
    <v>       6.90777700      -0.00000000       0.00000000 </v>
    <v>       3.45388800       5.98231000       0.00000000 </v>
    <v>       0.00000000       0.00000000      23.44458800 </v>
   </varray>
   <i name="volume">    968.83501932 </i>
   <varray name="rec_basis" >
    <v>       0.14476437      -0.08357974       0.00000000 </v>
    <v>       0.00000000       0.16715951      -0.00000000 </v>
    <v>      -0.00000000       0.00000000       0.04265377 </v>
   </varray>
  </crystal>
  <varray name="positions" >
   <v>       0.33333300       0.33333300       0.49992500 </v>
   <v>       0.66666700       0.66666700       0.50007500 </v>
   <v>       0.00000000       0.00000000       0.44821600 </v>
   <v>       0.00000000       0.00000000       0.55178400 </v>
   <v>       0.62635700       0.00042000       0.57375200 </v>
   <v>       0.00042000       0.37322400       0.57375200 </v>
   <v>       0.37322400       0.62635700       0.57375200 </v>
   <v>       0.37364300       0.99958000       0.42624800 </v>
   <v>       0.99958000       0.62677600       0.42624800 </v>
   <v>       0.62677600       0.37364300       0.42624800 </v>
  </varray>
  <varray name="selective"  type="logical" >
   <v type="logical" >  T  T  T </v>
   <v type="logical" >  T  T  T </v>
   <v type="logical" >  T  T  T </v>
   <v type="logical" >  T  T  T </v>
   <v type="logical" >  T  T  T </v>
   <v type="logical" >  T  T  T </v>
   <v type="logical" >  T  T  T </v>
   <v type="logical" >  T  T  T </v>
   <v type="logical" >  T  T  T </v>
   <v type="logical" >  T  T  T </v>
  </varray>
  <nose>
   <v>      -3.00000000       0.00000000       0.00010000       0.00010000 </v>
  </nose>
 </structure>
 <calculation>
  <scstep>
   <time name="dav">   22.31   22.48</time>
   <time name="total">   75.19   75.60</time>
   <energy>
    <i name="alphaZ">     26.75080663 </i>
    <i name="ewald">   8617.63405943 </i>
    <i name="hartreedc"> -12388.72010489 </i>
    <i name="XCdc">    132.56608498 </i>
    <i name="pawpsdc">   2431.14985990 </i>
    <i name="pawaedc">  -2524.58302600 </i>
    <i name="eentropy">      0.00000000 </i>
    <i name="bandstr">    -43.01163221 </i>
    <i name="atom">   4184.14832191 </i>
    <i name="e_fr_energy">    435.93436975 </i>
    <i name="e_wo_entrp">    435.93436975 </i>
    <i name="e_0_energy">    435.93436975 </i>
   </energy>
  </scstep>
  <scstep>
   <time name="dav">   32.55   32.60</time>
   <time name="total">   32.56   32.61</time>
   <energy>
    <i name="e_fr_energy">     38.20860479 </i>
    <i name="e_wo_entrp">     38.20860479 </i>
    <i name="e_0_energy">     38.20860479 </i>
   </energy>
  </scstep>
  <scstep>
   <time name="dav">   28.57   28.64</time>
   <time name="total">   28.57   28.64</time>
   <energy>
    <i name="e_fr_energy">    -39.65929819 </i>
    <i name="e_wo_entrp">    -39.65929819 </i>
    <i name="e_0_energy">    -39.65929819 </i>
   </energy>
  </scstep>
  <scstep>
   <time name="dav">   24.86   25.41</time>
   <time name="total">   24.86   25.41</time>
   <energy>
    <i name="e_fr_energy">    -42.56042094 </i>
    <i name="e_wo_entrp">    -42.56042094 </i>
    <i name="e_0_energy">    -42.56042094 </i>
   </energy>
  </scstep>
  <scstep>
   <time name="dav">   31.72   32.00</time>
   <time name="total">   33.88   34.17</time>
   <energy>
    <i name="e_fr_energy">    -42.64853474 </i>
    <i name="e_wo_entrp">    -42.64853474 </i>
    <i name="e_0_energy">    -42.64853474 </i>
   </energy>
  </scstep>
  <scstep>
   <time name="dav">   27.40   29.65</time>
   <time name="total">   81.46   84.42</time>
   <energy>
    <i name="e_fr_energy">    -93.17514853 </i>
    <i name="e_wo_entrp">    -93.17514853 </i>
    <i name="e_0_energy">    -93.17514853 </i>
   </energy>
  </scstep>
  <scstep>
   <time name="dav">   25.88   26.03</time>
   <time name="total">   80.18   80.87</time>
   <energy>
    <i name="e_fr_energy">    -48.76033729 </i>
    <i name="e_wo_entrp">    -48.76033729 </i>
    <i name="e_0_energy">    -48.76033729 </i>
   </energy>
  </scstep>
  <scstep>
   <time name="dav">   28.01   28.08</time>
   <time name="total">   81.38   81.96</time>
   <energy>
    <i name="e_fr_energy">    -36.96537187 </i>
    <i name="e_wo_entrp">    -36.96537187 </i>
    <i name="e_0_energy">    -36.96537187 </i>
   </energy>
  </scstep>
  <scstep>
   <time name="dav">   31.02   31.27</time>
   <time name="total">   84.03   84.50</time>
   <energy>
    <i name="e_fr_energy">    -34.72575760 </i>
    <i name="e_wo_entrp">    -34.72575760 </i>
    <i name="e_0_energy">    -34.72575760 </i>
   </energy>
  </scstep>
  <scstep>
   <time name="dav">   27.88   28.38</time>
   <time name="total">   80.76   81.67</time>
   <energy>
    <i name="e_fr_energy">    -73.88013423 </i>
    <i name="e_wo_entrp">    -73.88013423 </i>
    <i name="e_0_energy">    -73.88013423 </i>
   </energy>
  </scstep>
  <scstep>
   <time name="dav">   26.42   26.64</time>
   <time name="total">   79.43   80.08</time>
   <energy>
    <i name="e_fr_energy">    -34.52986607 </i>
    <i name="e_wo_entrp">    -34.52986607 </i>
    <i name="e_0_energy">    -34.52986607 </i>
   </energy>
  </scstep>
  <scstep>
   <time name="dav">   29.11   29.25</time>
   <time name="total">   82.06   82.36</time>
   <energy>
    <i name="e_fr_energy">    -34.71218695 </i>
    <i name="e_wo_entrp">    -34.71218695 </i>
    <i name="e_0_energy">    -34.71218695 </i>
   </energy>
  </scstep>
  <scstep>
   <time name="dav">   28.24   28.43</time>
   <time name="total">   81.46   81.83</time>
   <energy>
    <i name="e_fr_energy">    -34.83302977 </i>
    <i name="e_wo_entrp">    -34.83302977 </i>
    <i name="e_0_energy">    -34.83302977 </i>
   </energy>
  </scstep>
  <scstep>
   <time name="dav">   29.72   29.93</time>
   <time name="total">   82.66   83.14</time>
   <energy>
    <i name="e_fr_energy">    -34.91440115 </i>
    <i name="e_wo_entrp">    -34.91440115 </i>
    <i name="e_0_energy">    -34.91440115 </i>
   </energy>
  </scstep>
  <scstep>
   <time name="dav">   30.99   31.25</time>
   <time name="total">   84.05   84.57</time>
   <energy>
    <i name="e_fr_energy">    -35.00206156 </i>
    <i name="e_wo_entrp">    -35.00206156 </i>
    <i name="e_0_energy">    -35.00206156 </i>
   </energy>
  </scstep>
  <scstep>
   <time name="dav">   27.20   27.40</time>
   <time name="total">   80.13   80.77</time>
   <energy>
    <i name="e_fr_energy">    -34.99568421 </i>
    <i name="e_wo_entrp">    -34.99568421 </i>
    <i name="e_0_energy">    -34.99568421 </i>
   </energy>
  </scstep>
  <scstep>
   <time name="dav">   28.69   28.85</time>
   <time name="total">   81.84   82.15</time>
   <energy>
    <i name="e_fr_energy">    -34.98894321 </i>
    <i name="e_wo_entrp">    -34.98894321 </i>
    <i name="e_0_energy">    -34.98894321 </i>
   </energy>
  </scstep>
  <scstep>
   <time name="dav">   31.70   31.90</time>
   <time name="total">   84.89   85.34</time>
   <energy>
    <i name="e_fr_energy">    -34.92419418 </i>
    <i name="e_wo_entrp">    -34.92419418 </i>
    <i name="e_0_energy">    -34.92419418 </i>
   </energy>
  </scstep>
  <scstep>
   <time name="dav">   30.71   30.88</time>
   <time name="total">   83.89   84.23</time>
   <energy>
    <i name="e_fr_energy">    -34.97815358 </i>
    <i name="e_wo_entrp">    -34.97815358 </i>
    <i name="e_0_energy">    -34.97815358 </i>
   </energy>
  </scstep>
  <scstep>
   <time name="dav">   28.94   29.24</time>
   <time name="total">   82.05   82.52</time>
   <energy>
    <i name="e_fr_energy">    -35.01594813 </i>
    <i name="e_wo_entrp">    -35.01594813 </i>
    <i name="e_0_energy">    -35.01594813 </i>
   </energy>
  </scstep>
  <scstep>
   <time name="dav">   28.48   28.72</time>
   <time name="total">   81.28   81.90</time>
   <energy>
    <i name="e_fr_energy">    -35.06346638 </i>
    <i name="e_wo_entrp">    -35.06346638 </i>
    <i name="e_0_energy">    -35.06346638 </i>
   </energy>
  </scstep>
  <scstep>
   <time name="dav">   25.72   26.06</time>
   <time name="total">   78.75   79.52</time>
   <energy>
    <i name="e_fr_energy">    -35.04387641 </i>
    <i name="e_wo_entrp">    -35.04387641 </i>
    <i name="e_0_energy">    -35.04387641 </i>
   </energy>
  </scstep>
  <scstep>
   <time name="dav">   26.42   26.91</time>
   <time name="total">   79.44   80.34</time>
   <energy>
    <i name="e_fr_energy">    -35.00835244 </i>
    <i name="e_wo_entrp">    -35.00835244 </i>
    <i name="e_0_energy">    -35.00835244 </i>
   </energy>
  </scstep>
  <scstep>
   <time name="dav">   28.35   28.56</time>
   <time name="total">   81.51   81.84</time>
   <energy>
    <i name="e_fr_energy">    -34.99278378 </i>
    <i name="e_wo_entrp">    -34.99278378 </i>
    <i name="e_0_energy">    -34.99278378 </i>
   </energy>
  </scstep>
  <scstep>
   <time name="dav">   30.74   30.97</time>
   <time name="total">   83.89   84.27</time>
   <energy>
    <i name="e_fr_energy">    -34.99674618 </i>
    <i name="e_wo_entrp">    -34.99674618 </i>
    <i name="e_0_energy">    -34.99674618 </i>
   </energy>
  </scstep>
  <scstep>
   <time name="dav">   28.63   28.96</time>
   <time name="total">   81.94   82.38</time>
   <energy>
    <i name="e_fr_energy">    -34.99596580 </i>
    <i name="e_wo_entrp">    -34.99596580 </i>
    <i name="e_0_energy">    -34.99596580 </i>
   </energy>
  </scstep>
  <scstep>
   <time name="dav">   32.44   32.50</time>
   <time name="total">   85.57   85.77</time>
   <energy>
    <i name="e_fr_energy">    -35.10794648 </i>
    <i name="e_wo_entrp">    -35.10794648 </i>
    <i name="e_0_energy">    -35.10794648 </i>
   </energy>
  </scstep>
  <scstep>
   <time name="dav">   27.06   27.31</time>
   <time name="total">   80.04   80.56</time>
   <energy>
    <i name="e_fr_energy">    -35.00925129 </i>
    <i name="e_wo_entrp">    -35.00925129 </i>
    <i name="e_0_energy">    -35.00925129 </i>
   </energy>
  </scstep>
  <scstep>
   <time name="dav">   23.81   24.00</time>
   <time name="total">   76.86   77.27</time>
   <energy>
    <i name="e_fr_energy">    -35.01474734 </i>
    <i name="e_wo_entrp">    -35.01474734 </i>
    <i name="e_0_energy">    -35.01474734 </i>
   </energy>
  </scstep>
  <scstep>
   <time name="dav">   22.24   22.47</time>
   <time name="total">   75.32   75.72</time>
   <energy>
    <i name="e_fr_energy">    -35.00550468 </i>
    <i name="e_wo_entrp">    -35.00550468 </i>
    <i name="e_0_energy">    -35.00550468 </i>
   </energy>
  </scstep>
  <scstep>
   <time name="dav">   25.71   25.86</time>
   <time name="total">   78.88   79.34</time>
   <energy>
    <i name="e_fr_energy">    -35.17597199 </i>
    <i name="e_wo_entrp">    -35.17597199 </i>
    <i name="e_0_energy">    -35.17597199 </i>
   </energy>
  </scstep>
  <scstep>
   <time name="dav">   27.91   28.10</time>
   <time name="total">   81.04   81.47</time>
   <energy>
    <i name="e_fr_energy">    -56.52189046 </i>
    <i name="e_wo_entrp">    -56.52189046 </i>
    <i name="e_0_energy">    -56.52189046 </i>
   </energy>
  </scstep>
  <scstep>
   <time name="dav">   24.22   24.36</time>
   <time name="total">   77.08   77.59</time>
   <energy>
    <i name="e_fr_energy">    -34.59536809 </i>
    <i name="e_wo_entrp">    -34.59536809 </i>
    <i name="e_0_energy">    -34.59536809 </i>
   </energy>
  </scstep>
  <scstep>
   <time name="dav">   23.50   23.70</time>
   <time name="total">   76.46   76.93</time>
   <energy>
    <i name="e_fr_energy">    -34.91698225 </i>
    <i name="e_wo_entrp">    -34.91698225 </i>
    <i name="e_0_energy">    -34.91698225 </i>
   </energy>
  </scstep>
  <scstep>
   <time name="dav">   28.44   28.59</time>
   <time name="total">   81.80   82.04</time>
   <energy>
    <i name="e_fr_energy">    -34.98407166 </i>
    <i name="e_wo_entrp">    -34.98407166 </i>
    <i name="e_0_energy">    -34.98407166 </i>
   </energy>
  </scstep>
  <scstep>
   <time name="dav">   23.18   23.37</time>
   <time name="total">   76.39   76.86</time>
   <energy>
    <i name="e_fr_energy">    -34.98765362 </i>
    <i name="e_wo_entrp">    -34.98765362 </i>
    <i name="e_0_energy">    -34.98765362 </i>
   </energy>
  </scstep>
  <scstep>
   <time name="dav">   23.52   23.70</time>
   <time name="total">   76.59   77.04</time>
   <energy>
    <i name="e_fr_energy">    -34.99247926 </i>
    <i name="e_wo_entrp">    -34.99247926 </i>
    <i name="e_0_energy">    -34.99247926 </i>
   </energy>
  </scstep>
  <scstep>
   <time name="dav">   26.68   26.74</time>
   <time name="total">   79.89   80.18</time>
   <energy>
    <i name="e_fr_energy">    -35.12249119 </i>
    <i name="e_wo_entrp">    -35.12249119 </i>
    <i name="e_0_energy">    -35.12249119 </i>
   </energy>
  </scstep>
  <scstep>
   <time name="dav">   26.00   26.06</time>
   <time name="total">   79.20   79.47</time>
   <energy>
    <i name="e_fr_energy">    -34.99972760 </i>
    <i name="e_wo_entrp">    -34.99972760 </i>
    <i name="e_0_energy">    -34.99972760 </i>
   </energy>
  </scstep>
  <scstep>
   <time name="dav">   22.90   23.05</time>
   <time name="total">   76.04   76.31</time>
   <energy>
    <i name="e_fr_energy">    -35.00146800 </i>
    <i name="e_wo_entrp">    -35.00146800 </i>
    <i name="e_0_energy">    -35.00146800 </i>
   </energy>
  </scstep>
  <scstep>
   <time name="dav">   21.67   22.05</time>
   <time name="total">   74.86   75.58</time>
   <energy>
    <i name="e_fr_energy">    -35.00165637 </i>
    <i name="e_wo_entrp">    -35.00165637 </i>
    <i name="e_0_energy">    -35.00165637 </i>
   </energy>
  </scstep>
  <scstep>
   <time name="dav">   22.31   22.60</time>
   <time name="total">   72.85   73.66</time>
   <energy>
    <i name="alphaZ">     26.75080663 </i>
    <i name="ewald">   8617.63405943 </i>
    <i name="hartreedc"> -12346.71563934 </i>
    <i name="XCdc">    131.60572413 </i>
    <i name="pawpsdc">   2377.62727989 </i>
    <i name="pawaedc">  -2471.34385825 </i>
    <i name="eentropy">      0.00000000 </i>
    <i name="bandstr">   -554.70844113 </i>
    <i name="atom">   4184.14832191 </i>
    <i name="e_fr_energy">    -35.00174673 </i>
    <i name="e_wo_entrp">    -35.00174673 </i>
    <i name="e_0_energy">    -35.00174673 </i>
   </energy>
  </scstep>
  <structure>
   <crystal>
    <varray name="basis" >
     <v>       6.90777700      -0.00000000       0.00000000 </v>
     <v>       3.45388800       5.98231000       0.00000000 </v>
     <v>       0.00000000       0.00000000      23.44458800 </v>
    </varray>
    <i name="volume">    968.83501932 </i>
    <varray name="rec_basis" >
     <v>       0.14476437      -0.08357974       0.00000000 </v>
     <v>       0.00000000       0.16715951      -0.00000000 </v>
     <v>      -0.00000000       0.00000000       0.04265377 </v>
    </varray>
   </crystal>
   <varray name="positions" >
    <v>       0.33333300       0.33333300       0.49992500 </v>
    <v>       0.66666700       0.66666700       0.50007500 </v>
    <v>       0.00000000       0.00000000       0.44821600 </v>
    <v>       0.00000000       0.00000000       0.55178400 </v>
    <v>       0.62635700       0.00042000       0.57375200 </v>
    <v>       0.00042000       0.37322400       0.57375200 </v>
    <v>       0.37322400       0.62635700       0.57375200 </v>
    <v>       0.37364300       0.99958000       0.42624800 </v>
    <v>       0.99958000       0.62677600       0.42624800 </v>
    <v>       0.62677600       0.37364300       0.42624800 </v>
   </varray>
  </structure>
  <varray name="forces" >
   <v>       0.00000000       0.00000000       0.00836265 </v>
   <v>       0.00000000       0.00000000      -0.00836265 </v>
   <v>       0.00000000       0.00000000       0.18158395 </v>
   <v>       0.00000000      -0.00000000      -0.18158395 </v>
   <v>       1.23184339      -0.00219138      -1.70040804 </v>
   <v>      -0.61781939      -1.06571191      -1.70040804 </v>
   <v>      -0.61402400       1.06790329      -1.70040804 </v>
   <v>      -1.23184339       0.00219138       1.70040804 </v>
   <v>       0.61781939       1.06571191       1.70040804 </v>
   <v>       0.61402400      -1.06790329       1.70040804 </v>
  </varray>
  <varray name="stress" >
   <v>     -38.41193626       0.00001025       0.00000000 </v>
   <v>      -0.00000383     -38.41193157       0.00000000 </v>
   <v>      -0.00000000       0.00000000     -19.58333804 </v>
  </varray>
  <energy>
   <i name="e_fr_energy">    -35.00174673 </i>
   <i name="e_wo_entrp">    -35.00174673 </i>
   <i name="e_0_energy">      0.00000000 </i>
  </energy>
  <time name="totalsc"> 3308.17 3330.96</time>
 </calculation>
 <calculation>
  <scstep>
   <time name="dav">   28.64   29.04</time>
   <time name="total">   82.60   83.12</time>
   <energy>
    <i name="alphaZ">     35.98436639 </i>
    <i name="ewald">  10852.06849328 </i>
    <i name="hartreedc"> -14917.04796324 </i>
    <i name="XCdc">    152.11712631 </i>
    <i name="pawpsdc">   2377.37898569 </i>
    <i name="pawaedc">  -2471.07439774 </i>
    <i name="eentropy">      0.00000000 </i>
    <i name="bandstr">   -329.96850825 </i>
    <i name="atom">   4184.14832191 </i>
    <i name="e_fr_energy">   -116.39357566 </i>
    <i name="e_wo_entrp">   -116.39357566 </i>
    <i name="e_0_energy">   -116.39357566 </i>
   </energy>
  </scstep>
  <scstep>
   <time name="dav">   33.14   33.25</time>
   <time name="total">   87.23   87.40</time>
   <energy>
    <i name="e_fr_energy">   -363.25774429 </i>
    <i name="e_wo_entrp">   -363.25774429 </i>
    <i name="e_0_energy">   -363.25774429 </i>
   </energy>
  </scstep>
  <scstep>
   <time name="dav">   27.55   27.81</time>
   <time name="total">   81.26   81.79</time>
   <energy>
    <i name="e_fr_energy">    -90.72273230 </i>
    <i name="e_wo_entrp">    -90.72273230 </i>
    <i name="e_0_energy">    -90.72273230 </i>
   </energy>
  </scstep>
  <scstep>
   <time name="dav">   31.35   31.47</time>
   <time name="total">   85.07   85.49</time>
   <energy>
    <i name="e_fr_energy">    -41.78755268 </i>
    <i name="e_wo_entrp">    -41.78755268 </i>
    <i name="e_0_energy">    -41.78755268 </i>
   </energy>
  </scstep>
  <scstep>
   <time name="dav">   29.04   29.41</time>
   <time name="total">   82.83   83.45</time>
   <energy>
    <i name="e_fr_energy">    -42.57887853 </i>
    <i name="e_wo_entrp">    -42.57887853 </i>
    <i name="e_0_energy">    -42.57887853 </i>
   </energy>
  </scstep>
  <scstep>
   <time name="dav">   31.54   31.82</time>
   <time name="total">   85.42   85.88</time>
   <energy>
    <i name="e_fr_energy">    -42.17725775 </i>
    <i name="e_wo_entrp">    -42.17725775 </i>
    <i name="e_0_energy">    -42.17725775 </i>
   </energy>
  </scstep>
  <scstep>
   <time name="dav">   33.38   33.62</time>
   <time name="total">   87.27   87.63</time>
   <energy>
    <i name="e_fr_energy">    -42.52600588 </i>
    <i name="e_wo_entrp">    -42.52600588 </i>
    <i name="e_0_energy">    -42.52600588 </i>
   </energy>
  </scstep>
  <scstep>
   <time name="dav">   28.97   29.03</time>
   <time name="total">   82.76   83.09</time>
   <energy>
    <i name="e_fr_energy">    -42.46324309 </i>
    <i name="e_wo_entrp">    -42.46324309 </i>
    <i name="e_0_energy">    -42.46324309 </i>
   </energy>
  </scstep>
  <scstep>
   <time name="dav">   24.36   24.49</time>
   <time name="total">   78.29   78.51</time>
   <energy>
    <i name="e_fr_energy">    -42.49378876 </i>
    <i name="e_wo_entrp">    -42.49378876 </i>
    <i name="e_0_energy">    -42.49378876 </i>
   </energy>
  </scstep>
  <scstep>
   <time name="dav">   28.46   28.72</time>
   <time name="total">   82.42   82.74</time>
   <energy>
    <i name="e_fr_energy">    -42.51508472 </i>
    <i name="e_wo_entrp">    -42.51508472 </i>
    <i name="e_0_energy">    -42.51508472 </i>
   </energy>
  </scstep>
  <scstep>
   <time name="dav">   30.12   30.38</time>
   <time name="total">   84.10   84.49</time>
   <energy>
    <i name="e_fr_energy">    -42.51990885 </i>
    <i name="e_wo_entrp">    -42.51990885 </i>
    <i name="e_0_energy">    -42.51990885 </i>
   </energy>
  </scstep>
  <scstep>
   <time name="dav">   28.34   28.38</time>
   <time name="total">   82.02   82.42</time>
   <energy>
    <i name="e_fr_energy">    -42.43450608 </i>
    <i name="e_wo_entrp">    -42.43450608 </i>
    <i name="e_0_energy">    -42.43450608 </i>
   </energy>
  </scstep>
  <scstep>
   <time name="dav">   27.11   27.29</time>
   <time name="total">   81.04   81.33</time>
   <energy>
    <i name="e_fr_energy">    -42.54500736 </i>
    <i name="e_wo_entrp">    -42.54500736 </i>
    <i name="e_0_energy">    -42.54500736 </i>
   </energy>
  </scstep>
  <scstep>
   <time name="dav">   26.17   26.29</time>
   <time name="total">   79.94   80.27</time>
   <energy>
    <i name="e_fr_energy">    -42.54900693 </i>
    <i name="e_wo_entrp">    -42.54900693 </i>
    <i name="e_0_energy">    -42.54900693 </i>
   </energy>
  </scstep>
  <scstep>
   <time name="dav">   29.68   29.94</time>
   <time name="total">   83.47   83.90</time>
   <energy>
    <i name="e_fr_energy">    -42.44039013 </i>
    <i name="e_wo_entrp">    -42.44039013 </i>
    <i name="e_0_energy">    -42.44039013 </i>
   </energy>
  </scstep>
  <scstep>
   <time name="dav">   27.54   27.58</time>
   <time name="total">   81.35   81.53</time>
   <energy>
    <i name="e_fr_energy">    -42.56272524 </i>
    <i name="e_wo_entrp">    -42.56272524 </i>
    <i name="e_0_energy">    -42.56272524 </i>
   </energy>
  </scstep>
  <scstep>
   <time name="dav">   25.82   26.05</time>
   <time name="total">   79.80   80.06</time>
   <energy>
    <i name="e_fr_energy">    -42.56099308 </i>
    <i name="e_wo_entrp">    -42.56099308 </i>
    <i name="e_0_energy">    -42.56099308 </i>
   </energy>
  </scstep>
  <scstep>
   <time name="dav">   30.86   31.10</time>
   <time name="total">   84.70   85.15</time>
   <energy>
    <i name="e_fr_energy">    -42.56155378 </i>
    <i name="e_wo_entrp">    -42.56155378 </i>
    <i name="e_0_energy">    -42.56155378 </i>
   </energy>
  </scstep>
  <scstep>
   <time name="dav">   21.89   22.18</time>
   <time name="total">   73.40   73.86</time>
   <energy>
    <i name="alphaZ">     35.98436639 </i>
    <i name="ewald">  10852.06849328 </i>
    <i name="hartreedc"> -14621.17419585 </i>
    <i name="XCdc">    138.26863261 </i>
    <i name="pawpsdc">   2480.50135361 </i>
    <i name="pawaedc">  -2576.93968020 </i>
    <i name="eentropy">      0.00000000 </i>
    <i name="bandstr">   -535.41885415 </i>
    <i name="atom">   4184.14832191 </i>
    <i name="e_fr_energy">    -42.56156241 </i>
    <i name="e_wo_entrp">    -42.56156241 </i>
    <i name="e_0_energy">    -42.56156241 </i>
   </energy>
  </scstep>
  <structure>
   <crystal>
    <varray name="basis" >
     <v>       6.13371643       0.00000021       0.00000000 </v>
     <v>       3.06685770       5.31195411       0.00000000 </v>
     <v>      -0.00000000       0.00000000      22.10522048 </v>
    </varray>
    <i name="volume">    720.23272502 </i>
    <varray name="rec_basis" >
     <v>       0.16303330      -0.09412731       0.00000000 </v>
     <v>      -0.00000001       0.18825464      -0.00000000 </v>
     <v>      -0.00000000      -0.00000000       0.04523818 </v>
    </varray>
   </crystal>
   <varray name="positions" >
    <v>       0.33333300       0.33333300       0.49994221 </v>
    <v>       0.66666700       0.66666700       0.50005779 </v>
    <v>       0.00000000       0.00000000       0.44858965 </v>
    <v>       0.00000000      -0.00000000       0.55141035 </v>
    <v>       0.63496881       0.00040233       0.57025302 </v>
    <v>       0.00040233       0.36462987       0.57025302 </v>
    <v>       0.36462987       0.63496881       0.57025302 </v>
    <v>       0.36503119       0.99959767       0.42974698 </v>
    <v>       0.99959767       0.63537013       0.42974698 </v>
    <v>       0.63537013       0.36503119       0.42974698 </v>
   </varray>
  </structure>
  <varray name="forces" >
   <v>       0.00000000      -0.00000000       0.00094454 </v>
   <v>       0.00000000       0.00000000      -0.00094454 </v>
   <v>       0.00000000      -0.00000000      -0.03462271 </v>
   <v>       0.00000000       0.00000000       0.03462271 </v>
   <v>       1.51052403      -0.00455388      -0.69926758 </v>
   <v>      -0.75920571      -1.30587519      -0.69926758 </v>
   <v>      -0.75131832       1.31042906      -0.69926758 </v>
   <v>      -1.51052403       0.00455388       0.69926758 </v>
   <v>       0.75920571       1.30587519       0.69926758 </v>
   <v>       0.75131832      -1.31042906       0.69926758 </v>
  </varray>
  <varray name="stress" >
   <v>     -36.31681242       0.00000184       0.00000000 </v>
   <v>       0.00000270     -36.31680911      -0.00000000 </v>
   <v>       0.00000000      -0.00000000     -15.90764683 </v>
  </varray>
  <energy>
   <i name="e_fr_energy">    -42.56156241 </i>
   <i name="e_wo_entrp">    -42.56156241 </i>
   <i name="e_0_energy">      0.00000000 </i>
  </energy>
  <time name="totalsc"> 1700.05 1707.86</time>
 </calculation>
 <calculation>
  <scstep>
   <time name="dav">   36.54   36.73</time>
   <time name="total">   94.10   94.44</time>
   <energy>
    <i name="alphaZ">     80.83333658 </i>
    <i name="ewald">  20610.19452682 </i>
    <i name="hartreedc"> -25206.98511916 </i>
    <i name="XCdc">    202.54073521 </i>
    <i name="pawpsdc">   2479.98894993 </i>
    <i name="pawaedc">  -2576.45846485 </i>
    <i name="eentropy">      0.00000000 </i>
    <i name="bandstr">    -81.31688108 </i>
    <i name="atom">   4184.14832191 </i>
    <i name="e_fr_energy">   -307.05459464 </i>
    <i name="e_wo_entrp">   -307.05459464 </i>
    <i name="e_0_energy">   -307.05459464 </i>
   </energy>
  </scstep>
  <scstep>
   <time name="dav">   38.32   38.43</time>
   <time name="total">   95.96   96.27</time>
   <energy>
    <i name="e_fr_energy">   -189.33786060 </i>
    <i name="e_wo_entrp">   -189.33786060 </i>
    <i name="e_0_energy">   -189.33786060 </i>
   </energy>
  </scstep>
  <scstep>
   <time name="dav">   36.28   36.54</time>
   <time name="total">   93.97   94.42</time>
   <energy>
    <i name="e_fr_energy">     29.21036423 </i>
    <i name="e_wo_entrp">     29.21036423 </i>
    <i name="e_0_energy">     29.21036423 </i>
   </energy>
  </scstep>
  <scstep>
   <time name="dav">   39.62   39.85</time>
   <time name="total">   97.24   97.72</time>
   <energy>
    <i name="e_fr_energy">     10.58266975 </i>
    <i name="e_wo_entrp">     10.58266975 </i>
    <i name="e_0_energy">     10.58266975 </i>
   </energy>
  </scstep>
  <scstep>
   <time name="dav">   34.72   34.87</time>
   <time name="total">   92.06   92.68</time>
   <energy>
    <i name="e_fr_energy">     19.88079237 </i>
    <i name="e_wo_entrp">     19.88079237 </i>
    <i name="e_0_energy">     19.88079237 </i>
   </energy>
  </scstep>
  <scstep>
   <time name="dav">   33.84   33.97</time>
   <time name="total">   91.65   91.90</time>
   <energy>
    <i name="e_fr_energy">     19.60571373 </i>
    <i name="e_wo_entrp">     19.60571373 </i>
    <i name="e_0_energy">     19.60571373 </i>
   </energy>
  </scstep>
  <scstep>
   <time name="dav">   35.30   35.56</time>
   <time name="total">   93.27   93.60</time>
   <energy>
    <i name="e_fr_energy">     21.18097310 </i>
    <i name="e_wo_entrp">     21.18097310 </i>
    <i name="e_0_energy">     21.18097310 </i>
   </energy>
  </scstep>
  <scstep>
   <time name="dav">   36.68   36.99</time>
   <time name="total">   93.85   94.85</time>
   <energy>
    <i name="e_fr_energy">     21.21817566 </i>
    <i name="e_wo_entrp">     21.21817566 </i>
    <i name="e_0_energy">     21.21817566 </i>
   </energy>
  </scstep>
  <scstep>
   <time name="dav">   37.17   37.33</time>
   <time name="total">   95.06   95.38</time>
   <energy>
    <i name="e_fr_energy">     21.27285764 </i>
    <i name="e_wo_entrp">     21.27285764 </i>
    <i name="e_0_energy">     21.27285764 </i>
   </energy>
  </scstep>
  <scstep>
   <time name="dav">   39.82   40.29</time>
   <time name="total">   97.59   98.25</time>
   <energy>
    <i name="e_fr_energy">     21.27462066 </i>
    <i name="e_wo_entrp">     21.27462066 </i>
    <i name="e_0_energy">     21.27462066 </i>
   </energy>
  </scstep>
  <scstep>
   <time name="dav">   36.66   36.87</time>
   <time name="total">   94.40   94.78</time>
   <energy>
    <i name="e_fr_energy">     21.27263252 </i>
    <i name="e_wo_entrp">     21.27263252 </i>
    <i name="e_0_energy">     21.27263252 </i>
   </energy>
  </scstep>
  <scstep>
   <time name="dav">   33.19   33.47</time>
   <time name="total">   90.95   91.31</time>
   <energy>
    <i name="e_fr_energy">     21.27811474 </i>
    <i name="e_wo_entrp">     21.27811474 </i>
    <i name="e_0_energy">     21.27811474 </i>
   </energy>
  </scstep>
  <scstep>
   <time name="dav">   28.41   28.79</time>
   <time name="total">   86.13   86.69</time>
   <energy>
    <i name="e_fr_energy">     21.27855360 </i>
    <i name="e_wo_entrp">     21.27855360 </i>
    <i name="e_0_energy">     21.27855360 </i>
   </energy>
  </scstep>
  <scstep>
   <time name="dav">   26.36   26.56</time>
   <time name="total">   81.62   82.07</time>
   <energy>
    <i name="alphaZ">     80.83333658 </i>
    <i name="ewald">  20610.19452682 </i>
    <i name="hartreedc"> -24354.56327005 </i>
    <i name="XCdc">    170.19144919 </i>
    <i name="pawpsdc">   3727.36632641 </i>
    <i name="pawaedc">  -3853.60456849 </i>
    <i name="eentropy">      0.00000000 </i>
    <i name="bandstr">   -543.28766118 </i>
    <i name="atom">   4184.14832191 </i>
    <i name="e_fr_energy">     21.27846119 </i>
    <i name="e_wo_entrp">     21.27846119 </i>
    <i name="e_0_energy">     21.27846119 </i>
   </energy>
  </scstep>
  <structure>
   <crystal>
    <varray name="basis" >
     <v>       4.40171221       0.00000067       0.00000000 </v>
     <v>       2.20085557       3.81199496       0.00000000 </v>
     <v>      -0.00000000       0.00000000      19.10831006 </v>
    </varray>
    <i name="volume">    320.62413056 </i>
    <varray name="rec_basis" >
     <v>       0.22718434      -0.13116490       0.00000000 </v>
     <v>      -0.00000004       0.26232986      -0.00000000 </v>
     <v>      -0.00000000      -0.00000000       0.05233325 </v>
    </varray>
   </crystal>
   <varray name="positions" >
    <v>       0.33333300       0.33333300       0.49998305 </v>
    <v>       0.66666700       0.66666700       0.50001695 </v>
    <v>       0.00000000       0.00000000       0.44947637 </v>
    <v>       0.00000000      -0.00000000       0.55052363 </v>
    <v>       0.65666996       0.00035780       0.56194947 </v>
    <v>       0.00035780       0.34297325       0.56194947 </v>
    <v>       0.34297324       0.65666996       0.56194947 </v>
    <v>       0.34333004       0.99964220       0.43805053 </v>
    <v>       0.99964220       0.65702675       0.43805053 </v>
    <v>       0.65702676       0.34333004       0.43805053 </v>
   </varray>
  </structure>
  <varray name="forces" >
   <v>      -0.00000000      -0.00000000      -0.11724171 </v>
   <v>      -0.00000000       0.00000000       0.11724171 </v>
   <v>      -0.00000000       0.00000000       5.46030823 </v>
   <v>      -0.00000000       0.00000000      -5.46030823 </v>
   <v>     -24.48974697       0.00485288      17.25198494 </v>
   <v>      12.24907645      21.20631674      17.25198494 </v>
   <v>      12.24067052     -21.21116963      17.25198494 </v>
   <v>      24.48974697      -0.00485288     -17.25198494 </v>
   <v>     -12.24907645     -21.20631674     -17.25198494 </v>
   <v>     -12.24067052      21.21116963     -17.25198494 </v>
  </varray>
  <varray name="stress" >
   <v>    1315.78266732       0.00001020       0.00000000 </v>
   <v>       0.00002030    1315.78268963       0.00000000 </v>
   <v>       0.00000000       0.00000000     586.21086610 </v>
  </varray>
  <energy>
   <i name="e_fr_energy">     21.27846119 </i>
   <i name="e_wo_entrp">     21.27846119 </i>
   <i name="e_0_energy">      0.00000000 </i>
  </energy>
  <time name="totalsc"> 1449.50 1456.53</time>
 </calculation>
 <calculation>
  <scstep>
   <time name="dav">   25.90   25.93</time>
   <time name="total">   79.85   79.97</time>
   <energy>
    <i name="alphaZ">     37.44424695 </i>
    <i name="ewald">  11103.87907355 </i>
    <i name="hartreedc"> -14297.58798280 </i>
    <i name="XCdc">    117.41877734 </i>
    <i name="pawpsdc">   3728.85238368 </i>
    <i name="pawaedc">  -3854.96728897 </i>
    <i name="eentropy">      0.00000000 </i>
    <i name="bandstr">  -1190.70497844 </i>
    <i name="atom">   4184.14832191 </i>
    <i name="e_fr_energy">   -171.51744679 </i>
    <i name="e_wo_entrp">   -171.51744679 </i>
    <i name="e_0_energy">   -171.51744679 </i>
   </energy>
  </scstep>
  <scstep>
   <time name="dav">   26.29   26.47</time>
   <time name="total">   80.24   80.79</time>
   <energy>
    <i name="e_fr_energy">   -110.60277320 </i>
    <i name="e_wo_entrp">   -110.60277320 </i>
    <i name="e_0_energy">   -110.60277320 </i>
   </energy>
  </scstep>
  <scstep>
   <time name="dav">   26.04   26.17</time>
   <time name="total">   80.10   80.32</time>
   <energy>
    <i name="e_fr_energy">   -125.93596015 </i>
    <i name="e_wo_entrp">   -125.93596015 </i>
    <i name="e_0_energy">   -125.93596015 </i>
   </energy>
  </scstep>
  <scstep>
   <time name="dav">   26.85   27.08</time>
   <time name="total">   80.61   81.20</time>
   <energy>
    <i name="e_fr_energy">    -67.67165351 </i>
    <i name="e_wo_entrp">    -67.67165351 </i>
    <i name="e_0_energy">    -67.67165351 </i>
   </energy>
  </scstep>
  <scstep>
   <time name="dav">   32.32   32.56</time>
   <time name="total">   86.44   86.81</time>
   <energy>
    <i name="e_fr_energy">    -50.70842853 </i>
    <i name="e_wo_entrp">    -50.70842853 </i>
    <i name="e_0_energy">    -50.70842853 </i>
   </energy>
  </scstep>
  <scstep>
   <time name="dav">   32.16   32.40</time>
   <time name="total">   86.16   86.66</time>
   <energy>
    <i name="e_fr_energy">    -42.97520565 </i>
    <i name="e_wo_entrp">    -42.97520565 </i>
    <i name="e_0_energy">    -42.97520565 </i>
   </energy>
  </scstep>
  <scstep>
   <time name="dav">   33.76   33.82</time>
   <time name="total">   87.90   88.05</time>
   <energy>
    <i name="e_fr_energy">    -43.29495357 </i>
    <i name="e_wo_entrp">    -43.29495357 </i>
    <i name="e_0_energy">    -43.29495357 </i>
   </energy>
  </scstep>
  <scstep>
   <time name="dav">   35.04   35.20</time>
   <time name="total">   89.02   89.43</time>
   <energy>
    <i name="e_fr_energy">    -43.12102591 </i>
    <i name="e_wo_entrp">    -43.12102591 </i>
    <i name="e_0_energy">    -43.12102591 </i>
   </energy>
  </scstep>
  <scstep>
   <time name="dav">   31.83   31.93</time>
   <time name="total">   86.20   86.35</time>
   <energy>
    <i name="e_fr_energy">    -42.50844822 </i>
    <i name="e_wo_entrp">    -42.50844822 </i>
    <i name="e_0_energy">    -42.50844822 </i>
   </energy>
  </scstep>
  <scstep>
   <time name="dav">   33.74   33.85</time>
   <time name="total">   87.84   88.02</time>
   <energy>
    <i name="e_fr_energy">    -42.46450459 </i>
    <i name="e_wo_entrp">    -42.46450459 </i>
    <i name="e_0_energy">    -42.46450459 </i>
   </energy>
  </scstep>
  <scstep>
   <time name="dav">   31.20   31.40</time>
   <time name="total">   85.44   85.77</time>
   <energy>
    <i name="e_fr_energy">    -42.46697747 </i>
    <i name="e_wo_entrp">    -42.46697747 </i>
    <i name="e_0_energy">    -42.46697747 </i>
   </energy>
  </scstep>
  <scstep>
   <time name="dav">   29.21   29.33</time>
   <time name="total">   83.39   83.64</time>
   <energy>
    <i name="e_fr_energy">    -42.47283456 </i>
    <i name="e_wo_entrp">    -42.47283456 </i>
    <i name="e_0_energy">    -42.47283456 </i>
   </energy>
  </scstep>
  <scstep>
   <time name="dav">   27.16   27.61</time>
   <time name="total">   81.46   82.06</time>
   <energy>
    <i name="e_fr_energy">    -42.46514563 </i>
    <i name="e_wo_entrp">    -42.46514563 </i>
    <i name="e_0_energy">    -42.46514563 </i>
   </energy>
  </scstep>
  <scstep>
   <time name="dav">   28.09   28.18</time>
   <time name="total">   82.35   82.57</time>
   <energy>
    <i name="e_fr_energy">    -42.45513000 </i>
    <i name="e_wo_entrp">    -42.45513000 </i>
    <i name="e_0_energy">    -42.45513000 </i>
   </energy>
  </scstep>
  <scstep>
   <time name="dav">   29.58   30.06</time>
   <time name="total">   83.39   84.40</time>
   <energy>
    <i name="e_fr_energy">    -42.44907556 </i>
    <i name="e_wo_entrp">    -42.44907556 </i>
    <i name="e_0_energy">    -42.44907556 </i>
   </energy>
  </scstep>
  <scstep>
   <time name="dav">   26.48   26.58</time>
   <time name="total">   80.74   81.02</time>
   <energy>
    <i name="e_fr_energy">    -42.44337430 </i>
    <i name="e_wo_entrp">    -42.44337430 </i>
    <i name="e_0_energy">    -42.44337430 </i>
   </energy>
  </scstep>
  <scstep>
   <time name="dav">   29.30   29.45</time>
   <time name="total">   83.24   83.59</time>
   <energy>
    <i name="e_fr_energy">    -42.45144602 </i>
    <i name="e_wo_entrp">    -42.45144602 </i>
    <i name="e_0_energy">    -42.45144602 </i>
   </energy>
  </scstep>
  <scstep>
   <time name="dav">   27.42   27.51</time>
   <time name="total">   81.32   81.64</time>
   <energy>
    <i name="e_fr_energy">    -42.40844582 </i>
    <i name="e_wo_entrp">    -42.40844582 </i>
    <i name="e_0_energy">    -42.40844582 </i>
   </energy>
  </scstep>
  <scstep>
   <time name="dav">   33.57   33.72</time>
   <time name="total">   87.55   87.96</time>
   <energy>
    <i name="e_fr_energy">    -42.40670010 </i>
    <i name="e_wo_entrp">    -42.40670010 </i>
    <i name="e_0_energy">    -42.40670010 </i>
   </energy>
  </scstep>
  <scstep>
   <time name="dav">   27.58   27.73</time>
   <time name="total">   81.28   81.79</time>
   <energy>
    <i name="e_fr_energy">    -42.39097934 </i>
    <i name="e_wo_entrp">    -42.39097934 </i>
    <i name="e_0_energy">    -42.39097934 </i>
   </energy>
  </scstep>
  <scstep>
   <time name="dav">   27.88   27.98</time>
   <time name="total">   81.86   82.19</time>
   <energy>
    <i name="e_fr_energy">    -42.39586743 </i>
    <i name="e_wo_entrp">    -42.39586743 </i>
    <i name="e_0_energy">    -42.39586743 </i>
   </energy>
  </scstep>
  <scstep>
   <time name="dav">   29.51   29.89</time>
   <time name="total">   83.86   84.34</time>
   <energy>
    <i name="e_fr_energy">    -42.38887867 </i>
    <i name="e_wo_entrp">    -42.38887867 </i>
    <i name="e_0_energy">    -42.38887867 </i>
   </energy>
  </scstep>
  <scstep>
   <time name="dav">   29.43   29.48</time>
   <time name="total">   83.47   83.70</time>
   <energy>
    <i name="e_fr_energy">    -42.38800986 </i>
    <i name="e_wo_entrp">    -42.38800986 </i>
    <i name="e_0_energy">    -42.38800986 </i>
   </energy>
  </scstep>
  <scstep>
   <time name="dav">   30.04   30.12</time>
   <time name="total">   84.14   84.32</time>
   <energy>
    <i name="e_fr_energy">    -42.38964611 </i>
    <i name="e_wo_entrp">    -42.38964611 </i>
    <i name="e_0_energy">    -42.38964611 </i>
   </energy>
  </scstep>
  <scstep>
   <time name="dav">   27.16   27.23</time>
   <time name="total">   81.17   81.47</time>
   <energy>
    <i name="e_fr_energy">    -42.39872190 </i>
    <i name="e_wo_entrp">    -42.39872190 </i>
    <i name="e_0_energy">    -42.39872190 </i>
   </energy>
  </scstep>
  <scstep>
   <time name="dav">   28.07   28.25</time>
   <time name="total">   81.91   82.32</time>
   <energy>
    <i name="e_fr_energy">    -42.39877295 </i>
    <i name="e_wo_entrp">    -42.39877295 </i>
    <i name="e_0_energy">    -42.39877295 </i>
   </energy>
  </scstep>
  <scstep>
   <time name="dav">   25.62   25.68</time>
   <time name="total">   79.56   79.84</time>
   <energy>
    <i name="e_fr_energy">    -42.39425673 </i>
    <i name="e_wo_entrp">    -42.39425673 </i>
    <i name="e_0_energy">    -42.39425673 </i>
   </energy>
  </scstep>
  <scstep>
   <time name="dav">   29.26   29.41</time>
   <time name="total">   83.31   83.62</time>
   <energy>
    <i name="e_fr_energy">    -42.39314951 </i>
    <i name="e_wo_entrp">    -42.39314951 </i>
    <i name="e_0_energy">    -42.39314951 </i>
   </energy>
  </scstep>
  <scstep>
   <time name="dav">   23.56   23.70</time>
   <time name="total">   77.85   78.09</time>
   <energy>
    <i name="e_fr_energy">    -42.39739780 </i>
    <i name="e_wo_entrp">    -42.39739780 </i>
    <i name="e_0_energy">    -42.39739780 </i>
   </energy>
  </scstep>
  <scstep>
   <time name="dav">   19.68   19.77</time>
   <time name="total">   73.55   74.04</time>
   <energy>
    <i name="e_fr_energy">    -42.39823444 </i>
    <i name="e_wo_entrp">    -42.39823444 </i>
    <i name="e_0_energy">    -42.39823444 </i>
   </energy>
  </scstep>
  <scstep>
   <time name="dav">   21.48   21.60</time>
   <time name="total">   75.28   75.89</time>
   <energy>
    <i name="e_fr_energy">    -42.39873204 </i>
    <i name="e_wo_entrp">    -42.39873204 </i>
    <i name="e_0_energy">    -42.39873204 </i>
   </energy>
  </scstep>
  <scstep>
   <time name="dav">   19.35   19.48</time>
   <time name="total">   73.39   73.80</time>
   <energy>
    <i name="e_fr_energy">    -42.39894960 </i>
    <i name="e_wo_entrp">    -42.39894960 </i>
    <i name="e_0_energy">    -42.39894960 </i>
   </energy>
  </scstep>
  <scstep>
   <time name="dav">   17.77   17.87</time>
   <time name="total">   69.31   69.78</time>
   <energy>
    <i name="alphaZ">     37.44424695 </i>
    <i name="ewald">  11103.87907355 </i>
    <i name="hartreedc"> -14883.17855384 </i>
    <i name="XCdc">    138.01809564 </i>
    <i name="pawpsdc">   2503.94356717 </i>
    <i name="pawaedc">  -2599.80898335 </i>
    <i name="eentropy">      0.00000000 </i>
    <i name="bandstr">   -526.84473819 </i>
    <i name="atom">   4184.14832191 </i>
    <i name="e_fr_energy">    -42.39897016 </i>
    <i name="e_wo_entrp">    -42.39897016 </i>
    <i name="e_0_energy">    -42.39897016 </i>
   </energy>
  </scstep>
  <structure>
   <crystal>
    <varray name="basis" >
     <v>       6.03606914       0.00000023       0.00000000 </v>
     <v>       3.01803406       5.22738910       0.00000000 </v>
     <v>      -0.00000000       0.00000000      21.93626004 </v>
    </varray>
    <i name="volume">    692.15220947 </i>
    <varray name="rec_basis" >
     <v>       0.16567074      -0.09565003       0.00000000 </v>
     <v>      -0.00000001       0.19130009      -0.00000000 </v>
     <v>      -0.00000000      -0.00000000       0.04558662 </v>
    </varray>
   </crystal>
   <varray name="positions" >
    <v>       0.33333300       0.33333300       0.49993847 </v>
    <v>       0.66666700       0.66666700       0.50006153 </v>
    <v>       0.00000000       0.00000000       0.44850841 </v>
    <v>       0.00000000      -0.00000000       0.55149159 </v>
    <v>       0.62813463       0.00041636       0.57101377 </v>
    <v>       0.00041636       0.37145001       0.57101377 </v>
    <v>       0.37145001       0.62813463       0.57101377 </v>
    <v>       0.37186537       0.99958364       0.42898623 </v>
    <v>       0.99958364       0.62854999       0.42898623 </v>
    <v>       0.62854999       0.37186537       0.42898623 </v>
   </varray>
  </structure>
  <varray name="forces" >
   <v>      -0.00000000      -0.00000000       0.00242261 </v>
   <v>      -0.00000000      -0.00000000      -0.00242261 </v>
   <v>      -0.00000000      -0.00000000      -0.78609299 </v>
   <v>      -0.00000000      -0.00000000       0.78609299 </v>
   <v>       1.31050396      -0.00792269      -1.06499627 </v>
   <v>      -0.66211317      -1.13096832      -1.06499627 </v>
   <v>      -0.64839079       1.13889102      -1.06499627 </v>
   <v>      -1.31050396       0.00792269       1.06499627 </v>
   <v>       0.66211317       1.13096832       1.06499627 </v>
   <v>       0.64839079      -1.13889102       1.06499627 </v>
  </varray>
  <varray name="stress" >
   <v>     -31.18111572       0.00000212       0.00000000 </v>
   <v>       0.00000159     -31.18111301      -0.00000000 </v>
   <v>      -0.00000000       0.00000000     -19.10956768 </v>
  </varray>
  <energy>
   <i name="e_fr_energy">    -42.39897016 </i>
   <i name="e_wo_entrp">    -42.39897016 </i>
   <i name="e_0_energy">      0.00000000 </i>
  </energy>
  <time name="totalsc"> 2838.56 2851.87</time>
 </calculation>
 <calculation>
  <scstep>
   <time name="dav">   31.03   31.17</time>
   <time name="total">   85.65   86.05</time>
   <energy>
    <i name="alphaZ">     42.04200824 </i>
    <i name="ewald">  11933.86857109 </i>
    <i name="hartreedc"> -15843.22820426 </i>
    <i name="XCdc">    146.27445736 </i>
    <i name="pawpsdc">   2503.91348380 </i>
    <i name="pawaedc">  -2599.78526723 </i>
    <i name="eentropy">      0.00000000 </i>
    <i name="bandstr">   -419.91848262 </i>
    <i name="atom">   4184.14832191 </i>
    <i name="e_fr_energy">    -52.68511170 </i>
    <i name="e_wo_entrp">    -52.68511170 </i>
    <i name="e_0_energy">    -52.68511170 </i>
   </energy>
  </scstep>
  <scstep>
   <time name="dav">   25.75   25.81</time>
   <time name="total">   80.20   80.42</time>
   <energy>
    <i name="e_fr_energy">    -83.63410085 </i>
    <i name="e_wo_entrp">    -83.63410085 </i>
    <i name="e_0_energy">    -83.63410085 </i>
   </energy>
  </scstep>
  <scstep>
   <time name="dav">   28.13   28.18</time>
   <time name="total">   82.67   82.85</time>
   <energy>
    <i name="e_fr_energy">    -44.98576837 </i>
    <i name="e_wo_entrp">    -44.98576837 </i>
    <i name="e_0_energy">    -44.98576837 </i>
   </energy>
  </scstep>
  <scstep>
   <time name="dav">   33.00   33.05</time>
   <time name="total">   87.59   87.67</time>
   <energy>
    <i name="e_fr_energy">    -46.38252199 </i>
    <i name="e_wo_entrp">    -46.38252199 </i>
    <i name="e_0_energy">    -46.38252199 </i>
   </energy>
  </scstep>
  <scstep>
   <time name="dav">   31.40   31.82</time>
   <time name="total">   86.09   86.65</time>
   <energy>
    <i name="e_fr_energy">    -43.96473669 </i>
    <i name="e_wo_entrp">    -43.96473669 </i>
    <i name="e_0_energy">    -43.96473669 </i>
   </energy>
  </scstep>
  <scstep>
   <time name="dav">   26.21   26.42</time>
   <time name="total">   80.54   81.13</time>
   <energy>
    <i name="e_fr_energy">    -43.97857497 </i>
    <i name="e_wo_entrp">    -43.97857497 </i>
    <i name="e_0_energy">    -43.97857497 </i>
   </energy>
  </scstep>
  <scstep>
   <time name="dav">   30.34   30.48</time>
   <time name="total">   84.93   85.22</time>
   <energy>
    <i name="e_fr_energy">    -43.82784851 </i>
    <i name="e_wo_entrp">    -43.82784851 </i>
    <i name="e_0_energy">    -43.82784851 </i>
   </energy>
  </scstep>
  <scstep>
   <time name="dav">   30.82   31.10</time>
   <time name="total">   85.37   85.81</time>
   <energy>
    <i name="e_fr_energy">    -43.77858738 </i>
    <i name="e_wo_entrp">    -43.77858738 </i>
    <i name="e_0_energy">    -43.77858738 </i>
   </energy>
  </scstep>
  <scstep>
   <time name="dav">   31.53   31.94</time>
   <time name="total">   85.66   86.57</time>
   <energy>
    <i name="e_fr_energy">    -43.77547617 </i>
    <i name="e_wo_entrp">    -43.77547617 </i>
    <i name="e_0_energy">    -43.77547617 </i>
   </energy>
  </scstep>
  <scstep>
   <time name="dav">   29.94   30.12</time>
   <time name="total">   84.39   84.76</time>
   <energy>
    <i name="e_fr_energy">    -43.77454086 </i>
    <i name="e_wo_entrp">    -43.77454086 </i>
    <i name="e_0_energy">    -43.77454086 </i>
   </energy>
  </scstep>
  <scstep>
   <time name="dav">   23.71   23.81</time>
   <time name="total">   78.07   78.40</time>
   <energy>
    <i name="e_fr_energy">    -43.77427401 </i>
    <i name="e_wo_entrp">    -43.77427401 </i>
    <i name="e_0_energy">    -43.77427401 </i>
   </energy>
  </scstep>
  <scstep>
   <time name="dav">   22.15   22.26</time>
   <time name="total">   76.15   76.83</time>
   <energy>
    <i name="e_fr_energy">    -43.77411285 </i>
    <i name="e_wo_entrp">    -43.77411285 </i>
    <i name="e_0_energy">    -43.77411285 </i>
   </energy>
  </scstep>
  <scstep>
   <time name="dav">   23.32   23.56</time>
   <time name="total">   78.07   78.50</time>
   <energy>
    <i name="e_fr_energy">    -43.77423510 </i>
    <i name="e_wo_entrp">    -43.77423510 </i>
    <i name="e_0_energy">    -43.77423510 </i>
   </energy>
  </scstep>
  <scstep>
   <time name="dav">   24.35   24.43</time>
   <time name="total">   78.60   79.39</time>
   <energy>
    <i name="e_fr_energy">    -43.77407500 </i>
    <i name="e_wo_entrp">    -43.77407500 </i>
    <i name="e_0_energy">    -43.77407500 </i>
   </energy>
  </scstep>
  <scstep>
   <time name="dav">   24.09   24.33</time>
   <time name="total">   77.99   78.87</time>
   <energy>
    <i name="e_fr_energy">    -43.77364773 </i>
    <i name="e_wo_entrp">    -43.77364773 </i>
    <i name="e_0_energy">    -43.77364773 </i>
   </energy>
  </scstep>
  <scstep>
   <time name="dav">   19.29   19.33</time>
   <time name="total">   73.75   73.99</time>
   <energy>
    <i name="e_fr_energy">    -43.77375850 </i>
    <i name="e_wo_entrp">    -43.77375850 </i>
    <i name="e_0_energy">    -43.77375850 </i>
   </energy>
  </scstep>
  <scstep>
   <time name="dav">   19.02   19.11</time>
   <time name="total">   71.23   71.51</time>
   <energy>
    <i name="alphaZ">     42.04200824 </i>
    <i name="ewald">  11933.86857109 </i>
    <i name="hartreedc"> -15725.90118257 </i>
    <i name="XCdc">    141.54198799 </i>
    <i name="pawpsdc">   2577.63938698 </i>
    <i name="pawaedc">  -2675.11723462 </i>
    <i name="eentropy">      0.00000000 </i>
    <i name="bandstr">   -521.99568787 </i>
    <i name="atom">   4184.14832191 </i>
    <i name="e_fr_energy">    -43.77382886 </i>
    <i name="e_wo_entrp">    -43.77382886 </i>
    <i name="e_0_energy">    -43.77382886 </i>
   </energy>
  </scstep>
  <structure>
   <crystal>
    <varray name="basis" >
     <v>       5.77951284       0.00000021       0.00000000 </v>
     <v>       2.88975596       5.00520485      -0.00000000 </v>
     <v>      -0.00000000       0.00000000      21.31033010 </v>
    </varray>
    <i name="volume">    616.45766562 </i>
    <varray name="rec_basis" >
     <v>       0.17302497      -0.09989600       0.00000000 </v>
     <v>      -0.00000001       0.19979203      -0.00000000 </v>
     <v>      -0.00000000       0.00000000       0.04692560 </v>
    </varray>
   </crystal>
   <varray name="positions" >
    <v>       0.33333300       0.33333300       0.49993997 </v>
    <v>       0.66666700       0.66666700       0.50006003 </v>
    <v>       0.00000000      -0.00000000       0.44665004 </v>
    <v>       0.00000000      -0.00000000       0.55334996 </v>
    <v>       0.63678898       0.00034575       0.56941748 </v>
    <v>       0.00034575       0.36286627       0.56941748 </v>
    <v>       0.36286627       0.63678899       0.56941748 </v>
    <v>       0.36321102       0.99965425       0.43058252 </v>
    <v>       0.99965425       0.63713373       0.43058252 </v>
    <v>       0.63713373       0.36321101       0.43058252 </v>
   </varray>
  </structure>
  <varray name="forces" >
   <v>      -0.00000000      -0.00000000      -0.00062992 </v>
   <v>       0.00000000       0.00000000       0.00062992 </v>
   <v>      -0.00000000       0.00000000       0.09955050 </v>
   <v>       0.00000000      -0.00000000      -0.09955050 </v>
   <v>       1.02150539      -0.00915810      -0.03131958 </v>
   <v>      -0.51868379      -0.88007053      -0.03131958 </v>
   <v>      -0.50282160       0.88922863      -0.03131958 </v>
   <v>      -1.02150539       0.00915810       0.03131958 </v>
   <v>       0.51868379       0.88007053       0.03131958 </v>
   <v>       0.50282160      -0.88922863       0.03131958 </v>
  </varray>
  <varray name="stress" >
   <v>      -3.59569229      -0.00000099      -0.00000000 </v>
   <v>       0.00000139      -3.59569200      -0.00000000 </v>
   <v>      -0.00000000       0.00000000      -1.18985009 </v>
  </varray>
  <energy>
   <i name="e_fr_energy">    -43.77382886 </i>
   <i name="e_wo_entrp">    -43.77382886 </i>
   <i name="e_0_energy">      0.00000000 </i>
  </energy>
  <time name="totalsc"> 1514.43 1522.59</time>
 </calculation>
 <calculation>
  <scstep>
   <time name="dav">   30.12   30.34</time>
   <time name="total">   84.74   85.17</time>
   <energy>
    <i name="alphaZ">     42.97295937 </i>
    <i name="ewald">  12098.59361515 </i>
    <i name="hartreedc"> -15913.75193415 </i>
    <i name="XCdc">    143.11539172 </i>
    <i name="pawpsdc">   2577.60145514 </i>
    <i name="pawaedc">  -2675.07401854 </i>
    <i name="eentropy">      0.00000000 </i>
    <i name="bandstr">   -501.69228214 </i>
    <i name="atom">   4184.14832191 </i>
    <i name="e_fr_energy">    -44.08649154 </i>
    <i name="e_wo_entrp">    -44.08649154 </i>
    <i name="e_0_energy">    -44.08649154 </i>
   </energy>
  </scstep>
  <scstep>
   <time name="dav">   25.44   25.48</time>
   <time name="total">   80.18   80.43</time>
   <energy>
    <i name="e_fr_energy">    -44.86905690 </i>
    <i name="e_wo_entrp">    -44.86905690 </i>
    <i name="e_0_energy">    -44.86905690 </i>
   </energy>
  </scstep>
  <scstep>
   <time name="dav">   25.82   26.01</time>
   <time name="total">   80.29   80.88</time>
   <energy>
    <i name="e_fr_energy">    -43.81644193 </i>
    <i name="e_wo_entrp">    -43.81644193 </i>
    <i name="e_0_energy">    -43.81644193 </i>
   </energy>
  </scstep>
  <scstep>
   <time name="dav">   25.84   26.21</time>
   <time name="total">   80.68   81.31</time>
   <energy>
    <i name="e_fr_energy">    -43.81136913 </i>
    <i name="e_wo_entrp">    -43.81136913 </i>
    <i name="e_0_energy">    -43.81136913 </i>
   </energy>
  </scstep>
  <scstep>
   <time name="dav">   29.74   29.95</time>
   <time name="total">   84.10   84.67</time>
   <energy>
    <i name="e_fr_energy">    -43.82655769 </i>
    <i name="e_wo_entrp">    -43.82655769 </i>
    <i name="e_0_energy">    -43.82655769 </i>
   </energy>
  </scstep>
  <scstep>
   <time name="dav">   23.76   24.03</time>
   <time name="total">   78.45   78.98</time>
   <energy>
    <i name="e_fr_energy">    -43.82669901 </i>
    <i name="e_wo_entrp">    -43.82669901 </i>
    <i name="e_0_energy">    -43.82669901 </i>
   </energy>
  </scstep>
  <scstep>
   <time name="dav">   25.21   25.28</time>
   <time name="total">   79.82   80.00</time>
   <energy>
    <i name="e_fr_energy">    -43.82705964 </i>
    <i name="e_wo_entrp">    -43.82705964 </i>
    <i name="e_0_energy">    -43.82705964 </i>
   </energy>
  </scstep>
  <scstep>
   <time name="dav">   18.54   18.73</time>
   <time name="total">   70.84   71.25</time>
   <energy>
    <i name="alphaZ">     42.97295937 </i>
    <i name="ewald">  12098.59361515 </i>
    <i name="hartreedc"> -15894.24538001 </i>
    <i name="XCdc">    142.27722080 </i>
    <i name="pawpsdc">   2593.65703124 </i>
    <i name="pawaedc">  -2691.50317504 </i>
    <i name="eentropy">      0.00000000 </i>
    <i name="bandstr">   -519.72764158 </i>
    <i name="atom">   4184.14832191 </i>
    <i name="e_fr_energy">    -43.82704814 </i>
    <i name="e_wo_entrp">    -43.82704814 </i>
    <i name="e_0_energy">    -43.82704814 </i>
   </energy>
  </scstep>
  <structure>
   <crystal>
    <varray name="basis" >
     <v>       5.73213454       0.00000021       0.00000000 </v>
     <v>       2.86606682       4.96417403      -0.00000000 </v>
     <v>      -0.00000000       0.00000000      21.19473949 </v>
    </varray>
    <i name="volume">    603.10294285 </i>
    <varray name="rec_basis" >
     <v>       0.17445509      -0.10072168       0.00000000 </v>
     <v>      -0.00000001       0.20144338      -0.00000000 </v>
     <v>      -0.00000000       0.00000000       0.04718152 </v>
    </varray>
   </crystal>
   <varray name="positions" >
    <v>       0.33333300       0.33333300       0.49994026 </v>
    <v>       0.66666700       0.66666700       0.50005974 </v>
    <v>       0.00000000      -0.00000000       0.44629678 </v>
    <v>       0.00000000      -0.00000000       0.55370322 </v>
    <v>       0.63845813       0.00033213       0.56911404 </v>
    <v>       0.00033213       0.36121074       0.56911404 </v>
    <v>       0.36121074       0.63845813       0.56911404 </v>
    <v>       0.36154187       0.99966787       0.43088596 </v>
    <v>       0.99966787       0.63878926       0.43088596 </v>
    <v>       0.63878926       0.36154187       0.43088596 </v>
   </varray>
  </structure>
  <varray name="forces" >
   <v>      -0.00000000      -0.00000000      -0.00254032 </v>
   <v>      -0.00000000      -0.00000000       0.00254032 </v>
   <v>      -0.00000000      -0.00000000       0.31148598 </v>
   <v>      -0.00000000      -0.00000000      -0.31148598 </v>
   <v>       0.80362356      -0.00863457       0.20609527 </v>
   <v>      -0.40928950      -0.69164110       0.20609527 </v>
   <v>      -0.39433406       0.70027568       0.20609527 </v>
   <v>      -0.80362356       0.00863457      -0.20609527 </v>
   <v>       0.40928950       0.69164110      -0.20609527 </v>
   <v>       0.39433406      -0.70027568      -0.20609527 </v>
  </varray>
  <varray name="stress" >
   <v>       4.29043191      -0.00000147       0.00000000 </v>
   <v>       0.00000100       4.29043157       0.00000000 </v>
   <v>       0.00000000       0.00000000       2.07900737 </v>
  </varray>
  <energy>
   <i name="e_fr_energy">    -43.82704814 </i>
   <i name="e_wo_entrp">    -43.82704814 </i>
   <i name="e_0_energy">      0.00000000 </i>
  </energy>
  <time name="totalsc">  776.38  780.97</time>
 </calculation>
 <calculation>
  <scstep>
   <time name="dav">   23.13   23.20</time>
   <time name="total">   77.68   78.11</time>
   <energy>
    <i name="alphaZ">     42.53561228 </i>
    <i name="ewald">  11974.28822208 </i>
    <i name="hartreedc"> -15757.07215605 </i>
    <i name="XCdc">    141.86832561 </i>
    <i name="pawpsdc">   2593.90958438 </i>
    <i name="pawaedc">  -2691.73949967 </i>
    <i name="eentropy">      0.00000000 </i>
    <i name="bandstr">   -531.91079911 </i>
    <i name="atom">   4184.14832191 </i>
    <i name="e_fr_energy">    -43.97238858 </i>
    <i name="e_wo_entrp">    -43.97238858 </i>
    <i name="e_0_energy">    -43.97238858 </i>
   </energy>
  </scstep>
  <scstep>
   <time name="dav">   32.45   32.66</time>
   <time name="total">   87.04   87.39</time>
   <energy>
    <i name="e_fr_energy">    -44.15819860 </i>
    <i name="e_wo_entrp">    -44.15819860 </i>
    <i name="e_0_energy">    -44.15819860 </i>
   </energy>
  </scstep>
  <scstep>
   <time name="dav">   27.89   28.11</time>
   <time name="total">   82.17   82.76</time>
   <energy>
    <i name="e_fr_energy">    -44.01132314 </i>
    <i name="e_wo_entrp">    -44.01132314 </i>
    <i name="e_0_energy">    -44.01132314 </i>
   </energy>
  </scstep>
  <scstep>
   <time name="dav">   26.35   26.48</time>
   <time name="total">   80.86   81.18</time>
   <energy>
    <i name="e_fr_energy">    -43.99843991 </i>
    <i name="e_wo_entrp">    -43.99843991 </i>
    <i name="e_0_energy">    -43.99843991 </i>
   </energy>
  </scstep>
  <scstep>
   <time name="dav">   28.34   28.58</time>
   <time name="total">   82.72   83.34</time>
   <energy>
    <i name="e_fr_energy">    -43.99523004 </i>
    <i name="e_wo_entrp">    -43.99523004 </i>
    <i name="e_0_energy">    -43.99523004 </i>
   </energy>
  </scstep>
  <scstep>
   <time name="dav">   23.79   23.90</time>
   <time name="total">   78.26   78.67</time>
   <energy>
    <i name="e_fr_energy">    -43.99537157 </i>
    <i name="e_wo_entrp">    -43.99537157 </i>
    <i name="e_0_energy">    -43.99537157 </i>
   </energy>
  </scstep>
  <scstep>
   <time name="dav">   18.45   18.48</time>
   <time name="total">   70.76   70.93</time>
   <energy>
    <i name="alphaZ">     42.53561228 </i>
    <i name="ewald">  11974.28822208 </i>
    <i name="hartreedc"> -15766.30366695 </i>
    <i name="XCdc">    142.39118638 </i>
    <i name="pawpsdc">   2584.68479866 </i>
    <i name="pawaedc">  -2682.16548847 </i>
[...]
        <r>  0.0001  0.0036  0.0056  0.0006  0.0000  0.0000  0.0000  0.0000  0.0000 </r>
        <r>  0.0007  0.0000  0.0133  0.0000  0.0000  0.0000  0.0000  0.0000  0.0000 </r>
        <r>  0.0001  0.0025  0.0058  0.0015  0.0000  0.0000  0.0000  0.0000  0.0000 </r>
       </set>
       <set comment="band 30">
        <r>  0.0005  0.0008  0.0003  0.0004  0.0787  0.0063  0.1716  0.0122  0.1614 </r>
        <r>  0.0005  0.0008  0.0003  0.0004  0.0787  0.0063  0.1716  0.0122  0.1614 </r>
        <r>  0.0000  0.0003  0.0000  0.0011  0.0000  0.0000  0.0000  0.0000  0.0000 </r>
        <r>  0.0000  0.0003  0.0000  0.0011  0.0000  0.0000  0.0000  0.0000  0.0000 </r>
        <r>  0.0002  0.0043  0.0082  0.0001  0.0000  0.0000  0.0000  0.0000  0.0000 </r>
        <r>  0.0000  0.0007  0.0000  0.0020  0.0000  0.0000  0.0000  0.0000  0.0000 </r>
        <r>  0.0002  0.0011  0.0078  0.0035  0.0000  0.0000  0.0000  0.0000  0.0000 </r>
        <r>  0.0002  0.0043  0.0082  0.0001  0.0000  0.0000  0.0000  0.0000  0.0000 </r>
        <r>  0.0000  0.0007  0.0000  0.0020  0.0000  0.0000  0.0000  0.0000  0.0000 </r>
        <r>  0.0002  0.0011  0.0078  0.0035  0.0000  0.0000  0.0000  0.0000  0.0000 </r>
       </set>
       <set comment="band 31">
        <r>  0.0006  0.0033  0.0001  0.0044  0.1230  0.0143  0.0758  0.0128  0.1207 </r>
        <r>  0.0006  0.0033  0.0001  0.0044  0.1230  0.0143  0.0758  0.0128  0.1207 </r>
        <r>  0.0000  0.0001  0.0000  0.0003  0.0000  0.0000  0.0000  0.0000  0.0000 </r>
        <r>  0.0000  0.0001  0.0000  0.0003  0.0000  0.0000  0.0000  0.0000  0.0000 </r>
        <r>  0.0000  0.0235  0.0024  0.0000  0.0000  0.0000  0.0000  0.0000  0.0000 </r>
        <r>  0.0000  0.0078  0.0000  0.0233  0.0000  0.0000  0.0000  0.0000  0.0000 </r>
        <r>  0.0000  0.0063  0.0024  0.0172  0.0000  0.0000  0.0000  0.0000  0.0000 </r>
        <r>  0.0000  0.0235  0.0024  0.0000  0.0000  0.0000  0.0000  0.0000  0.0000 </r>
        <r>  0.0000  0.0078  0.0000  0.0233  0.0000  0.0000  0.0000  0.0000  0.0000 </r>
        <r>  0.0000  0.0063  0.0024  0.0172  0.0000  0.0000  0.0000  0.0000  0.0000 </r>
       </set>
       <set comment="band 32">
        <r>  0.0000  0.0007  0.0000  0.0004  0.0437  0.0493  0.0021  0.1234  0.0626 </r>
        <r>  0.0000  0.0007  0.0000  0.0004  0.0437  0.0493  0.0021  0.1234  0.0626 </r>
        <r>  0.0022  0.0005  0.0264  0.0002  0.0000  0.0000  0.0000  0.0000  0.0000 </r>
        <r>  0.0022  0.0005  0.0264  0.0002  0.0000  0.0000  0.0000  0.0000  0.0000 </r>
        <r>  0.0042  0.0033  0.0116  0.0022  0.0000  0.0000  0.0000  0.0000  0.0000 </r>
        <r>  0.0073  0.0018  0.0167  0.0006  0.0000  0.0000  0.0000  0.0000  0.0000 </r>
        <r>  0.0042  0.0038  0.0116  0.0018  0.0000  0.0000  0.0000  0.0000  0.0000 </r>
        <r>  0.0042  0.0033  0.0116  0.0022  0.0000  0.0000  0.0000  0.0000  0.0000 </r>
        <r>  0.0073  0.0018  0.0167  0.0006  0.0000  0.0000  0.0000  0.0000  0.0000 </r>
        <r>  0.0042  0.0038  0.0116  0.0018  0.0000  0.0000  0.0000  0.0000  0.0000 </r>
       </set>
       <set comment="band 33">
        <r>  0.0007  0.0002  0.0014  0.0004  0.0360  0.1275  0.0117  0.0762  0.0199 </r>
        <r>  0.0007  0.0002  0.0014  0.0004  0.0360  0.1275  0.0117  0.0762  0.0199 </r>
        <r>  0.0000  0.0013  0.0000  0.0039  0.0000  0.0000  0.0000  0.0000  0.0000 </r>
        <r>  0.0000  0.0013  0.0000  0.0039  0.0000  0.0000  0.0000  0.0000  0.0000 </r>
        <r>  0.0037  0.0209  0.0172  0.0070  0.0000  0.0000  0.0000  0.0000  0.0000 </r>
        <r>  0.0000  0.0022  0.0000  0.0066  0.0000  0.0000  0.0000  0.0000  0.0000 </r>
        <r>  0.0037  0.0037  0.0172  0.0241  0.0000  0.0000  0.0000  0.0000  0.0000 </r>
        <r>  0.0037  0.0209  0.0172  0.0070  0.0000  0.0000  0.0000  0.0000  0.0000 </r>
        <r>  0.0000  0.0022  0.0000  0.0066  0.0000  0.0000  0.0000  0.0000  0.0000 </r>
        <r>  0.0037  0.0037  0.0172  0.0241  0.0000  0.0000  0.0000  0.0000  0.0000 </r>
       </set>
       <set comment="band 34">
        <r>  0.0001  0.0000  0.0007  0.0000  0.0675  0.1034  0.0091  0.0611  0.0254 </r>
        <r>  0.0001  0.0000  0.0007  0.0000  0.0675  0.1034  0.0091  0.0611  0.0254 </r>
        <r>  0.0022  0.0008  0.0007  0.0003  0.0000  0.0000  0.0000  0.0000  0.0000 </r>
        <r>  0.0022  0.0008  0.0007  0.0003  0.0000  0.0000  0.0000  0.0000  0.0000 </r>
        <r>  0.0028  0.0114  0.0268  0.0035  0.0000  0.0000  0.0000  0.0000  0.0000 </r>
        <r>  0.0017  0.0144  0.0177  0.0048  0.0000  0.0000  0.0000  0.0000  0.0000 </r>
        <r>  0.0028  0.0109  0.0268  0.0040  0.0000  0.0000  0.0000  0.0000  0.0000 </r>
        <r>  0.0028  0.0114  0.0268  0.0035  0.0000  0.0000  0.0000  0.0000  0.0000 </r>
        <r>  0.0017  0.0144  0.0177  0.0048  0.0000  0.0000  0.0000  0.0000  0.0000 </r>
        <r>  0.0028  0.0109  0.0268  0.0040  0.0000  0.0000  0.0000  0.0000  0.0000 </r>
       </set>
       <set comment="band 35">
        <r>  0.0003  0.0002  0.0001  0.0002  0.0082  0.0677  0.0004  0.1254  0.0169 </r>
        <r>  0.0003  0.0002  0.0001  0.0002  0.0082  0.0677  0.0004  0.1254  0.0169 </r>
        <r>  0.0000  0.0002  0.0000  0.0005  0.0000  0.0000  0.0000  0.0000  0.0000 </r>
        <r>  0.0000  0.0002  0.0000  0.0005  0.0000  0.0000  0.0000  0.0000  0.0000 </r>
        <r>  0.0011  0.0561  0.0025  0.0009  0.0000  0.0000  0.0000  0.0000  0.0000 </r>
        <r>  0.0000  0.0133  0.0000  0.0399  0.0000  0.0000  0.0000  0.0000  0.0000 </r>
        <r>  0.0011  0.0085  0.0025  0.0485  0.0000  0.0000  0.0000  0.0000  0.0000 </r>
        <r>  0.0011  0.0561  0.0025  0.0009  0.0000  0.0000  0.0000  0.0000  0.0000 </r>
        <r>  0.0000  0.0133  0.0000  0.0399  0.0000  0.0000  0.0000  0.0000  0.0000 </r>
        <r>  0.0011  0.0085  0.0025  0.0485  0.0000  0.0000  0.0000  0.0000  0.0000 </r>
       </set>
       <set comment="band 36">
        <r>  0.0001  0.0033  0.0000  0.0024  0.0027  0.0011  0.0003  0.0026  0.0077 </r>
        <r>  0.0001  0.0033  0.0000  0.0024  0.0027  0.0011  0.0003  0.0026  0.0077 </r>
        <r>  0.0675  0.0013  0.0129  0.0004  0.0000  0.0000  0.0000  0.0000  0.0000 </r>
        <r>  0.0675  0.0013  0.0129  0.0004  0.0000  0.0000  0.0000  0.0000  0.0000 </r>
        <r>  0.0070  0.0039  0.0011  0.0387  0.0000  0.0000  0.0000  0.0000  0.0000 </r>
        <r>  0.0069  0.0460  0.0041  0.0154  0.0000  0.0000  0.0000  0.0000  0.0000 </r>
        <r>  0.0070  0.0193  0.0011  0.0232  0.0000  0.0000  0.0000  0.0000  0.0000 </r>
        <r>  0.0070  0.0039  0.0011  0.0387  0.0000  0.0000  0.0000  0.0000  0.0000 </r>
        <r>  0.0069  0.0460  0.0041  0.0154  0.0000  0.0000  0.0000  0.0000  0.0000 </r>
        <r>  0.0070  0.0193  0.0011  0.0232  0.0000  0.0000  0.0000  0.0000  0.0000 </r>
       </set>
       <set comment="band 37">
        <r>  0.0002  0.0006  0.0000  0.0011  0.0181  0.0206  0.0001  0.0114  0.0149 </r>
        <r>  0.0002  0.0006  0.0000  0.0011  0.0181  0.0206  0.0001  0.0114  0.0149 </r>
        <r>  0.0439  0.0015  0.0435  0.0005  0.0000  0.0000  0.0000  0.0000  0.0000 </r>
        <r>  0.0439  0.0015  0.0435  0.0005  0.0000  0.0000  0.0000  0.0000  0.0000 </r>
        <r>  0.0020  0.0011  0.0054  0.0380  0.0000  0.0000  0.0000  0.0000  0.0000 </r>
        <r>  0.0028  0.0252  0.0023  0.0084  0.0000  0.0000  0.0000  0.0000  0.0000 </r>
        <r>  0.0020  0.0233  0.0054  0.0158  0.0000  0.0000  0.0000  0.0000  0.0000 </r>
        <r>  0.0020  0.0011  0.0054  0.0380  0.0000  0.0000  0.0000  0.0000  0.0000 </r>
        <r>  0.0028  0.0252  0.0023  0.0084  0.0000  0.0000  0.0000  0.0000  0.0000 </r>
        <r>  0.0020  0.0233  0.0054  0.0158  0.0000  0.0000  0.0000  0.0000  0.0000 </r>
       </set>
       <set comment="band 38">
        <r>  0.0386  0.0006  0.0028  0.0018  0.0029  0.0000  0.0025  0.0000  0.0014 </r>
        <r>  0.0386  0.0006  0.0028  0.0018  0.0029  0.0000  0.0025  0.0000  0.0014 </r>
        <r>  0.0006  0.0398  0.0009  0.0133  0.0000  0.0000  0.0000  0.0000  0.0000 </r>
        <r>  0.0006  0.0398  0.0009  0.0133  0.0000  0.0000  0.0000  0.0000  0.0000 </r>
        <r>  0.0027  0.0017  0.0023  0.0073  0.0000  0.0000  0.0000  0.0000  0.0000 </r>
        <r>  0.0149  0.0303  0.0048  0.0101  0.0000  0.0000  0.0000  0.0000  0.0000 </r>
        <r>  0.0027  0.0029  0.0023  0.0061  0.0000  0.0000  0.0000  0.0000  0.0000 </r>
        <r>  0.0027  0.0017  0.0023  0.0073  0.0000  0.0000  0.0000  0.0000  0.0000 </r>
        <r>  0.0149  0.0303  0.0048  0.0101  0.0000  0.0000  0.0000  0.0000  0.0000 </r>
        <r>  0.0027  0.0029  0.0023  0.0061  0.0000  0.0000  0.0000  0.0000  0.0000 </r>
       </set>
       <set comment="band 39">
        <r>  0.0321  0.0023  0.0015  0.0016  0.0029  0.0027  0.0015  0.0009  0.0012 </r>
        <r>  0.0321  0.0023  0.0015  0.0016  0.0029  0.0027  0.0015  0.0009  0.0012 </r>
        <r>  0.0000  0.0123  0.0000  0.0367  0.0000  0.0000  0.0000  0.0000  0.0000 </r>
        <r>  0.0000  0.0123  0.0000  0.0367  0.0000  0.0000  0.0000  0.0000  0.0000 </r>
        <r>  0.0066  0.0111  0.0017  0.0356  0.0000  0.0000  0.0000  0.0000  0.0000 </r>
        <r>  0.0000  0.0021  0.0000  0.0063  0.0000  0.0000  0.0000  0.0000  0.0000 </r>
        <r>  0.0066  0.0468  0.0018  0.0000  0.0000  0.0000  0.0000  0.0000  0.0000 </r>
        <r>  0.0066  0.0111  0.0017  0.0356  0.0000  0.0000  0.0000  0.0000  0.0000 </r>
        <r>  0.0000  0.0021  0.0000  0.0063  0.0000  0.0000  0.0000  0.0000  0.0000 </r>
        <r>  0.0066  0.0468  0.0018  0.0000  0.0000  0.0000  0.0000  0.0000  0.0000 </r>
       </set>
       <set comment="band 40">
        <r>  0.0043  0.0042  0.0027  0.0020  0.0045  0.0063  0.0008  0.0043  0.0098 </r>
        <r>  0.0043  0.0042  0.0027  0.0020  0.0045  0.0063  0.0008  0.0043  0.0098 </r>
        <r>  0.0342  0.0055  0.0723  0.0018  0.0000  0.0000  0.0000  0.0000  0.0000 </r>
        <r>  0.0342  0.0055  0.0723  0.0018  0.0000  0.0000  0.0000  0.0000  0.0000 </r>
        <r>  0.0003  0.0007  0.0201  0.0079  0.0000  0.0000  0.0000  0.0000  0.0000 </r>
        <r>  0.0026  0.0007  0.0229  0.0002  0.0000  0.0000  0.0000  0.0000  0.0000 </r>
        <r>  0.0003  0.0040  0.0200  0.0045  0.0000  0.0000  0.0000  0.0000  0.0000 </r>
        <r>  0.0003  0.0007  0.0201  0.0079  0.0000  0.0000  0.0000  0.0000  0.0000 </r>
        <r>  0.0026  0.0007  0.0229  0.0002  0.0000  0.0000  0.0000  0.0000  0.0000 </r>
        <r>  0.0003  0.0040  0.0200  0.0045  0.0000  0.0000  0.0000  0.0000  0.0000 </r>
       </set>
       <set comment="band 41">
        <r>  0.0257  0.0002  0.0024  0.0001  0.0032  0.0024  0.0070  0.0071  0.0011 </r>
        <r>  0.0257  0.0002  0.0024  0.0001  0.0032  0.0024  0.0070  0.0071  0.0011 </r>
        <r>  0.0051  0.0371  0.0105  0.0124  0.0000  0.0000  0.0000  0.0000  0.0000 </r>
        <r>  0.0051  0.0371  0.0105  0.0124  0.0000  0.0000  0.0000  0.0000  0.0000 </r>
        <r>  0.0018  0.0047  0.0014  0.0002  0.0000  0.0000  0.0000  0.0000  0.0000 </r>
        <r>  0.0177  0.0215  0.0186  0.0072  0.0000  0.0000  0.0000  0.0000  0.0000 </r>
        <r>  0.0018  0.0008  0.0014  0.0041  0.0000  0.0000  0.0000  0.0000  0.0000 </r>
        <r>  0.0018  0.0047  0.0014  0.0002  0.0000  0.0000  0.0000  0.0000  0.0000 </r>
        <r>  0.0177  0.0215  0.0186  0.0072  0.0000  0.0000  0.0000  0.0000  0.0000 </r>
        <r>  0.0018  0.0008  0.0014  0.0041  0.0000  0.0000  0.0000  0.0000  0.0000 </r>
       </set>
       <set comment="band 42">
        <r>  0.0147  0.0010  0.0021  0.0003  0.0020  0.0044  0.0034  0.0052  0.0031 </r>
        <r>  0.0147  0.0010  0.0021  0.0003  0.0020  0.0044  0.0034  0.0052  0.0031 </r>
        <r>  0.0000  0.0143  0.0000  0.0427  0.0000  0.0000  0.0000  0.0000  0.0000 </r>
        <r>  0.0000  0.0143  0.0000  0.0427  0.0000  0.0000  0.0000  0.0000  0.0000 </r>
        <r>  0.0078  0.0087  0.0030  0.0192  0.0000  0.0000  0.0000  0.0000  0.0000 </r>
        <r>  0.0000  0.0060  0.0000  0.0182  0.0000  0.0000  0.0000  0.0000  0.0000 </r>
        <r>  0.0078  0.0273  0.0030  0.0006  0.0000  0.0000  0.0000  0.0000  0.0000 </r>
        <r>  0.0078  0.0087  0.0030  0.0192  0.0000  0.0000  0.0000  0.0000  0.0000 </r>
        <r>  0.0000  0.0060  0.0000  0.0182  0.0000  0.0000  0.0000  0.0000  0.0000 </r>
        <r>  0.0078  0.0273  0.0030  0.0006  0.0000  0.0000  0.0000  0.0000  0.0000 </r>
       </set>
       <set comment="band 43">
        <r>  0.0402  0.0014  0.0030  0.0006  0.0018  0.0010  0.0075  0.0004  0.0033 </r>
        <r>  0.0402  0.0014  0.0030  0.0006  0.0018  0.0010  0.0075  0.0004  0.0033 </r>
        <r>  0.0010  0.0139  0.0025  0.0047  0.0000  0.0000  0.0000  0.0000  0.0000 </r>
        <r>  0.0010  0.0139  0.0025  0.0047  0.0000  0.0000  0.0000  0.0000  0.0000 </r>
        <r>  0.0001  0.0088  0.0006  0.0032  0.0000  0.0000  0.0000  0.0000  0.0000 </r>
        <r>  0.0043  0.0029  0.0104  0.0010  0.0000  0.0000  0.0000  0.0000  0.0000 </r>
        <r>  0.0001  0.0001  0.0006  0.0118  0.0000  0.0000  0.0000  0.0000  0.0000 </r>
        <r>  0.0001  0.0088  0.0006  0.0032  0.0000  0.0000  0.0000  0.0000  0.0000 </r>
        <r>  0.0043  0.0029  0.0104  0.0010  0.0000  0.0000  0.0000  0.0000  0.0000 </r>
        <r>  0.0001  0.0001  0.0006  0.0118  0.0000  0.0000  0.0000  0.0000  0.0000 </r>
       </set>
       <set comment="band 44">
        <r>  0.0098  0.0022  0.0044  0.0063  0.0014  0.0003  0.0000  0.0002  0.0005 </r>
        <r>  0.0098  0.0022  0.0044  0.0063  0.0014  0.0003  0.0000  0.0002  0.0005 </r>
        <r>  0.0018  0.0032  0.0028  0.0011  0.0000  0.0000  0.0000  0.0000  0.0000 </r>
        <r>  0.0018  0.0032  0.0028  0.0011  0.0000  0.0000  0.0000  0.0000  0.0000 </r>
        <r>  0.0014  0.0017  0.0026  0.0013  0.0000  0.0000  0.0000  0.0000  0.0000 </r>
        <r>  0.0020  0.0060  0.0060  0.0020  0.0000  0.0000  0.0000  0.0000  0.0000 </r>
        <r>  0.0014  0.0026  0.0026  0.0004  0.0000  0.0000  0.0000  0.0000  0.0000 </r>
        <r>  0.0014  0.0017  0.0026  0.0013  0.0000  0.0000  0.0000  0.0000  0.0000 </r>
        <r>  0.0020  0.0060  0.0060  0.0020  0.0000  0.0000  0.0000  0.0000  0.0000 </r>
        <r>  0.0014  0.0026  0.0026  0.0004  0.0000  0.0000  0.0000  0.0000  0.0000 </r>
       </set>
       <set comment="band 45">
        <r>  0.0140  0.0015  0.0196  0.0023  0.0012  0.0001  0.0000  0.0002  0.0035 </r>
        <r>  0.0140  0.0015  0.0196  0.0023  0.0012  0.0001  0.0000  0.0002  0.0035 </r>
        <r>  0.0001  0.0082  0.0015  0.0027  0.0000  0.0000  0.0000  0.0000  0.0000 </r>
        <r>  0.0001  0.0082  0.0015  0.0027  0.0000  0.0000  0.0000  0.0000  0.0000 </r>
        <r>  0.0005  0.0019  0.0059  0.0003  0.0000  0.0000  0.0000  0.0000  0.0000 </r>
        <r>  0.0009  0.0019  0.0066  0.0006  0.0000  0.0000  0.0000  0.0000  0.0000 </r>
        <r>  0.0005  0.0001  0.0058  0.0021  0.0000  0.0000  0.0000  0.0000  0.0000 </r>
        <r>  0.0005  0.0019  0.0059  0.0003  0.0000  0.0000  0.0000  0.0000  0.0000 </r>
        <r>  0.0009  0.0019  0.0066  0.0006  0.0000  0.0000  0.0000  0.0000  0.0000 </r>
        <r>  0.0005  0.0001  0.0058  0.0021  0.0000  0.0000  0.0000  0.0000  0.0000 </r>
       </set>
       <set comment="band 46">
        <r>  0.0139  0.0031  0.0076  0.0012  0.0025  0.0004  0.0011  0.0002  0.0030 </r>
        <r>  0.0139  0.0031  0.0076  0.0012  0.0025  0.0004  0.0011  0.0002  0.0030 </r>
        <r>  0.0000  0.0014  0.0000  0.0042  0.0000  0.0000  0.0000  0.0000  0.0000 </r>
        <r>  0.0000  0.0014  0.0000  0.0042  0.0000  0.0000  0.0000  0.0000  0.0000 </r>
        <r>  0.0029  0.0020  0.0079  0.0010  0.0000  0.0000  0.0000  0.0000  0.0000 </r>
        <r>  0.0000  0.0021  0.0000  0.0064  0.0000  0.0000  0.0000  0.0000  0.0000 </r>
        <r>  0.0029  0.0021  0.0080  0.0009  0.0000  0.0000  0.0000  0.0000  0.0000 </r>
        <r>  0.0029  0.0020  0.0079  0.0010  0.0000  0.0000  0.0000  0.0000  0.0000 </r>
        <r>  0.0000  0.0021  0.0000  0.0064  0.0000  0.0000  0.0000  0.0000  0.0000 </r>
        <r>  0.0029  0.0021  0.0080  0.0009  0.0000  0.0000  0.0000  0.0000  0.0000 </r>
       </set>
       <set comment="band 47">
        <r>  0.0022  0.0001  0.0012  0.0002  0.0001  0.0000  0.0020  0.0000  0.0000 </r>
        <r>  0.0022  0.0001  0.0012  0.0002  0.0001  0.0000  0.0020  0.0000  0.0000 </r>
        <r>  0.0000  0.0010  0.0000  0.0030  0.0000  0.0000  0.0000  0.0000  0.0000 </r>
        <r>  0.0000  0.0010  0.0000  0.0030  0.0000  0.0000  0.0000  0.0000  0.0000 </r>
        <r>  0.0015  0.0009  0.0011  0.0037  0.0000  0.0000  0.0000  0.0000  0.0000 </r>
        <r>  0.0000  0.0003  0.0000  0.0010  0.0000  0.0000  0.0000  0.0000  0.0000 </r>
        <r>  0.0015  0.0042  0.0011  0.0004  0.0000  0.0000  0.0000  0.0000  0.0000 </r>
        <r>  0.0015  0.0009  0.0011  0.0037  0.0000  0.0000  0.0000  0.0000  0.0000 </r>
        <r>  0.0000  0.0003  0.0000  0.0010  0.0000  0.0000  0.0000  0.0000  0.0000 </r>
        <r>  0.0015  0.0042  0.0011  0.0004  0.0000  0.0000  0.0000  0.0000  0.0000 </r>
       </set>
       <set comment="band 48">
        <r>  0.0013  0.0006  0.0078  0.0009  0.0003  0.0000  0.0000  0.0000  0.0002 </r>
        <r>  0.0013  0.0006  0.0078  0.0009  0.0003  0.0000  0.0000  0.0000  0.0002 </r>
        <r>  0.0014  0.0015  0.0115  0.0006  0.0000  0.0000  0.0000  0.0000  0.0000 </r>
        <r>  0.0014  0.0015  0.0115  0.0006  0.0000  0.0000  0.0000  0.0000  0.0000 </r>
        <r>  0.0003  0.0005  0.0002  0.0013  0.0000  0.0000  0.0000  0.0000  0.0000 </r>
        <r>  0.0012  0.0004  0.0073  0.0001  0.0000  0.0000  0.0000  0.0000  0.0000 </r>
        <r>  0.0002  0.0007  0.0002  0.0014  0.0000  0.0000  0.0000  0.0000  0.0000 </r>
        <r>  0.0003  0.0005  0.0002  0.0013  0.0000  0.0000  0.0000  0.0000  0.0000 </r>
        <r>  0.0012  0.0004  0.0073  0.0001  0.0000  0.0000  0.0000  0.0000  0.0000 </r>
        <r>  0.0002  0.0007  0.0002  0.0014  0.0000  0.0000  0.0000  0.0000  0.0000 </r>
       </set>
      </set>
     </set>
    </set>
   </array>
  </projected>
 </calculation>
 <structure name="finalpos" >
  <crystal>
   <varray name="basis" >
    <v>       5.81891561       0.00000013       0.00000000 </v>
    <v>       2.90945740       5.03932860      -0.00000000 </v>
    <v>      -0.00000000       0.00000000      21.30417814 </v>
   </varray>
   <i name="volume">    624.71152157 </i>
   <varray name="rec_basis" >
    <v>       0.17185333      -0.09921955       0.00000000 </v>
    <v>      -0.00000000       0.19843914      -0.00000000 </v>
    <v>      -0.00000000       0.00000000       0.04693915 </v>
   </varray>
  </crystal>
  <varray name="positions" >
   <v>       0.33333300       0.33333300       0.49995000 </v>
   <v>       0.66666700       0.66666700       0.50005000 </v>
   <v>      -0.00000000      -0.00000000       0.44834521 </v>
   <v>      -0.00000000      -0.00000000       0.55165479 </v>
   <v>       0.65369954       0.00010332       0.57009669 </v>
   <v>       0.00010332       0.34619813       0.57009669 </v>
   <v>       0.34619814       0.65369954       0.57009669 </v>
   <v>       0.34630046       0.99989668       0.42990331 </v>
   <v>       0.99989668       0.65380187       0.42990331 </v>
   <v>       0.65380186       0.34630046       0.42990331 </v>
  </varray>
  <varray name="selective"  type="logical" >
   <v type="logical" >  T  T  T </v>
   <v type="logical" >  T  T  T </v>
   <v type="logical" >  T  T  T </v>
   <v type="logical" >  T  T  T </v>
   <v type="logical" >  T  T  T </v>
   <v type="logical" >  T  T  T </v>
   <v type="logical" >  T  T  T </v>
   <v type="logical" >  T  T  T </v>
   <v type="logical" >  T  T  T </v>
   <v type="logical" >  T  T  T </v>
  </varray>
  <nose>
   <v>      -3.00000000       0.00000000       0.00010000       0.00010000 </v>
  </nose>
 </structure>
</modeling>
