unknown system                          
           1
     6.907777   -0.000000    0.000000
     3.453888    5.982310    0.000000
     0.000000    0.000000   23.444588
   Ni   P    S 
   2   2   6
Direct configuration=     1
   0.33333300  0.33333300  0.49992500
   0.66666700  0.66666700  0.50007500
   0.00000000  0.00000000  0.44821600
   0.00000000  0.00000000  0.55178400
   0.62635700  0.00042000  0.57375200
   0.00042000  0.37322400  0.57375200
   0.37322400  0.62635700  0.57375200
   0.37364300  0.99958000  0.42624800
   0.99958000  0.62677600  0.42624800
   0.62677600  0.37364300  0.42624800
unknown system                          
           1
     6.133716    0.000000    0.000000
     3.066858    5.311954    0.000000
    -0.000000    0.000000   22.105220
   Ni   P    S 
   2   2   6
Direct configuration=     2
   0.33333300  0.33333300  0.49994221
   0.66666700  0.66666700  0.50005779
   0.00000000  0.00000000  0.44858965
   0.00000000 -0.00000000  0.55141035
   0.63496881  0.00040233  0.57025302
   0.00040233  0.36462987  0.57025302
   0.36462987  0.63496881  0.57025302
   0.36503119  0.99959767  0.42974698
   0.99959767  0.63537013  0.42974698
   0.63537013  0.36503119  0.42974698
unknown system                          
           1
     4.401712    0.000001    0.000000
     2.200856    3.811995    0.000000
    -0.000000    0.000000   19.108310
   Ni   P    S 
   2   2   6
Direct configuration=     3
   0.33333300  0.33333300  0.49998305
   0.66666700  0.66666700  0.50001695
   0.00000000  0.00000000  0.44947637
   0.00000000 -0.00000000  0.55052363
   0.65666996  0.00035780  0.56194947
   0.00035780  0.34297325  0.56194947
   0.34297324  0.65666996  0.56194947
   0.34333004  0.99964220  0.43805053
   0.99964220  0.65702675  0.43805053
   0.65702676  0.34333004  0.43805053
unknown system                          
           1
     6.036069    0.000000    0.000000
     3.018034    5.227389    0.000000
    -0.000000    0.000000   21.936260
   Ni   P    S 
   2   2   6
Direct configuration=     4
   0.33333300  0.33333300  0.49993847
   0.66666700  0.66666700  0.50006153
   0.00000000  0.00000000  0.44850841
   0.00000000 -0.00000000  0.55149159
   0.62813463  0.00041636  0.57101377
   0.00041636  0.37145001  0.57101377
   0.37145001  0.62813463  0.57101377
   0.37186537  0.99958364  0.42898623
   0.99958364  0.62854999  0.42898623
   0.62854999  0.37186537  0.42898623
unknown system                          
           1
     5.779513    0.000000    0.000000
     2.889756    5.005205   -0.000000
    -0.000000    0.000000   21.310330
   Ni   P    S 
   2   2   6
Direct configuration=     5
   0.33333300  0.33333300  0.49993997
   0.66666700  0.66666700  0.50006003
   0.00000000 -0.00000000  0.44665004
   0.00000000 -0.00000000  0.55334996
   0.63678898  0.00034575  0.56941748
   0.00034575  0.36286627  0.56941748
   0.36286627  0.63678899  0.56941748
   0.36321102  0.99965425  0.43058252
   0.99965425  0.63713373  0.43058252
   0.63713373  0.36321101  0.43058252
unknown system                          
           1
     5.732135    0.000000    0.000000
     2.866067    4.964174   -0.000000
    -0.000000    0.000000   21.194739
   Ni   P    S 
   2   2   6
Direct configuration=     6
   0.33333300  0.33333300  0.49994026
   0.66666700  0.66666700  0.50005974
   0.00000000 -0.00000000  0.44629678
   0.00000000 -0.00000000  0.55370322
   0.63845813  0.00033213  0.56911404
   0.00033213  0.36121074  0.56911404
   0.36121074  0.63845813  0.56911404
   0.36154187  0.99966787  0.43088596
   0.99966787  0.63878926  0.43088596
   0.63878926  0.36154187  0.43088596
unknown system                          
           1
     5.757448    0.000000    0.000000
     2.878724    4.986096   -0.000000
    -0.000000    0.000000   21.224787
   Ni   P    S 
   2   2   6
Direct configuration=     7
   0.33333300  0.33333300  0.49993425
   0.66666700  0.66666700  0.50006575
  -0.00000000 -0.00000000  0.44687552
  -0.00000000 -0.00000000  0.55312448
   0.64652201  0.00023616  0.56946243
   0.00023616  0.35324283  0.56946243
   0.35324283  0.64652202  0.56946243
   0.35347799  0.99976384  0.43053757
   0.99976384  0.64675717  0.43053757
   0.64675717  0.35347798  0.43053757
unknown system                          
           1
     5.779945    0.000000    0.000000
     2.889972    5.005579   -0.000000
    -0.000000    0.000000   21.251492
   Ni   P    S 
   2   2   6
Direct configuration=     8
   0.33333300  0.33333300  0.49992892
   0.66666700  0.66666700  0.50007108
  -0.00000000 -0.00000000  0.44738913
  -0.00000000 -0.00000000  0.55261087
   0.65365706  0.00015124  0.56977162
   0.00015124  0.34619270  0.56977162
   0.34619270  0.65365706  0.56977162
   0.34634294  0.99984876  0.43022838
   0.99984876  0.65380730  0.43022838
   0.65380730  0.34634294  0.43022838
unknown system                          
           1
     5.877235    0.000000    0.000000
     2.938617    5.089834   -0.000000
    -0.000000    0.000000   21.313982
   Ni   P    S 
   2   2   6
Direct configuration=     9
   0.33333300  0.33333300  0.49993971
   0.66666700  0.66666700  0.50006029
  -0.00000000 -0.00000000  0.44931148
  -0.00000000 -0.00000000  0.55068852
   0.65525800  0.00007915  0.57045728
   0.00007915  0.34466384  0.57045728
   0.34466384  0.65525801  0.57045728
   0.34474200  0.99992085  0.42954272
   0.99992085  0.65533616  0.42954272
   0.65533616  0.34474199  0.42954272
unknown system                          
           1
     5.822319    0.000000    0.000000
     2.911159    5.042276   -0.000000
    -0.000000    0.000000   21.278709
   Ni   P    S 
   2   2   6
Direct configuration=    10
   0.33333300  0.33333300  0.49993364
   0.66666700  0.66666700  0.50006636
  -0.00000000 -0.00000000  0.44822957
  -0.00000000 -0.00000000  0.55177043
   0.65436929  0.00011917  0.57007139
   0.00011917  0.34551253  0.57007139
   0.34551254  0.65436930  0.57007139
   0.34563071  0.99988083  0.42992861
   0.99988083  0.65448747  0.42992861
   0.65448746  0.34563070  0.42992861
unknown system                          
           1
     5.815212    0.000000    0.000000
     2.907605    5.036121   -0.000000
    -0.000000    0.000000   21.281202
   Ni   P    S 
   2   2   6
Direct configuration=    11
   0.33333300  0.33333300  0.49994621
   0.66666700  0.66666700  0.50005379
  -0.00000000 -0.00000000  0.44834880
  -0.00000000 -0.00000000  0.55165120
   0.65376529  0.00010683  0.57008873
   0.00010683  0.34612888  0.57008873
   0.34612888  0.65376529  0.57008873
   0.34623471  0.99989317  0.42991127
   0.99989317  0.65387112  0.42991127
   0.65387112  0.34623471  0.42991127
unknown system                          
           1
     5.814732    0.000000    0.000000
     2.907366    5.035706   -0.000000
    -0.000000    0.000000   21.281370
   Ni   P    S 
   2   2   6
Direct configuration=    12
   0.33333300  0.33333300  0.49994706
   0.66666700  0.66666700  0.50005294
  -0.00000000 -0.00000000  0.44835684
  -0.00000000 -0.00000000  0.55164316
   0.65372451  0.00010600  0.57008990
   0.00010600  0.34617049  0.57008990
   0.34617050  0.65372451  0.57008990
   0.34627549  0.99989400  0.42991010
   0.99989400  0.65382951  0.42991010
   0.65382950  0.34627549  0.42991010
unknown system                          
           1
     5.820573    0.000000    0.000000
     2.910286    5.040764   -0.000000
    -0.000000    0.000000   21.313213
   Ni   P    S 
   2   2   6
Direct configuration=    13
   0.33333300  0.33333300  0.49995117
   0.66666700  0.66666700  0.50004883
  -0.00000000 -0.00000000  0.44834061
  -0.00000000 -0.00000000  0.55165939
   0.65368967  0.00010227  0.57009938
   0.00010226  0.34620907  0.57009938
   0.34620907  0.65368967  0.57009938
   0.34631033  0.99989773  0.42990062
   0.99989774  0.65379093  0.42990062
   0.65379093  0.34631033  0.42990062
unknown system                          
           1
     5.818916    0.000000    0.000000
     2.909457    5.039329   -0.000000
    -0.000000    0.000000   21.304178
   Ni   P    S 
   2   2   6
Direct configuration=    14
   0.33333300  0.33333300  0.49995000
   0.66666700  0.66666700  0.50005000
  -0.00000000 -0.00000000  0.44834521
  -0.00000000 -0.00000000  0.55165479
   0.65369954  0.00010332  0.57009669
   0.00010332  0.34619813  0.57009669
   0.34619814  0.65369954  0.57009669
   0.34630046  0.99989668  0.42990331
   0.99989668  0.65380187  0.42990331
   0.65380186  0.34630046  0.42990331
