 vasp.5.4.4.18Apr17-6-g9f103f2a35 (build May  1 2020 15:48:39) complex           
 executed on             LinuxGNU date 2020.07.08  00:43:07
 running on   16 total cores
 distrk:  each k-point on   16 cores,    1 groups
 distr:  one band on NCORES_PER_BAND=   1 cores,   16 groups


--------------------------------------------------------------------------------------------------------


 INCAR:
 POTCAR:   PAW_PBE Fe 06Sep2000                   
 POTCAR:   PAW_PBE Ge 05Jan2001                   
 POTCAR:   PAW_PBE Si 05Jan2001                   
 POTCAR:    PAW_PBE S 17Jan2003                   

 ----------------------------------------------------------------------------- 
|                                                                             |
|           W    W    AA    RRRRR   N    N  II  N    N   GGGG   !!!           |
|           W    W   A  A   R    R  NN   N  II  NN   N  G    G  !!!           |
|           W    W  A    A  R    R  N N  N  II  N N  N  G       !!!           |
|           W WW W  AAAAAA  RRRRR   N  N N  II  N  N N  G  GGG   !            |
|           WW  WW  A    A  R   R   N   NN  II  N   NN  G    G                |
|           W    W  A    A  R    R  N    N  II  N    N   GGGG   !!!           |
|                                                                             |
|      For optimal performance we recommend to set                            |
|        NCORE= 4 - approx SQRT( number of cores)                             |
|      NCORE specifies how many cores store one orbital (NPAR=cpu/NCORE).     |
|      This setting can  greatly improve the performance of VASP for DFT.     |
|      The default,   NCORE=1            might be grossly inefficient         |
|      on modern multi-core architectures or massively parallel machines.     |
|      Do your own testing !!!!                                               |
|      Unfortunately you need to use the default for GW and RPA calculations. |
|      (for HF NCORE is supported but not extensively tested yet)             |
|                                                                             |
 ----------------------------------------------------------------------------- 


 ----------------------------------------------------------------------------- 
|                                                                             |
|  ADVICE TO THIS USER RUNNING 'VASP/VAMP'   (HEAR YOUR MASTER'S VOICE ...):  |
|                                                                             |
|      You have switched on vdW-DFT.                                          |
|      This routine was written and supplied by Jiri Klimes.                  |
|      We recommed that you carefully read and cite the following             |
|      publication                                                            |
|      J. Klimes, D.R. Bowler, A. Michelides                                  |
|        J. Phys.: Cond Matt. 22 022201 (2010)                                |
|      J. Klimes, D.R. Bowler, A. Michelides                                  |
|        Phys. Rev. B. 83, 195131 (2011)                                      |
|      and references therein.                                                |
|                                                                             |
 ----------------------------------------------------------------------------- 

 POTCAR:   PAW_PBE Fe 06Sep2000                   
   VRHFIN =Fe:  d7 s1                                                           
   LEXCH  = PE                                                                  
   EATOM  =   594.4687 eV,   43.6922 Ry                                         
                                                                                
   TITEL  = PAW_PBE Fe 06Sep2000                                                
   LULTRA =        F    use ultrasoft PP ?                                      
   IUNSCR =        1    unscreen: 0-lin 1-nonlin 2-no                           
   RPACOR =    2.000    partial core radius                                     
   POMASS =   55.847; ZVAL   =    8.000    mass and valenz                      
   RCORE  =    2.300    outmost cutoff radius                                   
   RWIGS  =    2.460; RWIGS  =    1.302    wigner-seitz radius (au A)           
   ENMAX  =  267.883; ENMIN  =  200.912 eV                                      
   RCLOC  =    1.701    cutoff for local pot                                    
   LCOR   =        T    correct aug charges                                     
   LPAW   =        T    paw PP                                                  
   EAUG   =  511.368                                                            
   DEXC   =    -.022                                                            
   RMAX   =    2.817    core radius for proj-oper                               
   RAUG   =    1.300    factor for augmentation sphere                          
   RDEP   =    2.442    radius for radial grids                                 
   QCUT   =   -4.437; QGAM   =    8.874    optimization parameters              
                                                                                
   Description                                                                  
     l     E      TYP  RCUT    TYP  RCUT                                        
     2   .000     23  2.300                                                     
     2   .000     23  2.300                                                     
     0   .000     23  2.300                                                     
     0   .000     23  2.300                                                     
     1  -.200     23  2.300                                                     
     1   .000     23  2.300                                                     
     3   .000      7   .000                                                     
  local pseudopotential read in
  partial core-charges read in
  atomic valenz-charges read in
  non local Contribution for L=           2  read in
    real space projection operators read in
  non local Contribution for L=           2  read in
    real space projection operators read in
  non local Contribution for L=           0  read in
    real space projection operators read in
  non local Contribution for L=           0  read in
    real space projection operators read in
  non local Contribution for L=           1  read in
    real space projection operators read in
  non local Contribution for L=           1  read in
    real space projection operators read in
    PAW grid and wavefunctions read in

   number of l-projection  operators is LMAX  =           6
   number of lm-projection operators is LMMAX =          18

 POTCAR:   PAW_PBE Ge 05Jan2001                   
   VRHFIN =Ge: s2p2                                                             
   LEXCH  = PE                                                                  
   EATOM  =   104.9960 eV,    7.7170 Ry                                         
                                                                                
   TITEL  = PAW_PBE Ge 05Jan2001                                                
   LULTRA =        F    use ultrasoft PP ?                                      
   IUNSCR =        1    unscreen: 0-lin 1-nonlin 2-no                           
   RPACOR =    2.170    partial core radius                                     
   POMASS =   72.610; ZVAL   =    4.000    mass and valenz                      
   RCORE  =    2.300    outmost cutoff radius                                   
   RWIGS  =    2.300; RWIGS  =    1.217    wigner-seitz radius (au A)           
   ENMAX  =  173.807; ENMIN  =  130.355 eV                                      
   ICORE  =        3    local potential                                         
   LCOR   =        T    correct aug charges                                     
   LPAW   =        T    paw PP                                                  
   EAUG   =  385.843                                                            
   DEXC   =    -.138                                                            
   RMAX   =    3.497    core radius for proj-oper                               
   RAUG   =    1.300    factor for augmentation sphere                          
   RDEP   =    2.318    radius for radial grids                                 
   QCUT   =   -3.574; QGAM   =    7.148    optimization parameters              
                                                                                
   Description                                                                  
     l     E      TYP  RCUT    TYP  RCUT                                        
     0   .000     23  2.300                                                     
     0   .000     23  2.300                                                     
     1   .000     23  2.300                                                     
     1   .000     23  2.300                                                     
     2   .000     23  2.300                                                     
     3  -.100      7  2.300                                                     
  local pseudopotential read in
  partial core-charges read in
  atomic valenz-charges read in
  non local Contribution for L=           0  read in
    real space projection operators read in
  non local Contribution for L=           0  read in
    real space projection operators read in
  non local Contribution for L=           1  read in
    real space projection operators read in
  non local Contribution for L=           1  read in
    real space projection operators read in
  non local Contribution for L=           2  read in
    real space projection operators read in
    PAW grid and wavefunctions read in

   number of l-projection  operators is LMAX  =           5
   number of lm-projection operators is LMMAX =          13

 POTCAR:   PAW_PBE Si 05Jan2001                   
   VRHFIN =Si: s2p2                                                             
   LEXCH  = PE                                                                  
   EATOM  =   103.0669 eV,    7.5752 Ry                                         
                                                                                
   TITEL  = PAW_PBE Si 05Jan2001                                                
   LULTRA =        F    use ultrasoft PP ?                                      
   IUNSCR =        1    unscreen: 0-lin 1-nonlin 2-no                           
   RPACOR =    1.500    partial core radius                                     
   POMASS =   28.085; ZVAL   =    4.000    mass and valenz                      
   RCORE  =    1.900    outmost cutoff radius                                   
   RWIGS  =    2.480; RWIGS  =    1.312    wigner-seitz radius (au A)           
   ENMAX  =  245.345; ENMIN  =  184.009 eV                                      
   ICORE  =        2    local potential                                         
   LCOR   =        T    correct aug charges                                     
   LPAW   =        T    paw PP                                                  
   EAUG   =  322.069                                                            
   DEXC   =    -.007                                                            
   RMAX   =    2.944    core radius for proj-oper                               
   RAUG   =    1.300    factor for augmentation sphere                          
   RDEP   =    1.993    radius for radial grids                                 
   QCUT   =   -4.246; QGAM   =    8.493    optimization parameters              
                                                                                
   Description                                                                  
     l     E      TYP  RCUT    TYP  RCUT                                        
     0   .000     23  1.900                                                     
     0   .000     23  1.900                                                     
     1   .000     23  1.900                                                     
     1   .000     23  1.900                                                     
     2   .000      7  1.900                                                     
  local pseudopotential read in
  partial core-charges read in
  atomic valenz-charges read in
  non local Contribution for L=           0  read in
    real space projection operators read in
  non local Contribution for L=           0  read in
    real space projection operators read in
  non local Contribution for L=           1  read in
    real space projection operators read in
  non local Contribution for L=           1  read in
    real space projection operators read in
    PAW grid and wavefunctions read in

   number of l-projection  operators is LMAX  =           4
   number of lm-projection operators is LMMAX =           8

 POTCAR:    PAW_PBE S 17Jan2003                   
   VRHFIN =S : s2p4                                                             
   LEXCH  = PE                                                                  
   EATOM  =   276.8230 eV,   20.3459 Ry                                         
                                                                                
   TITEL  = PAW_PBE S 17Jan2003                                                 
   LULTRA =        F    use ultrasoft PP ?                                      
   IUNSCR =        1    unscreen: 0-lin 1-nonlin 2-no                           
   RPACOR =    1.500    partial core radius                                     
   POMASS =   32.066; ZVAL   =    6.000    mass and valenz                      
   RCORE  =    1.900    outmost cutoff radius                                   
   RWIGS  =    2.200; RWIGS  =    1.164    wigner-seitz radius (au A)           
   ENMAX  =  280.000; ENMIN  =  194.016 eV                                      
   ICORE  =        2    local potential                                         
   LCOR   =        T    correct aug charges                                     
   LPAW   =        T    paw PP                                                  
   EAUG   =  335.092                                                            
   DEXC   =     .000                                                            
   RMAX   =    2.867    core radius for proj-oper                               
   RAUG   =    1.300    factor for augmentation sphere                          
   RDEP   =    1.954    radius for radial grids                                 
   QCUT   =   -4.360; QGAM   =    8.721    optimization parameters              
                                                                                
   Description                                                                  
     l     E      TYP  RCUT    TYP  RCUT                                        
     0   .000     23  1.900                                                     
     0   .000     23  1.900                                                     
     1   .000     23  1.900                                                     
     1   .000     23  1.900                                                     
     2   .000     23  1.900                                                     
  local pseudopotential read in
  partial core-charges read in
  atomic valenz-charges read in
  non local Contribution for L=           0  read in
    real space projection operators read in
  non local Contribution for L=           0  read in
    real space projection operators read in
  non local Contribution for L=           1  read in
    real space projection operators read in
  non local Contribution for L=           1  read in
    real space projection operators read in
    PAW grid and wavefunctions read in

   number of l-projection  operators is LMAX  =           4
   number of lm-projection operators is LMMAX =           8

 Optimization of the real space projectors (new method)

 maximal supplied QI-value         = 16.25
 optimisation between [QCUT,QGAM] = [ 11.54, 23.24] = [ 37.28,151.24] Ry 
 Optimized for a Real-space Cutoff    1.53 Angstroem

   l    n(q)    QCUT    max X(q) W(low)/X(q) W(high)/X(q)  e(spline) 
   2     10    11.539     4.378    0.86E-05    0.15E-04    0.46E-07
   2     10    11.539    23.237    0.11E-03    0.14E-03    0.22E-06
   0     11    11.539    17.641    0.19E-04    0.14E-05    0.18E-07
   0     11    11.539    50.908    0.43E-04    0.16E-04    0.30E-06
   1     10    11.539     6.148    0.11E-04    0.38E-05    0.26E-07
   1     10    11.539     8.345    0.44E-04    0.25E-04    0.11E-06
 Optimization of the real space projectors (new method)

 maximal supplied QI-value         = 16.25
 optimisation between [QCUT,QGAM] = [ 11.54, 23.24] = [ 37.28,151.24] Ry 
 Optimized for a Real-space Cutoff    1.28 Angstroem

   l    n(q)    QCUT    max X(q) W(low)/X(q) W(high)/X(q)  e(spline) 
   0      9    11.539     8.651    0.22E-04    0.16E-04    0.10E-07
   0      9    11.539    33.192    0.11E-03    0.16E-03    0.65E-07
   1      8    11.539     5.899    0.37E-04    0.28E-04    0.43E-07
   1      8    11.539    27.289    0.22E-03    0.28E-04    0.14E-06
   2      8    11.539     4.673    0.11E-03    0.18E-03    0.58E-07
 Optimization of the real space projectors (new method)

 maximal supplied QI-value         = 19.84
 optimisation between [QCUT,QGAM] = [ 11.51, 23.22] = [ 37.09,150.92] Ry 
 Optimized for a Real-space Cutoff    1.21 Angstroem

   l    n(q)    QCUT    max X(q) W(low)/X(q) W(high)/X(q)  e(spline) 
   0      8    11.508     8.708    0.18E-04    0.44E-05    0.47E-08
   0      8    11.508   106.241    0.70E-04    0.15E-03    0.51E-07
   1      8    11.508     5.901    0.63E-05    0.23E-04    0.21E-07
   1      8    11.508    73.241    0.15E-03    0.36E-04    0.79E-07
 Optimization of the real space projectors (new method)

 maximal supplied QI-value         = 19.84
 optimisation between [QCUT,QGAM] = [ 11.51, 23.22] = [ 37.09,150.92] Ry 
 Optimized for a Real-space Cutoff    1.21 Angstroem

   l    n(q)    QCUT    max X(q) W(low)/X(q) W(high)/X(q)  e(spline) 
   0      8    11.508     5.487    0.18E-04    0.22E-05    0.47E-08
   0      8    11.508    85.627    0.96E-04    0.18E-03    0.54E-07
   1      8    11.508     3.530    0.17E-04    0.28E-04    0.21E-07
   1      8    11.508    42.714    0.18E-03    0.63E-04    0.92E-07

 ----------------------------------------------------------------------------- 
|                                                                             |
|  ADVICE TO THIS USER RUNNING 'VASP/VAMP'   (HEAR YOUR MASTER'S VOICE ...):  |
|                                                                             |
|      You enforced a specific xc-type in the INCAR file,                     |
|      a different type was found on the POTCAR file                          |
|          I HOPE YOU KNOW, WHAT YOU ARE  DOING                               |
|                                                                             |
 ----------------------------------------------------------------------------- 

 PAW_PBE Fe 06Sep2000                   :
 energy of atom  1       EATOM= -594.4687
 kinetic energy error for atom=    0.0026 (will be added to EATOM!!)
 PAW_PBE Ge 05Jan2001                   :
 energy of atom  2       EATOM= -104.9960
 kinetic energy error for atom=    0.0002 (will be added to EATOM!!)
 PAW_PBE Si 05Jan2001                   :
 energy of atom  3       EATOM= -103.0669
 kinetic energy error for atom=    0.0005 (will be added to EATOM!!)
  PAW_PBE S 17Jan2003                   :
 energy of atom  4       EATOM= -276.8230
 kinetic energy error for atom=    0.0016 (will be added to EATOM!!)


 POSCAR: Fe2 Ge Si S6                            
  positions in direct lattice
  velocities in cartesian coordinates
  No initial velocities read in
 exchange correlation table for  LEXCH =       42
   RHO(1)=    0.500       N(1)  =     2000
   RHO(2)=  100.500       N(2)  =     4000



--------------------------------------------------------------------------------------------------------


 ion  position               nearest neighbor table
   1  0.333  0.333  0.500-   6 2.78   5 2.78   7 2.78   8 2.78  10 2.78   9 2.78
   2  0.667  0.667  0.500-   9 2.78   8 2.78  10 2.78   5 2.78   7 2.78   6 2.78
   3  0.000  0.000  0.448-   4 2.43   8 2.63  10 2.63   9 2.63
   4  0.000  0.000  0.552-   3 2.43   5 2.63   7 2.63   6 2.63
   5  0.626  0.000  0.574-   4 2.63   1 2.78   2 2.78
   6  0.000  0.373  0.574-   4 2.63   1 2.78   2 2.78
   7  0.373  0.626  0.574-   4 2.63   1 2.78   2 2.78
   8  0.374  1.000  0.426-   3 2.63   2 2.78   1 2.78
   9  1.000  0.627  0.426-   3 2.63   2 2.78   1 2.78
  10  0.627  0.374  0.426-   3 2.63   2 2.78   1 2.78

  LATTYP: Found a hexagonal cell.
 ALAT       =     6.9077769333
 C/A-ratio  =     3.3939410937
  
  Lattice vectors:
  
 A1 = (   3.4538890000,  -5.9823100000,   0.0000000000)
 A2 = (  -6.9077770000,   0.0000000000,   0.0000000000)
 A3 = (   0.0000000000,   0.0000000000, -23.4445880000)


Analysis of symmetry for initial positions (statically):
=====================================================================
 Subroutine PRICEL returns:
 Original cell was already a primitive cell.
 

 Routine SETGRP: Setting up the symmetry group for a 
 hexagonal supercell.


 Subroutine GETGRP returns: Found  3 space group operations
 (whereof  3 operations were pure point group operations)
 out of a pool of 24 trial point group operations.


The static configuration has the point symmetry C_3 .


Analysis of symmetry for dynamics (positions and initial velocities):
=====================================================================
 Subroutine PRICEL returns:
 Original cell was already a primitive cell.
 

 Routine SETGRP: Setting up the symmetry group for a 
 hexagonal supercell.


 Subroutine GETGRP returns: Found  3 space group operations
 (whereof  3 operations were pure point group operations)
 out of a pool of 24 trial point group operations.


The dynamic configuration has the point symmetry C_3 .


Analysis of constrained symmetry for selective dynamics:
=====================================================================
 Subroutine PRICEL returns:
 Original cell was already a primitive cell.
 

 Routine SETGRP: Setting up the symmetry group for a 
 hexagonal supercell.


 Subroutine GETGRP returns: Found  3 space group operations
 (whereof  3 operations were pure point group operations)
 out of a pool of 24 trial point group operations.


The constrained configuration has the point symmetry C_3 .


Analysis of structural, dynamic, and magnetic symmetry:
=====================================================================
 Subroutine PRICEL returns:
 Original cell was already a primitive cell.
 

 Routine SETGRP: Setting up the symmetry group for a 
 hexagonal supercell.


 Subroutine GETGRP returns: Found  3 space group operations
 (whereof  3 operations were pure point group operations)
 out of a pool of 24 trial point group operations.


The magnetic configuration has the point symmetry C_3 .


 Subroutine INISYM returns: Found  3 space group operations
 (whereof  3 operations are pure point group operations),
 and found     1 'primitive' translations



 KPOINTS: Kpoints from vasprun.xml                

Automatic generation of k-mesh.
Space group operators:
 irot       det(A)        alpha          n_x          n_y          n_z        tau_x        tau_y        tau_z
    1     1.000000     0.000000     1.000000     0.000000     0.000000     0.000000     0.000000     0.000000
    2     1.000000   120.000000     0.000000     0.000000     1.000000     0.000000     0.000000     0.000000
    3     1.000000   120.000000     0.000000     0.000000    -1.000000     0.000000     0.000000     0.000000
 
 Subroutine IBZKPT returns following result:
 ===========================================
 
 Found      5 irreducible k-points:
 
 Following reciprocal coordinates:
            Coordinates               Weight
  0.000000  0.000000  0.000000      1.000000
  0.200000  0.000000  0.000000      6.000000
  0.400000  0.000000  0.000000      6.000000
  0.400000  0.200000  0.000000      6.000000
 -0.400000  0.200000  0.000000      6.000000
 
 Following cartesian coordinates:
            Coordinates               Weight
  0.000000  0.000000  0.000000      1.000000
  0.028953 -0.016716  0.000000      6.000000
  0.057906 -0.033432  0.000000      6.000000
  0.057906  0.000000  0.000000      6.000000
 -0.057906  0.066864  0.000000      6.000000
 
 TETIRR: Found     15 inequivalent tetrahedra from      150


--------------------------------------------------------------------------------------------------------




 Dimension of arrays:
   k-points           NKPTS =      5   k-points in BZ     NKDIM =      5   number of bands    NBANDS=     48
   number of dos      NEDOS =    301   number of ions     NIONS =     10
   non local maximal  LDIM  =      6   non local SUM 2l+1 LMDIM =     18
   total plane-waves  NPLWV = 524880
   max r-space proj   IRMAX =   8238   max aug-charges    IRDMAX=  29641
   dimension x,y,z NGX =    54 NGY =   54 NGZ =  180
   dimension x,y,z NGXF=   108 NGYF=  108 NGZF=  360
   support grid    NGXF=   108 NGYF=  108 NGZF=  360
   ions per type =               2   1   1   6
   NGX,Y,Z   is equivalent  to a cutoff of  13.00, 13.00, 12.76 a.u.
   NGXF,Y,Z  is equivalent  to a cutoff of  25.99, 25.99, 25.53 a.u.

 SYSTEM =  unknown system                          
 POSCAR =  Fe2 Ge Si S6                            

 Startparameter for this run:
   NWRITE =      2    write-flag & timer
   PREC   = accura    normal or accurate (medium, high low for compatibility)
   ISTART =      0    job   : 0-new  1-cont  2-samecut
   ICHARG =      2    charge: 1-file 2-atom 10-const
   ISPIN  =      2    spin polarized calculation?
   LNONCOLLINEAR =      F non collinear calculations
   LSORBIT =      F    spin-orbit coupling
   INIWAV =      1    electr: 0-lowe 1-rand  2-diag
   LASPH  =      F    aspherical Exc in radial PAW
   METAGGA=      F    non-selfconsistent MetaGGA calc.

 Electronic Relaxation 1
   ENCUT  =  520.0 eV  38.22 Ry    6.18 a.u.  12.84 12.84 43.59*2*pi/ulx,y,z
   ENINI  =  520.0     initial cutoff
   ENAUG  =  511.4 eV  augmentation charge cutoff
   NELM   =    400;   NELMIN=  2; NELMDL=  0     # of ELM steps 
   EDIFF  = 0.1E-03   stopping-criterion for ELM
   LREAL  =      T    real-space projection
   NLSPLINE    = F    spline interpolate recip. space projectors
   LCOMPAT=      F    compatible to vasp.4.4
   GGA_COMPAT  = T    GGA compatible to vasp.4.4-vasp.4.6
   LMAXPAW     = -100 max onsite density
   LMAXMIX     =    2 max onsite mixed and CHGCAR
   VOSKOWN=      0    Vosko Wilk Nusair interpolation
   ROPT   =   -0.00025  -0.00025  -0.00025  -0.00025
 Ionic relaxation
   EDIFFG = 0.1E-02   stopping-criterion for IOM
   NSW    =     99    number of steps for IOM
   NBLOCK =      1;   KBLOCK =     99    inner block; outer block 
   IBRION =      2    ionic relax: 0-MD 1-quasi-New 2-CG
   NFREE  =      1    steps in history (QN), initial steepest desc. (CG)
   ISIF   =      3    stress and relaxation
   IWAVPR =     11    prediction:  0-non 1-charg 2-wave 3-comb
   ISYM   =      2    0-nonsym 1-usesym 2-fastsym
   LCORR  =      T    Harris-Foulkes like correction to forces

   POTIM  = 0.5000    time-step for ionic-motion
   TEIN   =    0.0    initial temperature
   TEBEG  =    0.0;   TEEND  =   0.0 temperature during run
   SMASS  =  -3.00    Nose mass-parameter (am)
   estimated Nose-frequenzy (Omega)   =  0.10E-29 period in steps =****** mass=  -0.109E-26a.u.
   SCALEE = 1.0000    scale energy and forces
   NPACO  =    256;   APACO  = 16.0  distance and # of slots for P.C.
   PSTRESS=    0.0 pullay stress

  Mass of Ions in am
   POMASS =  55.85 72.61 28.09 32.07
  Ionic Valenz
   ZVAL   =   8.00  4.00  4.00  6.00
  Atomic Wigner-Seitz radii
   RWIGS  =  -1.00 -1.00 -1.00 -1.00
  virtual crystal weights 
   VCA    =   1.00  1.00  1.00  1.00
   NELECT =      60.0000    total number of electrons
   NUPDOWN=      -1.0000    fix difference up-down

 DOS related values:
   EMIN   =  10.00;   EMAX   =-10.00  energy-range for DOS
   EFERMI =   0.00
   ISMEAR =    -5;   SIGMA  =   0.05  broadening in eV -4-tet -1-fermi 0-gaus

 Electronic relaxation 2 (details)
   IALGO  =     38    algorithm
   LDIAG  =      T    sub-space diagonalisation (order eigenvalues)
   LSUBROT=      F    optimize rotation matrix (better conditioning)
   TURBO    =      0    0=normal 1=particle mesh
   IRESTART =      0    0=no restart 2=restart with 2 vectors
   NREBOOT  =      0    no. of reboots
   NMIN     =      0    reboot dimension
   EREF     =   0.00    reference energy to select bands
   IMIX   =      4    mixing-type and parameters
     AMIX     =   0.40;   BMIX     =  1.00
     AMIX_MAG =   1.60;   BMIX_MAG =  1.00
     AMIN     =   0.01
     WC   =   100.;   INIMIX=   1;  MIXPRE=   1;  MAXMIX= -45

 Intra band minimization:
   WEIMIN = 0.0010     energy-eigenvalue tresh-hold
   EBREAK =  0.52E-06  absolut break condition
   DEPER  =   0.30     relativ break condition  

   TIME   =   0.40     timestep for ELM

  volume/ion in A,a.u.               =      96.88       653.80
  Fermi-wavevector in a.u.,A,eV,Ry     =   0.647702  1.223979  5.707889  0.419518
  Thomas-Fermi vector in A             =   1.716096

 Write flags
   LWAVE        =      F    write WAVECAR
   LDOWNSAMPLE  =      F    k-point downsampling of WAVECAR
   LCHARG       =      T    write CHGCAR
   LVTOT        =      F    write LOCPOT, total local potential
   LVHAR        =      F    write LOCPOT, Hartree potential only
   LELF         =      F    write electronic localiz. function (ELF)
   LORBIT       =     11    0 simple, 1 ext, 2 COOP (PROOUT), +10 PAW based schemes


 Dipole corrections
   LMONO  =      F    monopole corrections only (constant potential shift)
   LDIPOL =      F    correct potential (dipole corrections)
   IDIPOL =      0    1-x, 2-y, 3-z, 4-all directions 
   EPSILON=  1.0000000 bulk dielectric constant

 Exchange correlation treatment:
   GGA     =    BO    GGA type
   LEXCH   =    42    internal setting for exchange type
   VOSKOWN=      0    Vosko Wilk Nusair interpolation
   LHFCALC =     F    Hartree Fock is set to
   LHFONE  =     F    Hartree Fock one center treatment
   AEXX    =    0.0000 exact exchange contribution

 vdW DFT:
   LUSE_VDW   =     T    switch on vdW DFT
   Zab_VDW    =-.8491    correlation parameter
   PARAM1     =0.1833
   PARAM2     =0.2200
   PARAM3     =0.0000
   -- rVV10 --
   BPARAM     = 6.3000
   CPARAM     = 0.0093

 Linear response parameters
   LEPSILON=     F    determine dielectric tensor
   LRPA    =     F    only Hartree local field effects (RPA)
   LNABLA  =     F    use nabla operator in PAW spheres
   LVEL    =     F    velocity operator in full k-point grid
   LINTERFAST=   F  fast interpolation
   KINTER  =     0    interpolate to denser k-point grid
   CSHIFT  =0.1000    complex shift for real part using Kramers Kronig
   OMEGAMAX=  -1.0    maximum frequency
   DEG_THRESHOLD= 0.2000000E-02 threshold for treating states as degnerate
   RTIME   =   -0.100 relaxation time in fs
  (WPLASMAI=    0.000 imaginary part of plasma frequency in eV, 0.658/RTIME)
   DFIELD  = 0.0000000 0.0000000 0.0000000 field for delta impulse in time

 Orbital magnetization related:
   ORBITALMAG=     F  switch on orbital magnetization
   LCHIMAG   =     F  perturbation theory with respect to B field
   DQ        =  0.001000  dq finite difference perturbation B field
   LLRAUG    =     F  two centre corrections for induced B field



--------------------------------------------------------------------------------------------------------


 conjugate gradient relaxation of ions
   using selective dynamics as specified on POSCAR
 charge density and potential will be updated during run
 spin polarized calculation
 Variant of blocked Davidson
 Davidson routine will perform the subspace rotation
 perform sub-space diagonalisation
    after iterative eigenvector-optimisation
 modified Broyden-mixing scheme, WC =      100.0
 initial mixing is a Kerker type mixing with AMIX =  0.4000 and BMIX =      1.0000
 Hartree-type preconditioning will be used
 using additional bands           18
 real space projection scheme for non local part
 use partial core corrections
 calculate Harris-corrections to forces   (improved forces if not selfconsistent)
 use gradient corrections 
 use of overlap-Matrix (Vanderbilt PP)
 Fermi weights with tetrahedron method with Bloechl corrections


--------------------------------------------------------------------------------------------------------


  energy-cutoff  :      520.00
  volume of cell :      968.84
      direct lattice vectors                 reciprocal lattice vectors
     6.907777000 -0.000000000  0.000000000     0.144764372 -0.083579742  0.000000000
     3.453888000  5.982310000  0.000000000     0.000000000  0.167159509 -0.000000000
     0.000000000  0.000000000 23.444588000    -0.000000000  0.000000000  0.042653767

  length of vectors
     6.907777000  6.907776433 23.444588000     0.167159495  0.167159509  0.042653767



 k-points in units of 2pi/SCALE and weight: Kpoints from vasprun.xml                
   0.00000000  0.00000000  0.00000000       0.040
   0.02895287 -0.01671595  0.00000000       0.240
   0.05790575 -0.03343190  0.00000000       0.240
   0.05790575  0.00000000  0.00000000       0.240
  -0.05790575  0.06686380  0.00000000       0.240

 k-points in reciprocal lattice and weights: Kpoints from vasprun.xml                
   0.00000000  0.00000000  0.00000000       0.040
   0.20000000  0.00000000  0.00000000       0.240
   0.40000000  0.00000000  0.00000000       0.240
   0.40000000  0.20000000  0.00000000       0.240
  -0.40000000  0.20000000  0.00000000       0.240

 position of ions in fractional coordinates (direct lattice) 
   0.33333300  0.33333300  0.49992500
   0.66666700  0.66666700  0.50007500
   0.00000000  0.00000000  0.44821600
   0.00000000  0.00000000  0.55178400
   0.62635700  0.00042000  0.57375200
   0.00042000  0.37322400  0.57375200
   0.37322400  0.62635700  0.57375200
   0.37364300  0.99958000  0.42624800
   0.99958000  0.62677600  0.42624800
   0.62677600  0.37364300  0.42624800

 position of ions in cartesian coordinates  (Angst):
   3.45388488  1.99410134 11.72053566
   6.90778012  3.98820866 11.72405234
   0.00000000  0.00000000 10.50823946
   0.00000000  0.00000000 12.93634854
   4.32818511  0.00251257 13.45137925
   1.29197516  2.23274167 13.45137925
   4.74151509  3.74706174 13.45137925
   6.03347989  5.97979743  9.99320875
   9.06968984  3.74956833  9.99320875
   5.62014991  2.23524826  9.99320875



--------------------------------------------------------------------------------------------------------


 k-point  1 :   0.0000 0.0000 0.0000  plane waves:   26073
 k-point  2 :   0.2000 0.0000 0.0000  plane waves:   26070
 k-point  3 :   0.4000 0.0000 0.0000  plane waves:   26086
 k-point  4 :   0.4000 0.2000 0.0000  plane waves:   26085
 k-point  5 :  -0.4000 0.2000 0.0000  plane waves:   26115

 maximum and minimum number of plane-waves per node :     26115    26070

 maximum number of plane-waves:     26115
 maximum index in each direction: 
   IXMAX=   13   IYMAX=   12   IZMAX=   43
   IXMIN=  -13   IYMIN=  -13   IZMIN=  -43


 serial   3D FFT for wavefunctions
 parallel 3D FFT for charge:
    minimum data exchange during FFTs selected (reduces bandwidth)


 total amount of memory used by VASP MPI-rank0   128855. kBytes
=======================================================================

   base      :      30000. kBytes
   nonlr-proj:       6370. kBytes
   fftplans  :      11247. kBytes
   grid      :      68332. kBytes
   one-center:        311. kBytes
   wavefun   :      12595. kBytes

     INWAV:  cpu time    0.0000: real time    0.0004
 Broyden mixing: mesh for mixing (old mesh)
   NGX = 25   NGY = 25   NGZ = 87
  (NGX  =108   NGY  =108   NGZ  =360)
  gives a total of  54375 points

 initial charge density was supplied:
 charge density of overlapping atoms calculated
 number of electron      60.0000000 magnetization       7.2600000
 keeping initial charge density in first step


--------------------------------------------------------------------------------------------------------


 Maximum index for non-local projection operator         7925
 Maximum index for augmentation-charges         2133 (set IRDMAX)


--------------------------------------------------------------------------------------------------------


 First call to EWALD:  gamma=   0.179
 Maximum number of real-space cells 4x 4x 1
 Maximum number of reciprocal cells 2x 2x 6

    FEWALD:  cpu time    0.0040: real time    0.0015


--------------------------------------- Iteration      1(   1)  ---------------------------------------


vdW kernel read from vdw_kernel.bindat
  0.0000  0.2424  0.5071  0.7962  1.1119  1.4567  1.8333  2.2446  2.6937  3.1842
  3.7199  4.3049  4.9438  5.6415  6.4036  7.2358  8.1446  9.1372 10.2212 11.4050
 12.6979 14.1099 15.6519 17.3360 19.1751 21.1837 23.3773 25.7729 28.3892 31.2465
 34.3669 37.7748 41.4965 45.5611 50.0000

    POTLOK:  cpu time   53.1880: real time   53.3107
    SETDIJ:  cpu time    0.0400: real time    0.0406
     EDDAV:  cpu time   22.5880: real time   22.7617
 BZINTS: Fermi energy:  5.107614; 60.000000 electrons
         Band energy: -28.709188;  BLOECHL correction: -0.030228
       DOS:  cpu time    0.0080: real time    0.0048
    --------------------------------------------
      LOOP:  cpu time   75.8240: real time   76.1179

 eigenvalue-minimisations  :   960
 total energy-change (2. order) : 0.4080805E+03  (-0.1770409E+04)
 number of electron      60.0000000 magnetization       7.2600000
 augmentation part       60.0000000 magnetization       7.2600000

 Free energy of the ion-electron system (eV)
  ---------------------------------------------------
  alpha Z        PSCENC =        23.52513629
  Ewald energy   TEWEN  =      7005.02028753
  -Hartree energ DENC   =     -9759.71101123
  -exchange      EXHF   =         0.00000000
  -V(xc)+E(xc)   XCENC  =        56.06435833
  PAW double counting   =      1624.69297807    -1583.07957885
  entropy T*S    EENTRO =         0.00000000
  eigenvalues    EBANDS =       -28.70918761
  atomic energy  EATOM  =      3070.27752154
  Solvation  Ediel_sol  =         0.00000000
  ---------------------------------------------------
  free energy    TOTEN  =       408.08050408 eV

  energy without entropy =      408.08050408  energy(sigma->0) =      408.08050408


--------------------------------------------------------------------------------------------------------




--------------------------------------- Iteration      1(   2)  ---------------------------------------


     EDDAV:  cpu time   27.9280: real time   28.0891
 BZINTS: Fermi energy: -1.424379; 60.000000 electrons
         Band energy:-406.593457;  BLOECHL correction: -0.059115
       DOS:  cpu time    0.0080: real time    0.0048
    --------------------------------------------
      LOOP:  cpu time   27.9360: real time   28.0939

 eigenvalue-minimisations  :  1216
 total energy-change (2. order) :-0.3778843E+03  (-0.3459172E+03)
 number of electron      60.0000000 magnetization       7.2600000
 augmentation part       60.0000000 magnetization       7.2600000

 Free energy of the ion-electron system (eV)
  ---------------------------------------------------
  alpha Z        PSCENC =        23.52513629
  Ewald energy   TEWEN  =      7005.02028753
  -Hartree energ DENC   =     -9759.71101123
  -exchange      EXHF   =         0.00000000
  -V(xc)+E(xc)   XCENC  =        56.06435833
  PAW double counting   =      1624.69297807    -1583.07957885
  entropy T*S    EENTRO =         0.00000000
  eigenvalues    EBANDS =      -406.59345683
  atomic energy  EATOM  =      3070.27752154
  Solvation  Ediel_sol  =         0.00000000
  ---------------------------------------------------
  free energy    TOTEN  =        30.19623486 eV

  energy without entropy =       30.19623486  energy(sigma->0) =       30.19623486


--------------------------------------------------------------------------------------------------------




--------------------------------------- Iteration      1(   3)  ---------------------------------------


     EDDAV:  cpu time   28.9360: real time   29.4813
 BZINTS: Fermi energy: -2.818198; 60.000000 electrons
         Band energy:-487.012232;  BLOECHL correction: -0.004542
       DOS:  cpu time    0.0040: real time    0.0053
    --------------------------------------------
      LOOP:  cpu time   28.9400: real time   29.4866

 eigenvalue-minimisations  :  1280
 total energy-change (2. order) :-0.8041878E+02  (-0.7811419E+02)
 number of electron      60.0000000 magnetization       7.2600000
 augmentation part       60.0000000 magnetization       7.2600000

 Free energy of the ion-electron system (eV)
  ---------------------------------------------------
  alpha Z        PSCENC =        23.52513629
  Ewald energy   TEWEN  =      7005.02028753
  -Hartree energ DENC   =     -9759.71101123
  -exchange      EXHF   =         0.00000000
  -V(xc)+E(xc)   XCENC  =        56.06435833
  PAW double counting   =      1624.69297807    -1583.07957885
  entropy T*S    EENTRO =         0.00000000
  eigenvalues    EBANDS =      -487.01223236
  atomic energy  EATOM  =      3070.27752154
  Solvation  Ediel_sol  =         0.00000000
  ---------------------------------------------------
  free energy    TOTEN  =       -50.22254067 eV

  energy without entropy =      -50.22254067  energy(sigma->0) =      -50.22254067


--------------------------------------------------------------------------------------------------------




--------------------------------------- Iteration      1(   4)  ---------------------------------------


     EDDAV:  cpu time   29.6800: real time   29.9412
 BZINTS: Fermi energy: -2.866958; 60.000000 electrons
         Band energy:-490.667555;  BLOECHL correction: -0.006951
       DOS:  cpu time    0.0080: real time    0.0055
    --------------------------------------------
      LOOP:  cpu time   29.6880: real time   29.9468

 eigenvalue-minimisations  :  1296
 total energy-change (2. order) :-0.3655323E+01  (-0.3595022E+01)
 number of electron      60.0000000 magnetization       7.2600000
 augmentation part       60.0000000 magnetization       7.2600000

 Free energy of the ion-electron system (eV)
  ---------------------------------------------------
  alpha Z        PSCENC =        23.52513629
  Ewald energy   TEWEN  =      7005.02028753
  -Hartree energ DENC   =     -9759.71101123
  -exchange      EXHF   =         0.00000000
  -V(xc)+E(xc)   XCENC  =        56.06435833
  PAW double counting   =      1624.69297807    -1583.07957885
  entropy T*S    EENTRO =         0.00000000
  eigenvalues    EBANDS =      -490.66755525
  atomic energy  EATOM  =      3070.27752154
  Solvation  Ediel_sol  =         0.00000000
  ---------------------------------------------------
  free energy    TOTEN  =       -53.87786356 eV

  energy without entropy =      -53.87786356  energy(sigma->0) =      -53.87786356


--------------------------------------------------------------------------------------------------------




--------------------------------------- Iteration      1(   5)  ---------------------------------------


     EDDAV:  cpu time   29.1080: real time   29.6342
 BZINTS: Fermi energy: -2.868109; 60.000000 electrons
         Band energy:-490.792882;  BLOECHL correction: -0.006845
       DOS:  cpu time    0.0040: real time    0.0059
    CHARGE:  cpu time    1.9920: real time    2.0052
    MIXING:  cpu time    0.0840: real time    0.0840
    --------------------------------------------
      LOOP:  cpu time   31.1880: real time   31.7293

 eigenvalue-minimisations  :  1296
 total energy-change (2. order) :-0.1253268E+00  (-0.1252324E+00)
 number of electron      60.0000003 magnetization       7.2516573
 augmentation part       -1.3969324 magnetization       4.8511440

 Broyden mixing:
  rms(total) = 0.28401E+01    rms(broyden)= 0.28399E+01
  rms(prec ) = 0.31637E+01
  weight for this iteration     100.00

 Free energy of the ion-electron system (eV)
  ---------------------------------------------------
  alpha Z        PSCENC =        23.52513629
  Ewald energy   TEWEN  =      7005.02028753
  -Hartree energ DENC   =     -9759.71101123
  -exchange      EXHF   =         0.00000000
  -V(xc)+E(xc)   XCENC  =        56.06435833
  PAW double counting   =      1624.69297807    -1583.07957885
  entropy T*S    EENTRO =         0.00000000
  eigenvalues    EBANDS =      -490.79288204
  atomic energy  EATOM  =      3070.27752154
  Solvation  Ediel_sol  =         0.00000000
  ---------------------------------------------------
  free energy    TOTEN  =       -54.00319035 eV

  energy without entropy =      -54.00319035  energy(sigma->0) =      -54.00319035


--------------------------------------------------------------------------------------------------------




--------------------------------------- Iteration      1(   6)  ---------------------------------------


    POTLOK:  cpu time   52.2320: real time   52.5047
    SETDIJ:  cpu time    0.0440: real time    0.0424
     EDDAV:  cpu time   27.9360: real time   28.3126
 BZINTS: Fermi energy: -4.837027; 60.000000 electrons
         Band energy:-682.488847;  BLOECHL correction: -0.019770
       DOS:  cpu time    0.0040: real time    0.0074
    CHARGE:  cpu time    2.0280: real time    2.0588
    MIXING:  cpu time    0.0560: real time    0.0532
    --------------------------------------------
      LOOP:  cpu time   82.3000: real time   82.9790

 eigenvalue-minimisations  :  1232
 total energy-change (2. order) :-0.7014313E+02  (-0.3997720E+02)
 number of electron      60.0000013 magnetization       7.0269789
 augmentation part        9.9631228 magnetization       6.8640924

 Broyden mixing:
  rms(total) = 0.66085E+01    rms(broyden)= 0.66084E+01
  rms(prec ) = 0.71179E+01
  weight for this iteration     100.00

 eigenvalues of (default mixing * dielectric matrix)
  average eigenvalue GAMMA=   0.2385
  0.2385

 Free energy of the ion-electron system (eV)
  ---------------------------------------------------
  alpha Z        PSCENC =        23.52513629
  Ewald energy   TEWEN  =      7005.02028753
  -Hartree energ DENC   =     -9653.15660986
  -exchange      EXHF   =         0.00000000
  -V(xc)+E(xc)   XCENC  =        56.69474328
  PAW double counting   =      1437.60163887    -1381.62018641
  entropy T*S    EENTRO =         0.00000000
  eigenvalues    EBANDS =      -682.48884672
  atomic energy  EATOM  =      3070.27752154
  Solvation  Ediel_sol  =         0.00000000
  ---------------------------------------------------
  free energy    TOTEN  =      -124.14631548 eV

  energy without entropy =     -124.14631548  energy(sigma->0) =     -124.14631548


--------------------------------------------------------------------------------------------------------




--------------------------------------- Iteration      1(   7)  ---------------------------------------


    POTLOK:  cpu time   52.0440: real time   52.7607
    SETDIJ:  cpu time    0.0400: real time    0.0419
     EDDAV:  cpu time   25.1000: real time   25.3554
 BZINTS: Fermi energy: -5.044749; 60.000000 electrons
         Band energy:-527.281935;  BLOECHL correction: -0.013792
       DOS:  cpu time    0.0080: real time    0.0054
    CHARGE:  cpu time    2.0040: real time    2.0149
    MIXING:  cpu time    0.0400: real time    0.0433
    --------------------------------------------
      LOOP:  cpu time   79.2360: real time   80.2215

 eigenvalue-minimisations  :  1088
 total energy-change (2. order) : 0.7578644E+02  (-0.7873075E+01)
 number of electron      60.0000011 magnetization       6.7846015
 augmentation part        7.2970590 magnetization       5.7557241

 Broyden mixing:
  rms(total) = 0.36308E+01    rms(broyden)= 0.36307E+01
  rms(prec ) = 0.39663E+01
  weight for this iteration     100.00

 eigenvalues of (default mixing * dielectric matrix)
  average eigenvalue GAMMA=   0.5252
  0.5252  0.5252

 Free energy of the ion-electron system (eV)
  ---------------------------------------------------
  alpha Z        PSCENC =        23.52513629
  Ewald energy   TEWEN  =      7005.02028753
  -Hartree energ DENC   =     -9717.66016038
  -exchange      EXHF   =         0.00000000
  -V(xc)+E(xc)   XCENC  =        54.87266123
  PAW double counting   =      1555.28305691    -1512.39644043
  entropy T*S    EENTRO =         0.00000000
  eigenvalues    EBANDS =      -527.28193450
  atomic energy  EATOM  =      3070.27752154
  Solvation  Ediel_sol  =         0.00000000
  ---------------------------------------------------
  free energy    TOTEN  =       -48.35987181 eV

  energy without entropy =      -48.35987181  energy(sigma->0) =      -48.35987181


--------------------------------------------------------------------------------------------------------




--------------------------------------- Iteration      1(   8)  ---------------------------------------


    POTLOK:  cpu time   52.2680: real time   53.0155
    SETDIJ:  cpu time    0.0360: real time    0.0410
     EDDAV:  cpu time   28.8360: real time   31.2353
 BZINTS: Fermi energy: -3.051262; 60.000000 electrons
         Band energy:-483.435164;  BLOECHL correction: -0.008173
       DOS:  cpu time    0.0040: real time    0.0070
    CHARGE:  cpu time    2.0160: real time    2.0258
    MIXING:  cpu time    0.0440: real time    0.0441
    --------------------------------------------
      LOOP:  cpu time   83.2040: real time   86.3687

 eigenvalue-minimisations  :  1376
 total energy-change (2. order) : 0.1418605E+01  (-0.9815724E+01)
 number of electron      60.0000004 magnetization       6.6767225
 augmentation part       -0.9364266 magnetization       4.6420989

 Broyden mixing:
  rms(total) = 0.28329E+01    rms(broyden)= 0.28326E+01
  rms(prec ) = 0.30833E+01
  weight for this iteration     100.00

 eigenvalues of (default mixing * dielectric matrix)
  average eigenvalue GAMMA=   0.5521
  0.8653  0.3955  0.3955

 Free energy of the ion-electron system (eV)
  ---------------------------------------------------
  alpha Z        PSCENC =        23.52513629
  Ewald energy   TEWEN  =      7005.02028753
  -Hartree energ DENC   =     -9757.68110889
  -exchange      EXHF   =         0.00000000
  -V(xc)+E(xc)   XCENC  =        54.89545328
  PAW double counting   =      1630.54389285    -1590.08728535
  entropy T*S    EENTRO =         0.00000000
  eigenvalues    EBANDS =      -483.43516386
  atomic energy  EATOM  =      3070.27752154
  Solvation  Ediel_sol  =         0.00000000
  ---------------------------------------------------
  free energy    TOTEN  =       -46.94126660 eV

  energy without entropy =      -46.94126660  energy(sigma->0) =      -46.94126660


--------------------------------------------------------------------------------------------------------




--------------------------------------- Iteration      1(   9)  ---------------------------------------


    POTLOK:  cpu time   51.9880: real time   52.7210
    SETDIJ:  cpu time    0.0440: real time    0.0434
     EDDAV:  cpu time   28.6520: real time   28.8833
 BZINTS: Fermi energy: -4.148361; 60.000000 electrons
         Band energy:-502.315914;  BLOECHL correction: -0.013356
       DOS:  cpu time    0.0040: real time    0.0070
    CHARGE:  cpu time    2.0080: real time    2.0084
    MIXING:  cpu time    0.0400: real time    0.0420
    --------------------------------------------
      LOOP:  cpu time   82.7360: real time   83.7051

 eigenvalue-minimisations  :  1264
 total energy-change (2. order) : 0.5019968E+01  (-0.1793488E+01)
 number of electron      60.0000005 magnetization       6.7248373
 augmentation part        2.0303091 magnetization       3.5088055

 Broyden mixing:
  rms(total) = 0.16055E+01    rms(broyden)= 0.16053E+01
  rms(prec ) = 0.16295E+01
  weight for this iteration     100.00

 eigenvalues of (default mixing * dielectric matrix)
  average eigenvalue GAMMA=   0.4084
  0.7836  0.3976  0.3976  0.0548

 Free energy of the ion-electron system (eV)
  ---------------------------------------------------
  alpha Z        PSCENC =        23.52513629
  Ewald energy   TEWEN  =      7005.02028753
  -Hartree energ DENC   =     -9734.16522178
  -exchange      EXHF   =         0.00000000
  -V(xc)+E(xc)   XCENC  =        54.91635120
  PAW double counting   =      1587.25434263    -1546.43380221
  entropy T*S    EENTRO =         0.00000000
  eigenvalues    EBANDS =      -502.31591379
  atomic energy  EATOM  =      3070.27752154
  Solvation  Ediel_sol  =         0.00000000
  ---------------------------------------------------
  free energy    TOTEN  =       -41.92129859 eV

  energy without entropy =      -41.92129859  energy(sigma->0) =      -41.92129859


--------------------------------------------------------------------------------------------------------




--------------------------------------- Iteration      1(  10)  ---------------------------------------


    POTLOK:  cpu time   52.5920: real time   52.6937
    SETDIJ:  cpu time    0.0400: real time    0.0411
     EDDAV:  cpu time   34.3720: real time   34.9921
 BZINTS: Fermi energy: -4.180910; 60.000000 electrons
         Band energy:-502.970732;  BLOECHL correction: -0.015575
       DOS:  cpu time    0.0040: real time    0.0069
    CHARGE:  cpu time    2.0160: real time    2.0360
    MIXING:  cpu time    0.0480: real time    0.0457
    --------------------------------------------
      LOOP:  cpu time   89.0720: real time   89.8156

 eigenvalue-minimisations  :  1552
 total energy-change (2. order) :-0.1669350E-01  (-0.9737388E-01)
 number of electron      60.0000005 magnetization       6.7476313
 augmentation part        2.0714366 magnetization       3.5750079

 Broyden mixing:
  rms(total) = 0.14724E+01    rms(broyden)= 0.14724E+01
  rms(prec ) = 0.14865E+01
  weight for this iteration     100.00

 eigenvalues of (default mixing * dielectric matrix)
  average eigenvalue GAMMA=   0.3408
  0.7138  0.3975  0.3975  0.0976  0.0976

 Free energy of the ion-electron system (eV)
  ---------------------------------------------------
  alpha Z        PSCENC =        23.52513629
  Ewald energy   TEWEN  =      7005.02028753
  -Hartree energ DENC   =     -9733.68651873
  -exchange      EXHF   =         0.00000000
  -V(xc)+E(xc)   XCENC  =        55.10972641
  PAW double counting   =      1585.91602002    -1545.12943316
  entropy T*S    EENTRO =         0.00000000
  eigenvalues    EBANDS =      -502.97073199
  atomic energy  EATOM  =      3070.27752154
  Solvation  Ediel_sol  =         0.00000000
  ---------------------------------------------------
  free energy    TOTEN  =       -41.93799209 eV

  energy without entropy =      -41.93799209  energy(sigma->0) =      -41.93799209


--------------------------------------------------------------------------------------------------------




--------------------------------------- Iteration      1(  11)  ---------------------------------------


    POTLOK:  cpu time   52.6360: real time   52.9634
    SETDIJ:  cpu time    0.0400: real time    0.0404
     EDDAV:  cpu time   32.2520: real time   32.6388
 BZINTS: Fermi energy: -4.207053; 60.000000 electrons
         Band energy:-503.262268;  BLOECHL correction: -0.014117
       DOS:  cpu time    0.0080: real time    0.0099
    CHARGE:  cpu time    2.0040: real time    2.0147
    MIXING:  cpu time    0.0480: real time    0.0477
    --------------------------------------------
      LOOP:  cpu time   86.9880: real time   87.7149

 eigenvalue-minimisations  :  1440
 total energy-change (2. order) :-0.5565981E-01  (-0.2050511E-01)
 number of electron      60.0000005 magnetization       6.7798743
 augmentation part        2.1299854 magnetization       3.6579072

 Broyden mixing:
  rms(total) = 0.14048E+01    rms(broyden)= 0.14048E+01
  rms(prec ) = 0.14207E+01
  weight for this iteration     100.00

 eigenvalues of (default mixing * dielectric matrix)
  average eigenvalue GAMMA=   0.2847
  0.7138  0.3973  0.3973  0.0984  0.0984  0.0030

 Free energy of the ion-electron system (eV)
  ---------------------------------------------------
  alpha Z        PSCENC =        23.52513629
  Ewald energy   TEWEN  =      7005.02028753
  -Hartree energ DENC   =     -9733.51747921
  -exchange      EXHF   =         0.00000000
  -V(xc)+E(xc)   XCENC  =        55.19677054
  PAW double counting   =      1585.40451118    -1544.63813136
  entropy T*S    EENTRO =         0.00000000
  eigenvalues    EBANDS =      -503.26226843
  atomic energy  EATOM  =      3070.27752154
  Solvation  Ediel_sol  =         0.00000000
  ---------------------------------------------------
  free energy    TOTEN  =       -41.99365190 eV

  energy without entropy =      -41.99365190  energy(sigma->0) =      -41.99365190


--------------------------------------------------------------------------------------------------------




--------------------------------------- Iteration      1(  12)  ---------------------------------------


    POTLOK:  cpu time   52.2840: real time   52.7220
    SETDIJ:  cpu time    0.0440: real time    0.0418
     EDDAV:  cpu time   30.1640: real time   30.7546
 BZINTS: Fermi energy: -4.246310; 60.000000 electrons
         Band energy:-503.972712;  BLOECHL correction: -0.011659
       DOS:  cpu time    0.0040: real time    0.0067
    CHARGE:  cpu time    1.9880: real time    2.0701
    MIXING:  cpu time    0.0440: real time    0.0454
    --------------------------------------------
      LOOP:  cpu time   84.5280: real time   85.6405

 eigenvalue-minimisations  :  1344
 total energy-change (2. order) :-0.6255220E-01  (-0.3751374E-02)
 number of electron      60.0000005 magnetization       6.9751062
 augmentation part        2.2211273 magnetization       3.9330903

 Broyden mixing:
  rms(total) = 0.13066E+01    rms(broyden)= 0.13066E+01
  rms(prec ) = 0.13257E+01
  weight for this iteration     100.00

 eigenvalues of (default mixing * dielectric matrix)
  average eigenvalue GAMMA=   0.4809
  0.6390  0.6390  0.8228  0.4073  0.4073  0.3830  0.0681

 Free energy of the ion-electron system (eV)
  ---------------------------------------------------
  alpha Z        PSCENC =        23.52513629
  Ewald energy   TEWEN  =      7005.02028753
  -Hartree energ DENC   =     -9732.97071282
  -exchange      EXHF   =         0.00000000
  -V(xc)+E(xc)   XCENC  =        55.31034568
  PAW double counting   =      1584.12735265    -1543.37342320
  entropy T*S    EENTRO =         0.00000000
  eigenvalues    EBANDS =      -503.97271179
  atomic energy  EATOM  =      3070.27752154
  Solvation  Ediel_sol  =         0.00000000
  ---------------------------------------------------
  free energy    TOTEN  =       -42.05620411 eV

  energy without entropy =      -42.05620411  energy(sigma->0) =      -42.05620411


--------------------------------------------------------------------------------------------------------




--------------------------------------- Iteration      1(  13)  ---------------------------------------


    POTLOK:  cpu time   52.0040: real time   52.2611
    SETDIJ:  cpu time    0.0400: real time    0.0411
     EDDAV:  cpu time   31.4880: real time   31.6822
 BZINTS: Fermi energy: -4.368132; 60.004861 electrons
         Band energy:-508.742663;  BLOECHL correction: -0.009567
       DOS:  cpu time    0.0080: real time    0.0088
    CHARGE:  cpu time    2.0520: real time    2.0521
    MIXING:  cpu time    0.0520: real time    0.0557
    --------------------------------------------
      LOOP:  cpu time   85.6440: real time   86.1009

 eigenvalue-minimisations  :  1392
 total energy-change (2. order) :-0.3593800E+00  (-0.1275118E+00)
 number of electron      60.0048618 magnetization       7.1378047
 augmentation part        2.5580174 magnetization       4.2225069

 Broyden mixing:
  rms(total) = 0.85070E+00    rms(broyden)= 0.85062E+00
  rms(prec ) = 0.87495E+00
  weight for this iteration     100.00

 eigenvalues of (default mixing * dielectric matrix)
  average eigenvalue GAMMA=   0.5656
  0.8470  0.8470  0.9386  0.5135  0.5135  0.3985  0.3985  0.0681

 Free energy of the ion-electron system (eV)
  ---------------------------------------------------
  alpha Z        PSCENC =        23.52513629
  Ewald energy   TEWEN  =      7005.02028753
  -Hartree energ DENC   =     -9729.21021280
  -exchange      EXHF   =         0.00000000
  -V(xc)+E(xc)   XCENC  =        56.23343266
  PAW double counting   =      1575.55702742    -1535.07611373
  entropy T*S    EENTRO =         0.00000000
  eigenvalues    EBANDS =      -508.74266299
  atomic energy  EATOM  =      3070.27752154
  Solvation  Ediel_sol  =         0.00000000
  ---------------------------------------------------
  free energy    TOTEN  =       -42.41558407 eV

  energy without entropy =      -42.41558407  energy(sigma->0) =      -42.41558407


--------------------------------------------------------------------------------------------------------




--------------------------------------- Iteration      1(  14)  ---------------------------------------


    POTLOK:  cpu time   52.6520: real time   52.7321
    SETDIJ:  cpu time    0.0440: real time    0.0410
     EDDAV:  cpu time   31.1640: real time   31.5761
 BZINTS: Fermi energy: -4.302333; 60.000000 electrons
         Band energy:-509.249281;  BLOECHL correction: -0.016124
       DOS:  cpu time    0.0040: real time    0.0077
    CHARGE:  cpu time    2.0440: real time    2.0659
    MIXING:  cpu time    0.0440: real time    0.0466
    --------------------------------------------
      LOOP:  cpu time   85.9520: real time   86.4694

 eigenvalue-minimisations  :  1392
 total energy-change (2. order) :-0.2173661E+00  (-0.2927738E-01)
 number of electron      60.0000005 magnetization       7.3305016
 augmentation part        2.3205058 magnetization       4.1989417

 Broyden mixing:
  rms(total) = 0.69203E+00    rms(broyden)= 0.69203E+00
  rms(prec ) = 0.70910E+00
  weight for this iteration     100.00

 eigenvalues of (default mixing * dielectric matrix)
  average eigenvalue GAMMA=   0.6253
  0.9028  0.9028  1.0518  0.7031  0.7031  0.5003  0.3979  0.3979  0.0681

 Free energy of the ion-electron system (eV)
  ---------------------------------------------------
  alpha Z        PSCENC =        23.52513629
  Ewald energy   TEWEN  =      7005.02028753
  -Hartree energ DENC   =     -9729.20698446
  -exchange      EXHF   =         0.00000000
  -V(xc)+E(xc)   XCENC  =        56.98665244
  PAW double counting   =      1574.48342370    -1534.46970647
  entropy T*S    EENTRO =         0.00000000
  eigenvalues    EBANDS =      -509.24928070
  atomic energy  EATOM  =      3070.27752154
  Solvation  Ediel_sol  =         0.00000000
  ---------------------------------------------------
  free energy    TOTEN  =       -42.63295013 eV

  energy without entropy =      -42.63295013  energy(sigma->0) =      -42.63295013


--------------------------------------------------------------------------------------------------------




--------------------------------------- Iteration      1(  15)  ---------------------------------------


    POTLOK:  cpu time   52.4160: real time   52.8136
    SETDIJ:  cpu time    0.0560: real time    0.0578
     EDDAV:  cpu time   29.4600: real time   29.6491
 BZINTS: Fermi energy: -4.252389; 60.000000 electrons
         Band energy:-509.108344;  BLOECHL correction: -0.014168
       DOS:  cpu time    0.0040: real time    0.0072
    CHARGE:  cpu time    2.0280: real time    2.0302
    MIXING:  cpu time    0.0480: real time    0.0467
    --------------------------------------------
      LOOP:  cpu time   84.0120: real time   84.6047

 eigenvalue-minimisations  :  1296
 total energy-change (2. order) :-0.1596929E+00  (-0.1270844E-01)
 number of electron      60.0000005 magnetization       7.4308327
 augmentation part        1.9682242 magnetization       3.7611640

 Broyden mixing:
  rms(total) = 0.80741E+00    rms(broyden)= 0.80738E+00
  rms(prec ) = 0.83429E+00
  weight for this iteration     100.00

 eigenvalues of (default mixing * dielectric matrix)
  average eigenvalue GAMMA=   0.6365
  0.9075  0.9075  1.0684  0.8384  0.8384  0.3988  0.3988  0.4694  0.4694  0.0681

 Free energy of the ion-electron system (eV)
  ---------------------------------------------------
  alpha Z        PSCENC =        23.52513629
  Ewald energy   TEWEN  =      7005.02028753
  -Hartree energ DENC   =     -9729.62876914
  -exchange      EXHF   =         0.00000000
  -V(xc)+E(xc)   XCENC  =        57.58537119
  PAW double counting   =      1575.11647127    -1535.58031776
  entropy T*S    EENTRO =         0.00000000
  eigenvalues    EBANDS =      -509.10834393
  atomic energy  EATOM  =      3070.27752154
  Solvation  Ediel_sol  =         0.00000000
  ---------------------------------------------------
  free energy    TOTEN  =       -42.79264301 eV

  energy without entropy =      -42.79264301  energy(sigma->0) =      -42.79264301


--------------------------------------------------------------------------------------------------------




--------------------------------------- Iteration      1(  16)  ---------------------------------------


    POTLOK:  cpu time   52.5800: real time   52.8343
    SETDIJ:  cpu time    0.0440: real time    0.0440
     EDDAV:  cpu time   26.8640: real time   27.2174
 BZINTS: Fermi energy: -4.253551; 60.000000 electrons
         Band energy:-509.390657;  BLOECHL correction: -0.009569
       DOS:  cpu time    0.0080: real time    0.0075
    CHARGE:  cpu time    2.0000: real time    2.0757
    MIXING:  cpu time    0.0520: real time    0.0526
    --------------------------------------------
      LOOP:  cpu time   81.5480: real time   82.2314

 eigenvalue-minimisations  :  1184
 total energy-change (2. order) :-0.1520710E-01  (-0.2310711E-02)
 number of electron      60.0000005 magnetization       7.6818652
 augmentation part        1.9566915 magnetization       3.9111505

 Broyden mixing:
  rms(total) = 0.78498E+00    rms(broyden)= 0.78498E+00
  rms(prec ) = 0.81329E+00
  weight for this iteration     100.00

 eigenvalues of (default mixing * dielectric matrix)
  average eigenvalue GAMMA=   0.7660
  1.5147  1.5147  1.1368  0.7886  0.7886  0.6298  0.6298  0.3987  0.3987  0.5573
  0.0681

 Free energy of the ion-electron system (eV)
  ---------------------------------------------------
  alpha Z        PSCENC =        23.52513629
  Ewald energy   TEWEN  =      7005.02028753
  -Hartree energ DENC   =     -9729.38190707
  -exchange      EXHF   =         0.00000000
  -V(xc)+E(xc)   XCENC  =        57.77043254
  PAW double counting   =      1574.56087544    -1535.18953950
  entropy T*S    EENTRO =         0.00000000
  eigenvalues    EBANDS =      -509.39065689
  atomic energy  EATOM  =      3070.27752154
  Solvation  Ediel_sol  =         0.00000000
  ---------------------------------------------------
  free energy    TOTEN  =       -42.80785011 eV

  energy without entropy =      -42.80785011  energy(sigma->0) =      -42.80785011


--------------------------------------------------------------------------------------------------------




--------------------------------------- Iteration      1(  17)  ---------------------------------------


    POTLOK:  cpu time   51.4640: real time   52.6074
    SETDIJ:  cpu time    0.0440: real time    0.0427
     EDDAV:  cpu time   25.4320: real time   25.7436
 BZINTS: Fermi energy: -4.264466; 60.010067 electrons
         Band energy:-509.701158;  BLOECHL correction: -0.004379
       DOS:  cpu time    0.0080: real time    0.0091
    CHARGE:  cpu time    2.0680: real time    2.0702
    MIXING:  cpu time    0.0480: real time    0.0497
    --------------------------------------------
      LOOP:  cpu time   79.0640: real time   80.5226

 eigenvalue-minimisations  :  1104
 total energy-change (2. order) :-0.5128586E-01  (-0.3433497E-02)
 number of electron      60.0100677 magnetization       8.2313355
 augmentation part        1.9440154 magnetization       4.2289804

 Broyden mixing:
  rms(total) = 0.77901E+00    rms(broyden)= 0.77901E+00
  rms(prec ) = 0.80757E+00
  weight for this iteration     100.00

 eigenvalues of (default mixing * dielectric matrix)
  average eigenvalue GAMMA=   0.9072
  2.2838  2.2838  0.8004  0.8004  1.0411  0.8161  0.8161  0.3986  0.3986  0.5894
  0.5894  0.0681

 Free energy of the ion-electron system (eV)
  ---------------------------------------------------
  alpha Z        PSCENC =        23.52513629
  Ewald energy   TEWEN  =      7005.02028753
  -Hartree energ DENC   =     -9729.04837992
  -exchange      EXHF   =         0.00000000
  -V(xc)+E(xc)   XCENC  =        57.97004099
  PAW double counting   =      1574.02059464    -1534.92317954
  entropy T*S    EENTRO =         0.00000000
  eigenvalues    EBANDS =      -509.70115751
  atomic energy  EATOM  =      3070.27752154
  Solvation  Ediel_sol  =         0.00000000
  ---------------------------------------------------
  free energy    TOTEN  =       -42.85913596 eV

  energy without entropy =      -42.85913596  energy(sigma->0) =      -42.85913596


--------------------------------------------------------------------------------------------------------




--------------------------------------- Iteration      1(  18)  ---------------------------------------


    POTLOK:  cpu time   52.1440: real time   52.5393
    SETDIJ:  cpu time    0.0440: real time    0.0422
     EDDAV:  cpu time   27.1680: real time   27.3059
 BZINTS: Fermi energy: -4.269966; 59.993249 electrons
         Band energy:-510.758127;  BLOECHL correction: -0.000707
       DOS:  cpu time    0.0080: real time    0.0077
    CHARGE:  cpu time    1.9960: real time    2.0030
    MIXING:  cpu time    0.0520: real time    0.0537
    --------------------------------------------
      LOOP:  cpu time   81.4120: real time   81.9518

 eigenvalue-minimisations  :  1184
 total energy-change (2. order) : 0.9762730E-01  (-0.1363408E-01)
 number of electron      59.9932499 magnetization       8.4664382
 augmentation part        2.0483579 magnetization       4.2973470

 Broyden mixing:
  rms(total) = 0.61044E+00    rms(broyden)= 0.61044E+00
  rms(prec ) = 0.63407E+00
  weight for this iteration     100.00

 eigenvalues of (default mixing * dielectric matrix)
  average eigenvalue GAMMA=   0.9496
  2.4345  2.4345  0.8032  0.8032  1.0589  1.0589  1.0414  0.3986  0.3986  0.6199
  0.6199  0.6045  0.0681

 Free energy of the ion-electron system (eV)
  ---------------------------------------------------
  alpha Z        PSCENC =        23.52513629
  Ewald energy   TEWEN  =      7005.02028753
  -Hartree energ DENC   =     -9727.89736244
  -exchange      EXHF   =         0.00000000
  -V(xc)+E(xc)   XCENC  =        58.41358465
  PAW double counting   =      1571.65786551    -1533.00041492
  entropy T*S    EENTRO =         0.00000000
  eigenvalues    EBANDS =      -510.75812683
  atomic energy  EATOM  =      3070.27752154
  Solvation  Ediel_sol  =         0.00000000
  ---------------------------------------------------
  free energy    TOTEN  =       -42.76150866 eV

  energy without entropy =      -42.76150866  energy(sigma->0) =      -42.76150866


--------------------------------------------------------------------------------------------------------




--------------------------------------- Iteration      1(  19)  ---------------------------------------


    POTLOK:  cpu time   52.4800: real time   52.6214
    SETDIJ:  cpu time    0.0400: real time    0.0413
     EDDAV:  cpu time   26.8680: real time   27.0454
 BZINTS: Fermi energy: -4.319980; 60.000000 electrons
         Band energy:-512.765759;  BLOECHL correction: -0.005176
       DOS:  cpu time    0.0040: real time    0.0070
    CHARGE:  cpu time    2.0360: real time    2.0362
    MIXING:  cpu time    0.0520: real time    0.0534
    --------------------------------------------
      LOOP:  cpu time   81.4800: real time   81.8047

 eigenvalue-minimisations  :  1168
 total energy-change (2. order) :-0.1152083E-02  (-0.1375133E-01)
 number of electron      60.0000005 magnetization       8.6839026
 augmentation part        2.1872636 magnetization       4.5779048

 Broyden mixing:
  rms(total) = 0.43135E+00    rms(broyden)= 0.43134E+00
  rms(prec ) = 0.44811E+00
  weight for this iteration     100.00

 eigenvalues of (default mixing * dielectric matrix)
  average eigenvalue GAMMA=   0.9776
  2.5733  2.5733  0.8040  0.8040  1.1843  1.1843  1.2314  0.3986  0.3986  0.6484
  0.6484  0.5846  0.5846  0.0681

 Free energy of the ion-electron system (eV)
  ---------------------------------------------------
  alpha Z        PSCENC =        23.52513629
  Ewald energy   TEWEN  =      7005.02028753
  -Hartree energ DENC   =     -9726.04663980
  -exchange      EXHF   =         0.00000000
  -V(xc)+E(xc)   XCENC  =        58.58419897
  PAW double counting   =      1568.47955631    -1529.83696282
  entropy T*S    EENTRO =         0.00000000
  eigenvalues    EBANDS =      -512.76575879
  atomic energy  EATOM  =      3070.27752154
  Solvation  Ediel_sol  =         0.00000000
  ---------------------------------------------------
  free energy    TOTEN  =       -42.76266075 eV

  energy without entropy =      -42.76266075  energy(sigma->0) =      -42.76266075


--------------------------------------------------------------------------------------------------------




--------------------------------------- Iteration      1(  20)  ---------------------------------------


    POTLOK:  cpu time   52.4600: real time   52.8896
    SETDIJ:  cpu time    0.0440: real time    0.0420
     EDDAV:  cpu time   31.7360: real time   32.6536
 BZINTS: Fermi energy: -4.356440; 60.000000 electrons
         Band energy:-514.419293;  BLOECHL correction: -0.012434
       DOS:  cpu time    0.0040: real time    0.0076
    CHARGE:  cpu time    2.0120: real time    2.0124
    MIXING:  cpu time    0.0560: real time    0.0549
    --------------------------------------------
      LOOP:  cpu time   86.3120: real time   87.6600

 eigenvalue-minimisations  :  1440
 total energy-change (2. order) : 0.7787417E-02  (-0.4812715E-02)
 number of electron      60.0000005 magnetization       8.7964288
 augmentation part        2.3545931 magnetization       4.8409498

 Broyden mixing:
  rms(total) = 0.23808E+00    rms(broyden)= 0.23807E+00
  rms(prec ) = 0.24611E+00
  weight for this iteration     100.00

 eigenvalues of (default mixing * dielectric matrix)
  average eigenvalue GAMMA=   1.0796
  3.0483  3.0483  0.8040  0.8040  1.5109  1.3841  1.3841  0.3986  0.3986  0.7632
  0.7632  0.6135  0.6135  0.5910  0.0681

 Free energy of the ion-electron system (eV)
  ---------------------------------------------------
  alpha Z        PSCENC =        23.52513629
  Ewald energy   TEWEN  =      7005.02028753
  -Hartree energ DENC   =     -9724.54556343
  -exchange      EXHF   =         0.00000000
  -V(xc)+E(xc)   XCENC  =        58.71583179
  PAW double counting   =      1566.23476784    -1527.56356155
  entropy T*S    EENTRO =         0.00000000
  eigenvalues    EBANDS =      -514.41929334
  atomic energy  EATOM  =      3070.27752154
  Solvation  Ediel_sol  =         0.00000000
  ---------------------------------------------------
  free energy    TOTEN  =       -42.75487333 eV

  energy without entropy =      -42.75487333  energy(sigma->0) =      -42.75487333


--------------------------------------------------------------------------------------------------------




--------------------------------------- Iteration      1(  21)  ---------------------------------------


    POTLOK:  cpu time   52.6880: real time   52.8958
    SETDIJ:  cpu time    0.0480: real time    0.0473
     EDDAV:  cpu time   28.7120: real time   29.6146
 BZINTS: Fermi energy: -4.385818; 60.000000 electrons
         Band energy:-515.543303;  BLOECHL correction: -0.018251
       DOS:  cpu time    0.0040: real time    0.0060
    CHARGE:  cpu time    2.0400: real time    2.0442
    MIXING:  cpu time    0.0560: real time    0.0550
    --------------------------------------------
      LOOP:  cpu time   83.5480: real time   84.6628

 eigenvalue-minimisations  :  1296
 total energy-change (2. order) :-0.1458297E-01  (-0.3914594E-02)
 number of electron      60.0000005 magnetization       8.9830129
 augmentation part        2.4427100 magnetization       5.1836922

 Broyden mixing:
  rms(total) = 0.13100E+00    rms(broyden)= 0.13098E+00
  rms(prec ) = 0.13418E+00
  weight for this iteration     100.00

 eigenvalues of (default mixing * dielectric matrix)
  average eigenvalue GAMMA=   1.1357
  3.4203  3.4203  1.7841  1.7841  0.8039  0.8039  1.0236  0.8958  0.8958  0.3986
  0.3986  0.0681  0.6453  0.6453  0.5913  0.5913

 Free energy of the ion-electron system (eV)
  ---------------------------------------------------
  alpha Z        PSCENC =        23.52513629
  Ewald energy   TEWEN  =      7005.02028753
  -Hartree energ DENC   =     -9723.61001906
  -exchange      EXHF   =         0.00000000
  -V(xc)+E(xc)   XCENC  =        58.73674406
  PAW double counting   =      1565.84061236    -1527.01643618
  entropy T*S    EENTRO =         0.00000000
  eigenvalues    EBANDS =      -515.54330285
  atomic energy  EATOM  =      3070.27752154
  Solvation  Ediel_sol  =         0.00000000
  ---------------------------------------------------
  free energy    TOTEN  =       -42.76945630 eV

  energy without entropy =      -42.76945630  energy(sigma->0) =      -42.76945630


--------------------------------------------------------------------------------------------------------




--------------------------------------- Iteration      1(  22)  ---------------------------------------


    POTLOK:  cpu time   51.4360: real time   52.7744
    SETDIJ:  cpu time    0.0480: real time    0.0487
     EDDAV:  cpu time   30.7040: real time   31.4062
 BZINTS: Fermi energy: -4.403948; 60.000000 electrons
         Band energy:-516.527567;  BLOECHL correction: -0.018869
       DOS:  cpu time    0.0040: real time    0.0071
    CHARGE:  cpu time    2.0680: real time    2.0837
    MIXING:  cpu time    0.0560: real time    0.0591
    --------------------------------------------
      LOOP:  cpu time   84.3160: real time   86.3793

 eigenvalue-minimisations  :  1376
 total energy-change (2. order) :-0.4911219E-02  (-0.1114192E-02)
 number of electron      60.0000005 magnetization       9.0661109
 augmentation part        2.5180631 magnetization       5.3162094

 Broyden mixing:
  rms(total) = 0.43824E-01    rms(broyden)= 0.43808E-01
  rms(prec ) = 0.45238E-01
  weight for this iteration     100.00

 eigenvalues of (default mixing * dielectric matrix)
  average eigenvalue GAMMA=   1.1508
  3.3262  3.3262  1.9875  1.9875  0.8039  0.8039  1.1357  1.0336  1.0336  0.3986
  0.3986  0.0681  0.6808  0.6808  0.6291  0.6291  0.6410

 Free energy of the ion-electron system (eV)
  ---------------------------------------------------
  alpha Z        PSCENC =        23.52513629
  Ewald energy   TEWEN  =      7005.02028753
  -Hartree energ DENC   =     -9722.74709167
  -exchange      EXHF   =         0.00000000
  -V(xc)+E(xc)   XCENC  =        58.84248862
  PAW double counting   =      1565.03183946    -1526.19698221
  entropy T*S    EENTRO =         0.00000000
  eigenvalues    EBANDS =      -516.52756708
  atomic energy  EATOM  =      3070.27752154
  Solvation  Ediel_sol  =         0.00000000
[...]
     34      -1.0048      0.00000
     35      -0.8232      0.00000
     36      -0.4503      0.00000
     37       0.7949      0.00000
     38       1.4162      0.00000
     39       1.7365      0.00000
     40       2.1359      0.00000
     41       2.4425      0.00000
     42       2.6914      0.00000
     43       2.7527      0.00000
     44       2.9997      0.00000
     45       3.5191      0.00000
     46       3.6711      0.00000
     47       3.9440      0.00000
     48       4.2742      0.00000

 k-point     5 :      -0.4000    0.2000    0.0000
  band No.  band energies     occupation 
      1     -16.5811      1.00000
      2     -16.3205      1.00000
      3     -15.8705      1.00000
      4     -15.7177      1.00000
      5     -15.4791      1.00000
      6     -15.3145      1.00000
      7     -11.1447      1.00000
      8      -9.5905      1.00000
      9      -8.1647      1.00000
     10      -7.6239      1.00000
     11      -7.5911      1.00000
     12      -7.0834      1.00000
     13      -6.7699      1.00000
     14      -6.5457      1.00000
     15      -6.3710      1.00000
     16      -5.9788      1.00000
     17      -5.8738      1.00000
     18      -5.8086      1.00000
     19      -5.6775      1.00000
     20      -5.3508      1.00000
     21      -5.2847      1.00000
     22      -4.4346      1.00000
     23      -4.4300      1.00000
     24      -4.1663      1.00000
     25      -4.0553      1.00000
     26      -3.1277      1.00000
     27      -3.0186      1.00000
     28      -2.8490      1.00000
     29      -2.7571      1.00000
     30      -2.3957      0.00000
     31      -2.3816      0.00000
     32      -1.5150      0.00000
     33      -1.2442      0.00000
     34      -0.9925      0.00000
     35      -0.7623      0.00000
     36      -0.7084      0.00000
     37       0.7101      0.00000
     38       1.2051      0.00000
     39       1.2499      0.00000
     40       2.0333      0.00000
     41       2.2023      0.00000
     42       2.3071      0.00000
     43       3.2315      0.00000
     44       3.3044      0.00000
     45       3.4078      0.00000
     46       3.5788      0.00000
     47       4.0101      0.00000
     48       4.5547      0.00000


--------------------------------------------------------------------------------------------------------


 soft charge-density along one line, spin component           1
         0         1         2         3         4         5         6         7         8         9
 total charge-density along one line

 soft charge-density along one line, spin component           2
         0         1         2         3         4         5         6         7         8         9
 total charge-density along one line

 pseudopotential strength for first ion, spin component:           1
-10.504  -0.086  -0.000   0.015  -0.000   0.769   0.026   0.000
 -0.086 -10.766   0.000  -0.000   0.015   0.026   0.847  -0.000
 -0.000   0.000 -11.197   0.000   0.000   0.000  -0.000   0.971
  0.015  -0.000   0.000 -10.766   0.086  -0.004   0.000  -0.000
 -0.000   0.015   0.000   0.086 -10.504   0.000  -0.004  -0.000
  0.769   0.026   0.000  -0.004   0.000   0.514  -0.008  -0.000
  0.026   0.847  -0.000   0.000  -0.004  -0.008   0.490   0.000
  0.000  -0.000   0.971  -0.000  -0.000  -0.000   0.000   0.456
 -0.004   0.000  -0.000   0.847  -0.026   0.001  -0.000   0.000
  0.000  -0.004  -0.000  -0.026   0.769  -0.000   0.001   0.000
 -0.000  -0.000   0.082  -0.000   0.000  -0.000  -0.000  -0.020
  0.000   0.000  -0.008   0.000  -0.000  -0.000  -0.000   0.002
 -0.001  -0.009   0.000  -0.000   0.000   0.000   0.002  -0.000
 -0.000  -0.000  -0.009  -0.000   0.000  -0.000   0.000   0.002
  0.000  -0.000   0.000  -0.009   0.001   0.001  -0.000  -0.000
  0.001   0.004  -0.000   0.000  -0.001  -0.000  -0.001   0.000
  0.000   0.000   0.003   0.000  -0.000  -0.000  -0.000  -0.001
 -0.001   0.000  -0.000   0.004  -0.001   0.000  -0.000   0.000
 pseudopotential strength for first ion, spin component:           2
 -9.938  -0.055  -0.000   0.005  -0.000   0.600   0.017   0.000
 -0.055 -10.255   0.000  -0.000   0.005   0.017   0.689  -0.000
 -0.000   0.000  -9.903   0.000   0.000   0.000  -0.000   0.592
  0.005  -0.000   0.000 -10.255   0.055  -0.002   0.000  -0.000
 -0.000   0.005   0.000   0.055  -9.938   0.000  -0.002  -0.000
  0.600   0.017   0.000  -0.002   0.000   0.564  -0.006  -0.000
  0.017   0.689  -0.000   0.000  -0.002  -0.006   0.539   0.000
  0.000  -0.000   0.592  -0.000  -0.000  -0.000   0.000   0.564
 -0.002   0.000  -0.000   0.689  -0.017   0.001  -0.000   0.000
  0.000  -0.002  -0.000  -0.017   0.600  -0.000   0.001   0.000
  0.000  -0.000   0.010  -0.000   0.000  -0.000  -0.000  -0.006
 -0.000   0.000  -0.003   0.000  -0.000   0.000  -0.000   0.001
 -0.001  -0.009   0.000  -0.000   0.002   0.000   0.002  -0.000
 -0.000  -0.000  -0.008  -0.000   0.000  -0.000   0.000   0.002
  0.002  -0.000   0.000  -0.009   0.001  -0.000  -0.000  -0.000
  0.001   0.004  -0.000   0.000  -0.001  -0.000  -0.001   0.000
  0.000   0.000   0.003   0.000  -0.000  -0.000  -0.000  -0.001
 -0.001   0.000  -0.000   0.004  -0.001   0.000  -0.000   0.000
 total augmentation occupancy for first ion, spin component:           1
  1.529  -0.358   0.000   0.047  -0.000   0.112   0.248   0.000  -0.040  -0.000   0.000   0.000  -0.018  -0.000   0.005   0.001
 -0.358   1.360  -0.000  -0.000   0.047   0.204   0.258   0.000  -0.000  -0.034  -0.000   0.000  -0.030   0.000   0.010   0.001
  0.000  -0.000   1.226  -0.000  -0.000   0.000   0.000  -0.063   0.000  -0.000   0.025   0.046  -0.000  -0.005  -0.000   0.000
  0.047  -0.000  -0.000   1.360   0.358  -0.034   0.000   0.000   0.258  -0.204  -0.000  -0.000  -0.010   0.000  -0.030   0.000
 -0.000   0.047  -0.000   0.358   1.529   0.000  -0.040  -0.000  -0.248   0.112  -0.000  -0.000   0.005   0.000   0.018  -0.000
  0.112   0.204   0.000  -0.034   0.000   0.152   0.073   0.000  -0.014  -0.000   0.000  -0.000  -0.005  -0.000   0.027   0.000
  0.248   0.258   0.000   0.000  -0.040   0.073   0.241   0.000  -0.000  -0.014   0.000  -0.000  -0.022  -0.000  -0.007   0.002
  0.000   0.000  -0.063   0.000  -0.000   0.000   0.000   0.145   0.000  -0.000   0.046  -0.024  -0.000  -0.010   0.000   0.000
 -0.040  -0.000   0.000   0.258  -0.248  -0.014  -0.000   0.000   0.241  -0.073   0.000   0.000   0.007   0.000  -0.022  -0.001
 -0.000  -0.034  -0.000  -0.204   0.112  -0.000  -0.014  -0.000  -0.073   0.152  -0.000   0.000   0.027   0.000   0.005  -0.004
  0.000   0.000   0.025  -0.000  -0.000   0.000   0.000   0.046   0.000  -0.000   1.106  -0.297   0.000  -0.040   0.000   0.000
  0.000   0.000   0.046  -0.000  -0.000  -0.000  -0.000  -0.024   0.000   0.000  -0.297   0.147   0.000   0.014  -0.000  -0.000
 -0.018  -0.030  -0.000  -0.010   0.005  -0.005  -0.022  -0.000   0.007   0.027   0.000   0.000   0.206   0.000  -0.000  -0.014
 -0.000   0.000  -0.005   0.000   0.000  -0.000  -0.000  -0.010   0.000   0.000  -0.040   0.014   0.000   0.219  -0.000  -0.000
  0.005   0.010  -0.000  -0.030   0.018   0.027  -0.007   0.000  -0.022   0.005   0.000  -0.000  -0.000  -0.000   0.206   0.000
  0.001   0.001   0.000   0.000  -0.000   0.000   0.002   0.000  -0.001  -0.004   0.000  -0.000  -0.014  -0.000   0.000   0.001
  0.000   0.000   0.000  -0.000  -0.000   0.000   0.000   0.001  -0.000  -0.000   0.004  -0.002  -0.000  -0.016   0.000   0.000
 -0.000  -0.000   0.000   0.001  -0.001  -0.004   0.001  -0.000   0.002  -0.000  -0.000   0.000  -0.000   0.000  -0.014  -0.000
 total augmentation occupancy for first ion, spin component:           2
  0.100   0.017   0.000  -0.007  -0.000  -0.053   0.007  -0.000   0.001  -0.001  -0.000   0.000   0.001   0.000   0.007  -0.000
  0.017   0.053   0.000  -0.000  -0.007   0.015  -0.042   0.000  -0.001  -0.001  -0.000   0.000   0.000   0.000  -0.005  -0.000
  0.000   0.000   0.702   0.000  -0.000  -0.000   0.000  -0.213   0.000   0.000  -0.023   0.053  -0.000   0.001   0.000  -0.000
 -0.007  -0.000   0.000   0.053  -0.017  -0.001   0.001   0.000  -0.042  -0.015   0.000  -0.000   0.005   0.000   0.000  -0.000
 -0.000  -0.007  -0.000  -0.017   0.100   0.001   0.001   0.000  -0.007  -0.053   0.000  -0.000   0.007  -0.000  -0.001   0.000
 -0.053   0.015  -0.000  -0.001   0.001  -0.006  -0.018   0.000   0.003  -0.000   0.000  -0.000   0.001  -0.000  -0.001  -0.000
  0.007  -0.042   0.000   0.001   0.001  -0.018  -0.019  -0.000   0.000   0.003   0.000  -0.000   0.001  -0.000   0.001  -0.000
 -0.000   0.000  -0.213   0.000   0.000   0.000  -0.000   0.049  -0.000  -0.000   0.011  -0.010   0.000  -0.000  -0.000  -0.000
  0.001  -0.001   0.000  -0.042  -0.007   0.003   0.000  -0.000  -0.019   0.018  -0.000   0.000  -0.001  -0.000   0.001   0.000
 -0.001  -0.001   0.000  -0.015  -0.053  -0.000   0.003  -0.000   0.018  -0.006  -0.000   0.000  -0.001   0.000  -0.001   0.000
 -0.000   0.000  -0.023   0.000   0.000   0.000   0.000   0.011  -0.000  -0.000   0.049   0.031   0.000  -0.001  -0.000   0.000
  0.000   0.000   0.053  -0.000  -0.000  -0.000  -0.000  -0.010   0.000   0.000   0.031  -0.014   0.000  -0.001   0.000   0.000
  0.001   0.000  -0.000   0.005   0.007   0.001   0.001   0.000  -0.001  -0.001   0.000   0.000   0.007   0.000  -0.000   0.001
  0.000   0.000   0.001  -0.000  -0.000  -0.000  -0.000  -0.000  -0.000   0.000  -0.001  -0.001   0.000   0.006  -0.000   0.000
  0.007  -0.005   0.000   0.000  -0.001  -0.001   0.001  -0.000   0.001  -0.001  -0.000   0.000  -0.000  -0.000   0.007   0.000
 -0.000  -0.000  -0.000  -0.000   0.000  -0.000  -0.000  -0.000   0.000   0.000  -0.000   0.000   0.001   0.000   0.000  -0.000
 -0.000  -0.000  -0.000   0.000   0.000   0.000   0.000   0.000   0.000  -0.000  -0.000   0.000   0.000   0.001  -0.000  -0.000
  0.000   0.000   0.000  -0.000   0.000   0.000  -0.000   0.000  -0.000   0.000   0.000  -0.000  -0.000  -0.000   0.001   0.000


------------------------ aborting loop because EDIFF is reached ----------------------------------------





 total charge     

# of ion       s       p       d       tot
------------------------------------------
    1        0.383   0.518   6.320   7.220
    2        0.383   0.518   6.321   7.222
    3        1.150   1.181   0.119   2.451
    4        0.736   0.901   0.000   1.638
    5        1.362   2.346   0.000   3.707
    6        1.355   2.364   0.000   3.719
    7        1.360   2.351   0.000   3.711
    8        1.371   2.309   0.000   3.681
    9        1.367   2.322   0.000   3.689
   10        1.371   2.309   0.000   3.680
--------------------------------------------------
tot         10.839  17.120  12.759  40.719



 magnetization (x)

# of ion       s       p       d       tot
------------------------------------------
    1        0.011   0.012   1.017   1.039
    2        0.011   0.012   1.014   1.036
    3       -0.007   0.013   0.001   0.006
    4       -0.001   0.011   0.000   0.010
    5       -0.001  -0.021   0.000  -0.022
    6       -0.001  -0.001   0.000  -0.002
    7       -0.001  -0.016   0.000  -0.017
    8       -0.002  -0.029   0.000  -0.031
    9       -0.001  -0.009   0.000  -0.010
   10       -0.002  -0.024   0.000  -0.026
--------------------------------------------------
tot          0.006  -0.053   2.031   1.985

    CHARGE:  cpu time    1.9520: real time    2.0215
    FORLOC:  cpu time    0.0640: real time    0.0632
    FORNL :  cpu time    6.8720: real time    6.9013
    STRESS:  cpu time   20.2280: real time   20.6255
    FORCOR:  cpu time   53.2280: real time   53.6198
    FORHAR:  cpu time    0.3200: real time    0.3511
    MIXING:  cpu time    0.0440: real time    0.0423
    OFIELD:  cpu time    0.0000: real time    0.0000

  FORCE on cell =-STRESS in cart. coord.  units (eV):
  Direction    XX          YY          ZZ          XY          YZ          ZX
  --------------------------------------------------------------------------------------
  Alpha Z    34.79533    34.79533    34.79533
  Ewald   11865.38115 11865.37871-13829.47388    -0.00199    -0.00054    -0.00096
  Hartree 12346.32707 12346.32777-12005.81088    -0.00032     0.00005     0.00007
  E(xc)    -236.85414  -236.85417  -235.71290     0.00004     0.00000     0.00001
  Local  -25103.26038-25103.26001 24917.99984     0.00182     0.00030     0.00056
  n-local   437.58105   437.60518   444.76251     0.02022     0.63294     0.71442
  augment   -28.69334   -28.69319   -38.31010     0.00013     0.00004     0.00001
  Kinetic   686.57754   683.05300   711.66523    -2.12531     1.61662     1.81795
  Fock        0.00000     0.00000     0.00000     0.00000     0.00000     0.00000
  -------------------------------------------------------------------------------------
  Total       0.10345     0.10345    -0.08486     0.00000    -0.00000    -0.00000
  in kB       0.25304     0.25304    -0.20757     0.00000    -0.00000    -0.00000
  external pressure =        0.10 kB  Pullay stress =        0.00 kB


 VOLUME and BASIS-vectors are now :
 -----------------------------------------------------------------------------
  energy-cutoff  :      520.00
  volume of cell :      655.03
      direct lattice vectors                 reciprocal lattice vectors
     5.889684422 -0.000000329 -0.000000000     0.169788378 -0.098027373  0.000000000
     2.944842222  5.100615964 -0.000000000     0.000000011  0.196054746 -0.000000000
    -0.000000000  0.000000000 21.804512766     0.000000000  0.000000000  0.045862066

  length of vectors
     5.889684422  5.889684111 21.804512766     0.196054736  0.196054746  0.045862066


 FORCES acting on ions
    electron-ion (+dipol)            ewald-force                    non-local-force                 convergence-correction
 -----------------------------------------------------------------------------------------------
   -.935E-04 -.683E-04 -.159E+02   0.659E-03 0.392E-03 0.161E+02   0.455E-17 -.363E-18 -.140E+00   0.169E-05 -.170E-05 -.266E-01
   0.111E-03 0.463E-04 -.131E+02   -.657E-03 -.391E-03 0.132E+02   0.592E-17 0.670E-17 -.918E-01   0.762E-06 -.172E-05 -.322E-01
   -.375E-04 -.296E-04 0.284E+03   -.209E-03 -.118E-03 -.279E+03   0.115E-15 -.360E-16 -.452E+01   -.123E-06 -.439E-07 0.800E-02
   0.439E-04 0.124E-05 -.252E+03   0.212E-03 0.119E-03 0.245E+03   -.161E-15 0.583E-16 0.640E+01   0.962E-08 0.170E-07 -.254E-01
   -.185E+02 0.355E+00 -.532E+03   0.150E+02 -.376E+00 0.537E+03   0.351E+01 0.172E-01 -.437E+01   -.939E-03 -.284E-02 -.463E-01
   0.957E+01 0.159E+02 -.532E+03   -.784E+01 -.128E+02 0.537E+03   -.174E+01 -.305E+01 -.437E+01   -.199E-02 0.223E-02 -.463E-01
   0.896E+01 -.162E+02 -.532E+03   -.719E+01 0.132E+02 0.537E+03   -.177E+01 0.303E+01 -.437E+01   0.293E-02 0.605E-03 -.463E-01
   0.314E+02 -.430E+00 0.531E+03   -.270E+02 0.443E+00 -.535E+03   -.435E+01 -.309E-02 0.402E+01   -.107E-02 -.615E-02 0.212E-01
   -.161E+02 -.270E+02 0.531E+03   0.139E+02 0.232E+02 -.535E+03   0.217E+01 0.377E+01 0.402E+01   -.479E-02 0.400E-02 0.212E-01
   -.153E+02 0.274E+02 0.531E+03   0.131E+02 -.236E+02 -.535E+03   0.218E+01 -.377E+01 0.402E+01   0.586E-02 0.215E-02 0.212E-01
 -----------------------------------------------------------------------------------------------
   0.519E-04 -.455E-04 -.466E+00   0.178E-14 0.711E-14 0.114E-12   0.222E-14 0.444E-15 0.607E+00   0.245E-05 -.339E-05 -.152E+00


 POSITION                                       TOTAL-FORCE (eV/Angst)
 -----------------------------------------------------------------------------------
      2.94484      1.70020     10.97602         0.000000      0.000000     -0.012662
      5.88969      3.40041     10.96825        -0.000000      0.000000      0.043568
     -0.00000      0.00000      9.77313         0.000000     -0.000000     -0.026537
     -0.00000      0.00000     12.08098        -0.000000      0.000000      0.046064
      3.76409     -0.00051     12.42273         0.011164     -0.005879     -0.015778
      1.06236      1.84108     12.42273        -0.010673     -0.006729     -0.015778
      4.00809      3.26005     12.42273        -0.000491      0.012607     -0.015778
      2.30307      0.00047      9.57820        -0.000383      0.003520     -0.001033
      1.79371      3.10586      9.57820         0.003240     -0.001428     -0.001033
      4.73774      1.99428      9.57820        -0.002856     -0.002092     -0.001033
 -----------------------------------------------------------------------------------
    total drift:                                0.000054     -0.000049     -0.009930


--------------------------------------------------------------------------------------------------------



  FREE ENERGIE OF THE ION-ELECTRON SYSTEM (eV)
  ---------------------------------------------------
  free  energy   TOTEN  =       -49.87945561 eV

  energy  without entropy=      -49.87945561  energy(sigma->0) =      -49.87945561

 d Force = 0.5559078E-03[-0.132E-03, 0.124E-02]  d Energy = 0.4784311E-03 0.775E-04
 d Force =-0.5032771E+01[-0.503E+01,-0.503E+01]  d Ewald  = 0.3396509E+01-0.843E+01


--------------------------------------------------------------------------------------------------------


    POTLOK:  cpu time   53.2320: real time   53.6631


--------------------------------------------------------------------------------------------------------




--------------------------------------------------------------------------------------------------------


  
 reached required accuracy - stopping structural energy minimisation
     LOOP+:  cpu time  620.6480: real time  627.4489
    4ORBIT:  cpu time    0.0000: real time    0.0000



 total charge     

# of ion       s       p       d       tot
------------------------------------------
    1        0.383   0.518   6.320   7.220
    2        0.383   0.518   6.321   7.222
    3        1.150   1.181   0.119   2.451
    4        0.736   0.901   0.000   1.638
    5        1.362   2.346   0.000   3.707
    6        1.355   2.364   0.000   3.719
    7        1.360   2.351   0.000   3.711
    8        1.371   2.309   0.000   3.681
    9        1.367   2.322   0.000   3.689
   10        1.371   2.309   0.000   3.680
--------------------------------------------------
tot         10.839  17.120  12.759  40.719



 magnetization (x)

# of ion       s       p       d       tot
------------------------------------------
    1        0.011   0.012   1.017   1.039
    2        0.011   0.012   1.014   1.036
    3       -0.007   0.013   0.001   0.006
    4       -0.001   0.011   0.000   0.010
    5       -0.001  -0.021   0.000  -0.022
    6       -0.001  -0.001   0.000  -0.002
    7       -0.001  -0.016   0.000  -0.017
    8       -0.002  -0.029   0.000  -0.031
    9       -0.001  -0.009   0.000  -0.010
   10       -0.002  -0.024   0.000  -0.026
--------------------------------------------------
tot          0.006  -0.053   2.031   1.985

 BZINTS: Fermi energy: -2.654802; 60.000000 electrons
         Band energy:-470.149405;  BLOECHL correction:  0.000000

 total amount of memory used by VASP MPI-rank0   132691. kBytes
=======================================================================

   base      :      30000. kBytes
   nonlr-proj:      10206. kBytes
   fftplans  :      11247. kBytes
   grid      :      68332. kBytes
   one-center:        311. kBytes
   wavefun   :      12595. kBytes

  
  
 General timing and accounting informations for this job:
 ========================================================
  
                  Total CPU time used (sec):    47294.922
                            User time (sec):    46183.952
                          System time (sec):     1110.968
                         Elapsed time (sec):    47654.848
  
                   Maximum memory used (kb):      407288.
                   Average memory used (kb):           0.
  
                          Minor page faults:     35183004
                          Major page faults:            7
                 Voluntary context switches:         1238
