 vasp.5.4.4.18Apr17-6-g9f103f2a35 (build May  1 2020 15:48:39) complex           
 executed on             LinuxGNU date 2020.07.07  05:11:49
 running on   16 total cores
 distrk:  each k-point on   16 cores,    1 groups
 distr:  one band on NCORES_PER_BAND=   1 cores,   16 groups


--------------------------------------------------------------------------------------------------------


 INCAR:
 POTCAR:   PAW_PBE Fe 06Sep2000                   
 POTCAR:   PAW_PBE Ge 05Jan2001                   
 POTCAR:   PAW_PBE Si 05Jan2001                   
 POTCAR:   PAW_PBE Se 06Sep2000                   

 ----------------------------------------------------------------------------- 
|                                                                             |
|           W    W    AA    RRRRR   N    N  II  N    N   GGGG   !!!           |
|           W    W   A  A   R    R  NN   N  II  NN   N  G    G  !!!           |
|           W    W  A    A  R    R  N N  N  II  N N  N  G       !!!           |
|           W WW W  AAAAAA  RRRRR   N  N N  II  N  N N  G  GGG   !            |
|           WW  WW  A    A  R   R   N   NN  II  N   NN  G    G                |
|           W    W  A    A  R    R  N    N  II  N    N   GGGG   !!!           |
|                                                                             |
|      For optimal performance we recommend to set                            |
|        NCORE= 4 - approx SQRT( number of cores)                             |
|      NCORE specifies how many cores store one orbital (NPAR=cpu/NCORE).     |
|      This setting can  greatly improve the performance of VASP for DFT.     |
|      The default,   NCORE=1            might be grossly inefficient         |
|      on modern multi-core architectures or massively parallel machines.     |
|      Do your own testing !!!!                                               |
|      Unfortunately you need to use the default for GW and RPA calculations. |
|      (for HF NCORE is supported but not extensively tested yet)             |
|                                                                             |
 ----------------------------------------------------------------------------- 


 ----------------------------------------------------------------------------- 
|                                                                             |
|  ADVICE TO THIS USER RUNNING 'VASP/VAMP'   (HEAR YOUR MASTER'S VOICE ...):  |
|                                                                             |
|      You have switched on vdW-DFT.                                          |
|      This routine was written and supplied by Jiri Klimes.                  |
|      We recommed that you carefully read and cite the following             |
|      publication                                                            |
|      J. Klimes, D.R. Bowler, A. Michelides                                  |
|        J. Phys.: Cond Matt. 22 022201 (2010)                                |
|      J. Klimes, D.R. Bowler, A. Michelides                                  |
|        Phys. Rev. B. 83, 195131 (2011)                                      |
|      and references therein.                                                |
|                                                                             |
 ----------------------------------------------------------------------------- 

 POTCAR:   PAW_PBE Fe 06Sep2000                   
   VRHFIN =Fe:  d7 s1                                                           
   LEXCH  = PE                                                                  
   EATOM  =   594.4687 eV,   43.6922 Ry                                         
                                                                                
   TITEL  = PAW_PBE Fe 06Sep2000                                                
   LULTRA =        F    use ultrasoft PP ?                                      
   IUNSCR =        1    unscreen: 0-lin 1-nonlin 2-no                           
   RPACOR =    2.000    partial core radius                                     
   POMASS =   55.847; ZVAL   =    8.000    mass and valenz                      
   RCORE  =    2.300    outmost cutoff radius                                   
   RWIGS  =    2.460; RWIGS  =    1.302    wigner-seitz radius (au A)           
   ENMAX  =  267.883; ENMIN  =  200.912 eV                                      
   RCLOC  =    1.701    cutoff for local pot                                    
   LCOR   =        T    correct aug charges                                     
   LPAW   =        T    paw PP                                                  
   EAUG   =  511.368                                                            
   DEXC   =    -.022                                                            
   RMAX   =    2.817    core radius for proj-oper                               
   RAUG   =    1.300    factor for augmentation sphere                          
   RDEP   =    2.442    radius for radial grids                                 
   QCUT   =   -4.437; QGAM   =    8.874    optimization parameters              
                                                                                
   Description                                                                  
     l     E      TYP  RCUT    TYP  RCUT                                        
     2   .000     23  2.300                                                     
     2   .000     23  2.300                                                     
     0   .000     23  2.300                                                     
     0   .000     23  2.300                                                     
     1  -.200     23  2.300                                                     
     1   .000     23  2.300                                                     
     3   .000      7   .000                                                     
  local pseudopotential read in
  partial core-charges read in
  atomic valenz-charges read in
  non local Contribution for L=           2  read in
    real space projection operators read in
  non local Contribution for L=           2  read in
    real space projection operators read in
  non local Contribution for L=           0  read in
    real space projection operators read in
  non local Contribution for L=           0  read in
    real space projection operators read in
  non local Contribution for L=           1  read in
    real space projection operators read in
  non local Contribution for L=           1  read in
    real space projection operators read in
    PAW grid and wavefunctions read in

   number of l-projection  operators is LMAX  =           6
   number of lm-projection operators is LMMAX =          18

 POTCAR:   PAW_PBE Ge 05Jan2001                   
   VRHFIN =Ge: s2p2                                                             
   LEXCH  = PE                                                                  
   EATOM  =   104.9960 eV,    7.7170 Ry                                         
                                                                                
   TITEL  = PAW_PBE Ge 05Jan2001                                                
   LULTRA =        F    use ultrasoft PP ?                                      
   IUNSCR =        1    unscreen: 0-lin 1-nonlin 2-no                           
   RPACOR =    2.170    partial core radius                                     
   POMASS =   72.610; ZVAL   =    4.000    mass and valenz                      
   RCORE  =    2.300    outmost cutoff radius                                   
   RWIGS  =    2.300; RWIGS  =    1.217    wigner-seitz radius (au A)           
   ENMAX  =  173.807; ENMIN  =  130.355 eV                                      
   ICORE  =        3    local potential                                         
   LCOR   =        T    correct aug charges                                     
   LPAW   =        T    paw PP                                                  
   EAUG   =  385.843                                                            
   DEXC   =    -.138                                                            
   RMAX   =    3.497    core radius for proj-oper                               
   RAUG   =    1.300    factor for augmentation sphere                          
   RDEP   =    2.318    radius for radial grids                                 
   QCUT   =   -3.574; QGAM   =    7.148    optimization parameters              
                                                                                
   Description                                                                  
     l     E      TYP  RCUT    TYP  RCUT                                        
     0   .000     23  2.300                                                     
     0   .000     23  2.300                                                     
     1   .000     23  2.300                                                     
     1   .000     23  2.300                                                     
     2   .000     23  2.300                                                     
     3  -.100      7  2.300                                                     
  local pseudopotential read in
  partial core-charges read in
  atomic valenz-charges read in
  non local Contribution for L=           0  read in
    real space projection operators read in
  non local Contribution for L=           0  read in
    real space projection operators read in
  non local Contribution for L=           1  read in
    real space projection operators read in
  non local Contribution for L=           1  read in
    real space projection operators read in
  non local Contribution for L=           2  read in
    real space projection operators read in
    PAW grid and wavefunctions read in

   number of l-projection  operators is LMAX  =           5
   number of lm-projection operators is LMMAX =          13

 POTCAR:   PAW_PBE Si 05Jan2001                   
   VRHFIN =Si: s2p2                                                             
   LEXCH  = PE                                                                  
   EATOM  =   103.0669 eV,    7.5752 Ry                                         
                                                                                
   TITEL  = PAW_PBE Si 05Jan2001                                                
   LULTRA =        F    use ultrasoft PP ?                                      
   IUNSCR =        1    unscreen: 0-lin 1-nonlin 2-no                           
   RPACOR =    1.500    partial core radius                                     
   POMASS =   28.085; ZVAL   =    4.000    mass and valenz                      
   RCORE  =    1.900    outmost cutoff radius                                   
   RWIGS  =    2.480; RWIGS  =    1.312    wigner-seitz radius (au A)           
   ENMAX  =  245.345; ENMIN  =  184.009 eV                                      
   ICORE  =        2    local potential                                         
   LCOR   =        T    correct aug charges                                     
   LPAW   =        T    paw PP                                                  
   EAUG   =  322.069                                                            
   DEXC   =    -.007                                                            
   RMAX   =    2.944    core radius for proj-oper                               
   RAUG   =    1.300    factor for augmentation sphere                          
   RDEP   =    1.993    radius for radial grids                                 
   QCUT   =   -4.246; QGAM   =    8.493    optimization parameters              
                                                                                
   Description                                                                  
     l     E      TYP  RCUT    TYP  RCUT                                        
     0   .000     23  1.900                                                     
     0   .000     23  1.900                                                     
     1   .000     23  1.900                                                     
     1   .000     23  1.900                                                     
     2   .000      7  1.900                                                     
  local pseudopotential read in
  partial core-charges read in
  atomic valenz-charges read in
  non local Contribution for L=           0  read in
    real space projection operators read in
  non local Contribution for L=           0  read in
    real space projection operators read in
  non local Contribution for L=           1  read in
    real space projection operators read in
  non local Contribution for L=           1  read in
    real space projection operators read in
    PAW grid and wavefunctions read in

   number of l-projection  operators is LMAX  =           4
   number of lm-projection operators is LMMAX =           8

 POTCAR:   PAW_PBE Se 06Sep2000                   
   VRHFIN =Se: s2p4                                                             
   LEXCH  = PE                                                                  
   EATOM  =   256.9644 eV,   18.8864 Ry                                         
                                                                                
   TITEL  = PAW_PBE Se 06Sep2000                                                
   LULTRA =        F    use ultrasoft PP ?                                      
   IUNSCR =        1    unscreen: 0-lin 1-nonlin 2-no                           
   RPACOR =    1.900    partial core radius                                     
   POMASS =   78.960; ZVAL   =    6.000    mass and valenz                      
   RCORE  =    2.100    outmost cutoff radius                                   
   RWIGS  =    2.200; RWIGS  =    1.164    wigner-seitz radius (au A)           
   ENMAX  =  211.534; ENMIN  =  158.651 eV                                      
   ICORE  =        3    local potential                                         
   LCOR   =        T    correct aug charges                                     
   LPAW   =        T    paw PP                                                  
   EAUG   =  446.842                                                            
   DEXC   =    -.031                                                            
   RMAX   =    3.170    core radius for proj-oper                               
   RAUG   =    1.300    factor for augmentation sphere                          
   RDEP   =    2.177    radius for radial grids                                 
   QCUT   =   -3.943; QGAM   =    7.886    optimization parameters              
                                                                                
   Description                                                                  
     l     E      TYP  RCUT    TYP  RCUT                                        
     0   .000     23  2.100                                                     
     0   .000     23  2.100                                                     
     1   .000     23  2.100                                                     
     1   .000     23  2.100                                                     
     2   .000     23  2.100                                                     
     3  -.100      7  2.100                                                     
  local pseudopotential read in
  partial core-charges read in
  atomic valenz-charges read in
  non local Contribution for L=           0  read in
    real space projection operators read in
  non local Contribution for L=           0  read in
    real space projection operators read in
  non local Contribution for L=           1  read in
    real space projection operators read in
  non local Contribution for L=           1  read in
    real space projection operators read in
  non local Contribution for L=           2  read in
    real space projection operators read in
    PAW grid and wavefunctions read in

   number of l-projection  operators is LMAX  =           5
   number of lm-projection operators is LMMAX =          13

 Optimization of the real space projectors (new method)

 maximal supplied QI-value         = 16.25
 optimisation between [QCUT,QGAM] = [ 11.54, 23.24] = [ 37.28,151.24] Ry 
 Optimized for a Real-space Cutoff    1.53 Angstroem

   l    n(q)    QCUT    max X(q) W(low)/X(q) W(high)/X(q)  e(spline) 
   2     10    11.539     4.378    0.86E-05    0.15E-04    0.46E-07
   2     10    11.539    23.237    0.11E-03    0.14E-03    0.22E-06
   0     11    11.539    17.641    0.19E-04    0.14E-05    0.18E-07
   0     11    11.539    50.908    0.43E-04    0.16E-04    0.30E-06
   1     10    11.539     6.148    0.11E-04    0.38E-05    0.26E-07
   1     10    11.539     8.345    0.44E-04    0.25E-04    0.11E-06
 Optimization of the real space projectors (new method)

 maximal supplied QI-value         = 16.25
 optimisation between [QCUT,QGAM] = [ 11.54, 23.24] = [ 37.28,151.24] Ry 
 Optimized for a Real-space Cutoff    1.28 Angstroem

   l    n(q)    QCUT    max X(q) W(low)/X(q) W(high)/X(q)  e(spline) 
   0      9    11.539     8.651    0.22E-04    0.16E-04    0.10E-07
   0      9    11.539    33.192    0.11E-03    0.16E-03    0.65E-07
   1      8    11.539     5.899    0.37E-04    0.28E-04    0.43E-07
   1      8    11.539    27.289    0.22E-03    0.28E-04    0.14E-06
   2      8    11.539     4.673    0.11E-03    0.18E-03    0.58E-07
 Optimization of the real space projectors (new method)

 maximal supplied QI-value         = 19.84
 optimisation between [QCUT,QGAM] = [ 11.51, 23.22] = [ 37.09,150.92] Ry 
 Optimized for a Real-space Cutoff    1.21 Angstroem

   l    n(q)    QCUT    max X(q) W(low)/X(q) W(high)/X(q)  e(spline) 
   0      8    11.508     8.708    0.18E-04    0.44E-05    0.47E-08
   0      8    11.508   106.241    0.70E-04    0.15E-03    0.51E-07
   1      8    11.508     5.901    0.63E-05    0.23E-04    0.21E-07
   1      8    11.508    73.241    0.15E-03    0.36E-04    0.79E-07
 Optimization of the real space projectors (new method)

 maximal supplied QI-value         = 17.95
 optimisation between [QCUT,QGAM] = [ 11.67, 23.34] = [ 38.13,152.52] Ry 
 Optimized for a Real-space Cutoff    1.25 Angstroem

   l    n(q)    QCUT    max X(q) W(low)/X(q) W(high)/X(q)  e(spline) 
   0      9    11.669     6.499    0.13E-04    0.81E-05    0.11E-07
   0      9    11.669    52.623    0.18E-03    0.46E-04    0.72E-07
   1      8    11.669     4.229    0.40E-04    0.45E-04    0.31E-07
   1      8    11.669    29.991    0.22E-03    0.36E-03    0.10E-06
   2      8    11.669     3.719    0.19E-03    0.46E-04    0.50E-07

 ----------------------------------------------------------------------------- 
|                                                                             |
|  ADVICE TO THIS USER RUNNING 'VASP/VAMP'   (HEAR YOUR MASTER'S VOICE ...):  |
|                                                                             |
|      You enforced a specific xc-type in the INCAR file,                     |
|      a different type was found on the POTCAR file                          |
|          I HOPE YOU KNOW, WHAT YOU ARE  DOING                               |
|                                                                             |
 ----------------------------------------------------------------------------- 

 PAW_PBE Fe 06Sep2000                   :
 energy of atom  1       EATOM= -594.4687
 kinetic energy error for atom=    0.0026 (will be added to EATOM!!)
 PAW_PBE Ge 05Jan2001                   :
 energy of atom  2       EATOM= -104.9960
 kinetic energy error for atom=    0.0002 (will be added to EATOM!!)
 PAW_PBE Si 05Jan2001                   :
 energy of atom  3       EATOM= -103.0669
 kinetic energy error for atom=    0.0005 (will be added to EATOM!!)
 PAW_PBE Se 06Sep2000                   :
 energy of atom  4       EATOM= -256.9644
 kinetic energy error for atom=    0.0007 (will be added to EATOM!!)


 POSCAR: Fe2 Ge Si Se6                           
  positions in direct lattice
  velocities in cartesian coordinates
  No initial velocities read in
 exchange correlation table for  LEXCH =       42
   RHO(1)=    0.500       N(1)  =     2000
   RHO(2)=  100.500       N(2)  =     4000



--------------------------------------------------------------------------------------------------------


 ion  position               nearest neighbor table
   1  0.333  0.333  0.500-   6 2.78   5 2.78   7 2.78   8 2.78  10 2.78   9 2.78
   2  0.667  0.667  0.500-   9 2.78   8 2.78  10 2.78   5 2.78   7 2.78   6 2.78
   3  0.000  0.000  0.448-   4 2.43   8 2.63  10 2.63   9 2.63
   4  0.000  0.000  0.552-   3 2.43   5 2.63   7 2.63   6 2.63
   5  0.626  0.000  0.574-   4 2.63   1 2.78   2 2.78
   6  0.000  0.373  0.574-   4 2.63   1 2.78   2 2.78
   7  0.373  0.626  0.574-   4 2.63   1 2.78   2 2.78
   8  0.374  1.000  0.426-   3 2.63   2 2.78   1 2.78
   9  1.000  0.627  0.426-   3 2.63   2 2.78   1 2.78
  10  0.627  0.374  0.426-   3 2.63   2 2.78   1 2.78

  LATTYP: Found a hexagonal cell.
 ALAT       =     6.9077769333
 C/A-ratio  =     3.3939410937
  
  Lattice vectors:
  
 A1 = (   3.4538890000,  -5.9823100000,   0.0000000000)
 A2 = (  -6.9077770000,   0.0000000000,   0.0000000000)
 A3 = (   0.0000000000,   0.0000000000, -23.4445880000)


Analysis of symmetry for initial positions (statically):
=====================================================================
 Subroutine PRICEL returns:
 Original cell was already a primitive cell.
 

 Routine SETGRP: Setting up the symmetry group for a 
 hexagonal supercell.


 Subroutine GETGRP returns: Found  3 space group operations
 (whereof  3 operations were pure point group operations)
 out of a pool of 24 trial point group operations.


The static configuration has the point symmetry C_3 .


Analysis of symmetry for dynamics (positions and initial velocities):
=====================================================================
 Subroutine PRICEL returns:
 Original cell was already a primitive cell.
 

 Routine SETGRP: Setting up the symmetry group for a 
 hexagonal supercell.


 Subroutine GETGRP returns: Found  3 space group operations
 (whereof  3 operations were pure point group operations)
 out of a pool of 24 trial point group operations.


The dynamic configuration has the point symmetry C_3 .


Analysis of constrained symmetry for selective dynamics:
=====================================================================
 Subroutine PRICEL returns:
 Original cell was already a primitive cell.
 

 Routine SETGRP: Setting up the symmetry group for a 
 hexagonal supercell.


 Subroutine GETGRP returns: Found  3 space group operations
 (whereof  3 operations were pure point group operations)
 out of a pool of 24 trial point group operations.


The constrained configuration has the point symmetry C_3 .


Analysis of structural, dynamic, and magnetic symmetry:
=====================================================================
 Subroutine PRICEL returns:
 Original cell was already a primitive cell.
 

 Routine SETGRP: Setting up the symmetry group for a 
 hexagonal supercell.


 Subroutine GETGRP returns: Found  3 space group operations
 (whereof  3 operations were pure point group operations)
 out of a pool of 24 trial point group operations.


The magnetic configuration has the point symmetry C_3 .


 Subroutine INISYM returns: Found  3 space group operations
 (whereof  3 operations are pure point group operations),
 and found     1 'primitive' translations



 KPOINTS: Kpoints from vasprun.xml                

Automatic generation of k-mesh.
Space group operators:
 irot       det(A)        alpha          n_x          n_y          n_z        tau_x        tau_y        tau_z
    1     1.000000     0.000000     1.000000     0.000000     0.000000     0.000000     0.000000     0.000000
    2     1.000000   120.000000     0.000000     0.000000     1.000000     0.000000     0.000000     0.000000
    3     1.000000   120.000000     0.000000     0.000000    -1.000000     0.000000     0.000000     0.000000
 
 Subroutine IBZKPT returns following result:
 ===========================================
 
 Found      5 irreducible k-points:
 
 Following reciprocal coordinates:
            Coordinates               Weight
  0.000000  0.000000  0.000000      1.000000
  0.200000  0.000000  0.000000      6.000000
  0.400000  0.000000  0.000000      6.000000
  0.400000  0.200000  0.000000      6.000000
 -0.400000  0.200000  0.000000      6.000000
 
 Following cartesian coordinates:
            Coordinates               Weight
  0.000000  0.000000  0.000000      1.000000
  0.028953 -0.016716  0.000000      6.000000
  0.057906 -0.033432  0.000000      6.000000
  0.057906  0.000000  0.000000      6.000000
 -0.057906  0.066864  0.000000      6.000000
 
 TETIRR: Found     15 inequivalent tetrahedra from      150


--------------------------------------------------------------------------------------------------------




 Dimension of arrays:
   k-points           NKPTS =      5   k-points in BZ     NKDIM =      5   number of bands    NBANDS=     48
   number of dos      NEDOS =    301   number of ions     NIONS =     10
   non local maximal  LDIM  =      6   non local SUM 2l+1 LMDIM =     18
   total plane-waves  NPLWV = 524880
   max r-space proj   IRMAX =   8238   max aug-charges    IRDMAX=  29641
   dimension x,y,z NGX =    54 NGY =   54 NGZ =  180
   dimension x,y,z NGXF=   108 NGYF=  108 NGZF=  360
   support grid    NGXF=   108 NGYF=  108 NGZF=  360
   ions per type =               2   1   1   6
   NGX,Y,Z   is equivalent  to a cutoff of  13.00, 13.00, 12.76 a.u.
   NGXF,Y,Z  is equivalent  to a cutoff of  25.99, 25.99, 25.53 a.u.

 SYSTEM =  unknown system                          
 POSCAR =  Fe2 Ge Si Se6                           

 Startparameter for this run:
   NWRITE =      2    write-flag & timer
   PREC   = accura    normal or accurate (medium, high low for compatibility)
   ISTART =      0    job   : 0-new  1-cont  2-samecut
   ICHARG =      2    charge: 1-file 2-atom 10-const
   ISPIN  =      2    spin polarized calculation?
   LNONCOLLINEAR =      F non collinear calculations
   LSORBIT =      F    spin-orbit coupling
   INIWAV =      1    electr: 0-lowe 1-rand  2-diag
   LASPH  =      F    aspherical Exc in radial PAW
   METAGGA=      F    non-selfconsistent MetaGGA calc.

 Electronic Relaxation 1
   ENCUT  =  520.0 eV  38.22 Ry    6.18 a.u.  12.84 12.84 43.59*2*pi/ulx,y,z
   ENINI  =  520.0     initial cutoff
   ENAUG  =  511.4 eV  augmentation charge cutoff
   NELM   =    400;   NELMIN=  2; NELMDL=  0     # of ELM steps 
   EDIFF  = 0.1E-03   stopping-criterion for ELM
   LREAL  =      T    real-space projection
   NLSPLINE    = F    spline interpolate recip. space projectors
   LCOMPAT=      F    compatible to vasp.4.4
   GGA_COMPAT  = T    GGA compatible to vasp.4.4-vasp.4.6
   LMAXPAW     = -100 max onsite density
   LMAXMIX     =    2 max onsite mixed and CHGCAR
   VOSKOWN=      0    Vosko Wilk Nusair interpolation
   ROPT   =   -0.00025  -0.00025  -0.00025  -0.00025
 Ionic relaxation
   EDIFFG = 0.1E-02   stopping-criterion for IOM
   NSW    =     99    number of steps for IOM
   NBLOCK =      1;   KBLOCK =     99    inner block; outer block 
   IBRION =      2    ionic relax: 0-MD 1-quasi-New 2-CG
   NFREE  =      1    steps in history (QN), initial steepest desc. (CG)
   ISIF   =      3    stress and relaxation
   IWAVPR =     11    prediction:  0-non 1-charg 2-wave 3-comb
   ISYM   =      2    0-nonsym 1-usesym 2-fastsym
   LCORR  =      T    Harris-Foulkes like correction to forces

   POTIM  = 0.5000    time-step for ionic-motion
   TEIN   =    0.0    initial temperature
   TEBEG  =    0.0;   TEEND  =   0.0 temperature during run
   SMASS  =  -3.00    Nose mass-parameter (am)
   estimated Nose-frequenzy (Omega)   =  0.10E-29 period in steps =****** mass=  -0.109E-26a.u.
   SCALEE = 1.0000    scale energy and forces
   NPACO  =    256;   APACO  = 16.0  distance and # of slots for P.C.
   PSTRESS=    0.0 pullay stress

  Mass of Ions in am
   POMASS =  55.85 72.61 28.09 78.96
  Ionic Valenz
   ZVAL   =   8.00  4.00  4.00  6.00
  Atomic Wigner-Seitz radii
   RWIGS  =  -1.00 -1.00 -1.00 -1.00
  virtual crystal weights 
   VCA    =   1.00  1.00  1.00  1.00
   NELECT =      60.0000    total number of electrons
   NUPDOWN=      -1.0000    fix difference up-down

 DOS related values:
   EMIN   =  10.00;   EMAX   =-10.00  energy-range for DOS
   EFERMI =   0.00
   ISMEAR =    -5;   SIGMA  =   0.05  broadening in eV -4-tet -1-fermi 0-gaus

 Electronic relaxation 2 (details)
   IALGO  =     38    algorithm
   LDIAG  =      T    sub-space diagonalisation (order eigenvalues)
   LSUBROT=      F    optimize rotation matrix (better conditioning)
   TURBO    =      0    0=normal 1=particle mesh
   IRESTART =      0    0=no restart 2=restart with 2 vectors
   NREBOOT  =      0    no. of reboots
   NMIN     =      0    reboot dimension
   EREF     =   0.00    reference energy to select bands
   IMIX   =      4    mixing-type and parameters
     AMIX     =   0.40;   BMIX     =  1.00
     AMIX_MAG =   1.60;   BMIX_MAG =  1.00
     AMIN     =   0.01
     WC   =   100.;   INIMIX=   1;  MIXPRE=   1;  MAXMIX= -45

 Intra band minimization:
   WEIMIN = 0.0010     energy-eigenvalue tresh-hold
   EBREAK =  0.52E-06  absolut break condition
   DEPER  =   0.30     relativ break condition  

   TIME   =   0.40     timestep for ELM

  volume/ion in A,a.u.               =      96.88       653.80
  Fermi-wavevector in a.u.,A,eV,Ry     =   0.647702  1.223979  5.707889  0.419518
  Thomas-Fermi vector in A             =   1.716096

 Write flags
   LWAVE        =      F    write WAVECAR
   LDOWNSAMPLE  =      F    k-point downsampling of WAVECAR
   LCHARG       =      T    write CHGCAR
   LVTOT        =      F    write LOCPOT, total local potential
   LVHAR        =      F    write LOCPOT, Hartree potential only
   LELF         =      F    write electronic localiz. function (ELF)
   LORBIT       =     11    0 simple, 1 ext, 2 COOP (PROOUT), +10 PAW based schemes


 Dipole corrections
   LMONO  =      F    monopole corrections only (constant potential shift)
   LDIPOL =      F    correct potential (dipole corrections)
   IDIPOL =      0    1-x, 2-y, 3-z, 4-all directions 
   EPSILON=  1.0000000 bulk dielectric constant

 Exchange correlation treatment:
   GGA     =    BO    GGA type
   LEXCH   =    42    internal setting for exchange type
   VOSKOWN=      0    Vosko Wilk Nusair interpolation
   LHFCALC =     F    Hartree Fock is set to
   LHFONE  =     F    Hartree Fock one center treatment
   AEXX    =    0.0000 exact exchange contribution

 vdW DFT:
   LUSE_VDW   =     T    switch on vdW DFT
   Zab_VDW    =-.8491    correlation parameter
   PARAM1     =0.1833
   PARAM2     =0.2200
   PARAM3     =0.0000
   -- rVV10 --
   BPARAM     = 6.3000
   CPARAM     = 0.0093

 Linear response parameters
   LEPSILON=     F    determine dielectric tensor
   LRPA    =     F    only Hartree local field effects (RPA)
   LNABLA  =     F    use nabla operator in PAW spheres
   LVEL    =     F    velocity operator in full k-point grid
   LINTERFAST=   F  fast interpolation
   KINTER  =     0    interpolate to denser k-point grid
   CSHIFT  =0.1000    complex shift for real part using Kramers Kronig
   OMEGAMAX=  -1.0    maximum frequency
   DEG_THRESHOLD= 0.2000000E-02 threshold for treating states as degnerate
   RTIME   =   -0.100 relaxation time in fs
  (WPLASMAI=    0.000 imaginary part of plasma frequency in eV, 0.658/RTIME)
   DFIELD  = 0.0000000 0.0000000 0.0000000 field for delta impulse in time

 Orbital magnetization related:
   ORBITALMAG=     F  switch on orbital magnetization
   LCHIMAG   =     F  perturbation theory with respect to B field
   DQ        =  0.001000  dq finite difference perturbation B field
   LLRAUG    =     F  two centre corrections for induced B field



--------------------------------------------------------------------------------------------------------


 conjugate gradient relaxation of ions
   using selective dynamics as specified on POSCAR
 charge density and potential will be updated during run
 spin polarized calculation
 Variant of blocked Davidson
 Davidson routine will perform the subspace rotation
 perform sub-space diagonalisation
    after iterative eigenvector-optimisation
 modified Broyden-mixing scheme, WC =      100.0
 initial mixing is a Kerker type mixing with AMIX =  0.4000 and BMIX =      1.0000
 Hartree-type preconditioning will be used
 using additional bands           18
 real space projection scheme for non local part
 use partial core corrections
 calculate Harris-corrections to forces   (improved forces if not selfconsistent)
 use gradient corrections 
 use of overlap-Matrix (Vanderbilt PP)
 Fermi weights with tetrahedron method with Bloechl corrections


--------------------------------------------------------------------------------------------------------


  energy-cutoff  :      520.00
  volume of cell :      968.84
      direct lattice vectors                 reciprocal lattice vectors
     6.907777000 -0.000000000  0.000000000     0.144764372 -0.083579742  0.000000000
     3.453888000  5.982310000  0.000000000     0.000000000  0.167159509 -0.000000000
     0.000000000  0.000000000 23.444588000    -0.000000000  0.000000000  0.042653767

  length of vectors
     6.907777000  6.907776433 23.444588000     0.167159495  0.167159509  0.042653767



 k-points in units of 2pi/SCALE and weight: Kpoints from vasprun.xml                
   0.00000000  0.00000000  0.00000000       0.040
   0.02895287 -0.01671595  0.00000000       0.240
   0.05790575 -0.03343190  0.00000000       0.240
   0.05790575  0.00000000  0.00000000       0.240
  -0.05790575  0.06686380  0.00000000       0.240

 k-points in reciprocal lattice and weights: Kpoints from vasprun.xml                
   0.00000000  0.00000000  0.00000000       0.040
   0.20000000  0.00000000  0.00000000       0.240
   0.40000000  0.00000000  0.00000000       0.240
   0.40000000  0.20000000  0.00000000       0.240
  -0.40000000  0.20000000  0.00000000       0.240

 position of ions in fractional coordinates (direct lattice) 
   0.33333300  0.33333300  0.49992500
   0.66666700  0.66666700  0.50007500
   0.00000000  0.00000000  0.44821600
   0.00000000  0.00000000  0.55178400
   0.62635700  0.00042000  0.57375200
   0.00042000  0.37322400  0.57375200
   0.37322400  0.62635700  0.57375200
   0.37364300  0.99958000  0.42624800
   0.99958000  0.62677600  0.42624800
   0.62677600  0.37364300  0.42624800

 position of ions in cartesian coordinates  (Angst):
   3.45388488  1.99410134 11.72053566
   6.90778012  3.98820866 11.72405234
   0.00000000  0.00000000 10.50823946
   0.00000000  0.00000000 12.93634854
   4.32818511  0.00251257 13.45137925
   1.29197516  2.23274167 13.45137925
   4.74151509  3.74706174 13.45137925
   6.03347989  5.97979743  9.99320875
   9.06968984  3.74956833  9.99320875
   5.62014991  2.23524826  9.99320875



--------------------------------------------------------------------------------------------------------


 k-point  1 :   0.0000 0.0000 0.0000  plane waves:   26073
 k-point  2 :   0.2000 0.0000 0.0000  plane waves:   26070
 k-point  3 :   0.4000 0.0000 0.0000  plane waves:   26086
 k-point  4 :   0.4000 0.2000 0.0000  plane waves:   26085
 k-point  5 :  -0.4000 0.2000 0.0000  plane waves:   26115

 maximum and minimum number of plane-waves per node :     26115    26070

 maximum number of plane-waves:     26115
 maximum index in each direction: 
   IXMAX=   13   IYMAX=   12   IZMAX=   43
   IXMIN=  -13   IYMIN=  -13   IZMIN=  -43


 serial   3D FFT for wavefunctions
 parallel 3D FFT for charge:
    minimum data exchange during FFTs selected (reduces bandwidth)


 total amount of memory used by VASP MPI-rank0   130152. kBytes
=======================================================================

   base      :      30000. kBytes
   nonlr-proj:       7652. kBytes
   fftplans  :      11247. kBytes
   grid      :      68332. kBytes
   one-center:        311. kBytes
   wavefun   :      12610. kBytes

     INWAV:  cpu time    0.0000: real time    0.0000
 Broyden mixing: mesh for mixing (old mesh)
   NGX = 25   NGY = 25   NGZ = 87
  (NGX  =108   NGY  =108   NGZ  =360)
  gives a total of  54375 points

 initial charge density was supplied:
 charge density of overlapping atoms calculated
 number of electron      60.0000000 magnetization       7.2600000
 keeping initial charge density in first step


--------------------------------------------------------------------------------------------------------


 Maximum index for non-local projection operator         7925
 Maximum index for augmentation-charges         2133 (set IRDMAX)


--------------------------------------------------------------------------------------------------------


 First call to EWALD:  gamma=   0.179
 Maximum number of real-space cells 4x 4x 1
 Maximum number of reciprocal cells 2x 2x 6

    FEWALD:  cpu time    0.0040: real time    0.0015


--------------------------------------- Iteration      1(   1)  ---------------------------------------


vdW kernel read from vdw_kernel.bindat
  0.0000  0.2424  0.5071  0.7962  1.1119  1.4567  1.8333  2.2446  2.6937  3.1842
  3.7199  4.3049  4.9438  5.6415  6.4036  7.2358  8.1446  9.1372 10.2212 11.4050
 12.6979 14.1099 15.6519 17.3360 19.1751 21.1837 23.3773 25.7729 28.3892 31.2465
 34.3669 37.7748 41.4965 45.5611 50.0000

    POTLOK:  cpu time   51.9880: real time   52.2337
    SETDIJ:  cpu time    0.0480: real time    0.0455
     EDDAV:  cpu time   22.6600: real time   22.8874
 BZINTS: Fermi energy:  5.055821; 60.000000 electrons
         Band energy: -28.308347;  BLOECHL correction: -0.036537
       DOS:  cpu time    0.0080: real time    0.0070
    --------------------------------------------
      LOOP:  cpu time   74.7040: real time   75.1735

 eigenvalue-minimisations  :   960
 total energy-change (2. order) : 0.4034761E+03  (-0.1760490E+04)
 number of electron      60.0000000 magnetization       7.2600000
 augmentation part       60.0000000 magnetization       7.2600000

 Free energy of the ion-electron system (eV)
  ---------------------------------------------------
  alpha Z        PSCENC =        35.76143845
  Ewald energy   TEWEN  =      7005.02028753
  -Hartree energ DENC   =     -9648.35596616
  -exchange      EXHF   =         0.00000000
  -V(xc)+E(xc)   XCENC  =       -21.02914614
  PAW double counting   =      1665.20172197    -1558.28654582
  entropy T*S    EENTRO =         0.00000000
  eigenvalues    EBANDS =       -28.30834720
  atomic energy  EATOM  =      2953.47265105
  Solvation  Ediel_sol  =         0.00000000
  ---------------------------------------------------
  free energy    TOTEN  =       403.47609368 eV

  energy without entropy =      403.47609368  energy(sigma->0) =      403.47609368


--------------------------------------------------------------------------------------------------------




--------------------------------------- Iteration      1(   2)  ---------------------------------------


     EDDAV:  cpu time   29.1000: real time   29.2993
 BZINTS: Fermi energy: -1.338368; 60.000000 electrons
         Band energy:-411.265467;  BLOECHL correction: -0.068690
       DOS:  cpu time    0.0040: real time    0.0066
    --------------------------------------------
      LOOP:  cpu time   29.1040: real time   29.3058

 eigenvalue-minimisations  :  1264
 total energy-change (2. order) :-0.3829571E+03  (-0.3577398E+03)
 number of electron      60.0000000 magnetization       7.2600000
 augmentation part       60.0000000 magnetization       7.2600000

 Free energy of the ion-electron system (eV)
  ---------------------------------------------------
  alpha Z        PSCENC =        35.76143845
  Ewald energy   TEWEN  =      7005.02028753
  -Hartree energ DENC   =     -9648.35596616
  -exchange      EXHF   =         0.00000000
  -V(xc)+E(xc)   XCENC  =       -21.02914614
  PAW double counting   =      1665.20172197    -1558.28654582
  entropy T*S    EENTRO =         0.00000000
  eigenvalues    EBANDS =      -411.26546721
  atomic energy  EATOM  =      2953.47265105
  Solvation  Ediel_sol  =         0.00000000
  ---------------------------------------------------
  free energy    TOTEN  =        20.51897368 eV

  energy without entropy =       20.51897368  energy(sigma->0) =       20.51897368


--------------------------------------------------------------------------------------------------------




--------------------------------------- Iteration      1(   3)  ---------------------------------------


     EDDAV:  cpu time   28.8080: real time   29.5387
 BZINTS: Fermi energy: -2.624827; 60.000000 electrons
         Band energy:-477.173368;  BLOECHL correction: -0.024237
       DOS:  cpu time    0.0080: real time    0.0049
    --------------------------------------------
      LOOP:  cpu time   28.8160: real time   29.5436

 eigenvalue-minimisations  :  1264
 total energy-change (2. order) :-0.6590790E+02  (-0.6451846E+02)
 number of electron      60.0000000 magnetization       7.2600000
 augmentation part       60.0000000 magnetization       7.2600000

 Free energy of the ion-electron system (eV)
  ---------------------------------------------------
  alpha Z        PSCENC =        35.76143845
  Ewald energy   TEWEN  =      7005.02028753
  -Hartree energ DENC   =     -9648.35596616
  -exchange      EXHF   =         0.00000000
  -V(xc)+E(xc)   XCENC  =       -21.02914614
  PAW double counting   =      1665.20172197    -1558.28654582
  entropy T*S    EENTRO =         0.00000000
  eigenvalues    EBANDS =      -477.17336832
  atomic energy  EATOM  =      2953.47265105
  Solvation  Ediel_sol  =         0.00000000
  ---------------------------------------------------
  free energy    TOTEN  =       -45.38892743 eV

  energy without entropy =      -45.38892743  energy(sigma->0) =      -45.38892743


--------------------------------------------------------------------------------------------------------




--------------------------------------- Iteration      1(   4)  ---------------------------------------


     EDDAV:  cpu time   29.1680: real time   29.4646
 BZINTS: Fermi energy: -2.661340; 60.000000 electrons
         Band energy:-480.001312;  BLOECHL correction: -0.011349
       DOS:  cpu time    0.0040: real time    0.0055
    --------------------------------------------
      LOOP:  cpu time   29.1720: real time   29.4701

 eigenvalue-minimisations  :  1264
 total energy-change (2. order) :-0.2827944E+01  (-0.2741415E+01)
 number of electron      60.0000000 magnetization       7.2600000
 augmentation part       60.0000000 magnetization       7.2600000

 Free energy of the ion-electron system (eV)
  ---------------------------------------------------
  alpha Z        PSCENC =        35.76143845
  Ewald energy   TEWEN  =      7005.02028753
  -Hartree energ DENC   =     -9648.35596616
  -exchange      EXHF   =         0.00000000
  -V(xc)+E(xc)   XCENC  =       -21.02914614
  PAW double counting   =      1665.20172197    -1558.28654582
  entropy T*S    EENTRO =         0.00000000
  eigenvalues    EBANDS =      -480.00131200
  atomic energy  EATOM  =      2953.47265105
  Solvation  Ediel_sol  =         0.00000000
  ---------------------------------------------------
  free energy    TOTEN  =       -48.21687111 eV

  energy without entropy =      -48.21687111  energy(sigma->0) =      -48.21687111


--------------------------------------------------------------------------------------------------------




--------------------------------------- Iteration      1(   5)  ---------------------------------------


     EDDAV:  cpu time   28.1920: real time   28.5562
 BZINTS: Fermi energy: -2.661579; 60.000000 electrons
         Band energy:-480.083095;  BLOECHL correction: -0.011231
       DOS:  cpu time    0.0080: real time    0.0055
    CHARGE:  cpu time    2.0000: real time    2.0528
    MIXING:  cpu time    0.0440: real time    0.0457
    --------------------------------------------
      LOOP:  cpu time   30.2440: real time   30.6603

 eigenvalue-minimisations  :  1232
 total energy-change (2. order) :-0.8178343E-01  (-0.8172432E-01)
 number of electron      60.0000003 magnetization       7.2845573
 augmentation part       -2.8051612 magnetization       4.9057257

 Broyden mixing:
  rms(total) = 0.25163E+01    rms(broyden)= 0.25162E+01
  rms(prec ) = 0.27775E+01
  weight for this iteration     100.00

 Free energy of the ion-electron system (eV)
  ---------------------------------------------------
  alpha Z        PSCENC =        35.76143845
  Ewald energy   TEWEN  =      7005.02028753
  -Hartree energ DENC   =     -9648.35596616
  -exchange      EXHF   =         0.00000000
  -V(xc)+E(xc)   XCENC  =       -21.02914614
  PAW double counting   =      1665.20172197    -1558.28654582
  entropy T*S    EENTRO =         0.00000000
  eigenvalues    EBANDS =      -480.08309543
  atomic energy  EATOM  =      2953.47265105
  Solvation  Ediel_sol  =         0.00000000
  ---------------------------------------------------
  free energy    TOTEN  =       -48.29865454 eV

  energy without entropy =      -48.29865454  energy(sigma->0) =      -48.29865454


--------------------------------------------------------------------------------------------------------




--------------------------------------- Iteration      1(   6)  ---------------------------------------


    POTLOK:  cpu time   51.9840: real time   52.1871
    SETDIJ:  cpu time    0.0480: real time    0.0495
     EDDAV:  cpu time   27.9920: real time   28.0446
 BZINTS: Fermi energy: -4.693515; 60.000000 electrons
         Band energy:-650.864249;  BLOECHL correction: -0.024488
       DOS:  cpu time    0.0040: real time    0.0070
    CHARGE:  cpu time    2.0200: real time    2.0195
    MIXING:  cpu time    0.0400: real time    0.0409
    --------------------------------------------
      LOOP:  cpu time   82.0880: real time   82.3485

 eigenvalue-minimisations  :  1200
 total energy-change (2. order) :-0.5468859E+02  (-0.3859430E+02)
 number of electron      60.0000012 magnetization       7.0629799
 augmentation part        8.0781183 magnetization       7.3233588

 Broyden mixing:
  rms(total) = 0.64295E+01    rms(broyden)= 0.64294E+01
  rms(prec ) = 0.68844E+01
  weight for this iteration     100.00

 eigenvalues of (default mixing * dielectric matrix)
  average eigenvalue GAMMA=   0.2296
  0.2296

 Free energy of the ion-electron system (eV)
  ---------------------------------------------------
  alpha Z        PSCENC =        35.76143845
  Ewald energy   TEWEN  =      7005.02028753
  -Hartree energ DENC   =     -9545.31513386
  -exchange      EXHF   =         0.00000000
  -V(xc)+E(xc)   XCENC  =       -20.36908771
  PAW double counting   =      1504.44900559    -1385.14216074
  entropy T*S    EENTRO =         0.00000000
  eigenvalues    EBANDS =      -650.86424851
  atomic energy  EATOM  =      2953.47265105
  Solvation  Ediel_sol  =         0.00000000
  ---------------------------------------------------
  free energy    TOTEN  =      -102.98724819 eV

  energy without entropy =     -102.98724819  energy(sigma->0) =     -102.98724819


--------------------------------------------------------------------------------------------------------




--------------------------------------- Iteration      1(   7)  ---------------------------------------


    POTLOK:  cpu time   52.0440: real time   52.1591
    SETDIJ:  cpu time    0.0520: real time    0.0492
     EDDAV:  cpu time   26.7680: real time   27.3606
 BZINTS: Fermi energy: -4.644912; 60.000000 electrons
         Band energy:-514.481972;  BLOECHL correction: -0.018436
       DOS:  cpu time    0.0040: real time    0.0066
    CHARGE:  cpu time    2.0080: real time    2.0093
    MIXING:  cpu time    0.0400: real time    0.0405
    --------------------------------------------
      LOOP:  cpu time   80.9160: real time   81.6253

 eigenvalue-minimisations  :  1168
 total energy-change (2. order) : 0.5947703E+02  (-0.6235380E+01)
 number of electron      60.0000010 magnetization       6.8404698
 augmentation part        4.7676365 magnetization       6.3642945

 Broyden mixing:
  rms(total) = 0.29996E+01    rms(broyden)= 0.29995E+01
  rms(prec ) = 0.32648E+01
  weight for this iteration     100.00

 eigenvalues of (default mixing * dielectric matrix)
  average eigenvalue GAMMA=   0.4625
  0.4625  0.4625

 Free energy of the ion-electron system (eV)
  ---------------------------------------------------
  alpha Z        PSCENC =        35.76143845
  Ewald energy   TEWEN  =      7005.02028753
  -Hartree energ DENC   =     -9608.92265632
  -exchange      EXHF   =         0.00000000
  -V(xc)+E(xc)   XCENC  =       -22.21423030
  PAW double counting   =      1617.73410668    -1509.87984258
  entropy T*S    EENTRO =         0.00000000
  eigenvalues    EBANDS =      -514.48197234
  atomic energy  EATOM  =      2953.47265105
  Solvation  Ediel_sol  =         0.00000000
  ---------------------------------------------------
  free energy    TOTEN  =       -43.51021782 eV

  energy without entropy =      -43.51021782  energy(sigma->0) =      -43.51021782


--------------------------------------------------------------------------------------------------------




--------------------------------------- Iteration      1(   8)  ---------------------------------------


    POTLOK:  cpu time   51.8320: real time   51.9561
    SETDIJ:  cpu time    0.0480: real time    0.0465
     EDDAV:  cpu time   33.0320: real time   33.2165
 BZINTS: Fermi energy: -3.104609; 60.000000 electrons
         Band energy:-481.126513;  BLOECHL correction: -0.021300
       DOS:  cpu time    0.0040: real time    0.0050
    CHARGE:  cpu time    2.0400: real time    2.0476
    MIXING:  cpu time    0.0400: real time    0.0424
    --------------------------------------------
      LOOP:  cpu time   86.9960: real time   87.3140

 eigenvalue-minimisations  :  1456
 total energy-change (2. order) : 0.1981048E+01  (-0.4664901E+01)
 number of electron      60.0000004 magnetization       6.9334321
 augmentation part       -0.9439584 magnetization       3.6183472

 Broyden mixing:
  rms(total) = 0.21641E+01    rms(broyden)= 0.21638E+01
  rms(prec ) = 0.22483E+01
  weight for this iteration     100.00

 eigenvalues of (default mixing * dielectric matrix)
  average eigenvalue GAMMA=   0.3953
  0.4563  0.3648  0.3648

 Free energy of the ion-electron system (eV)
  ---------------------------------------------------
  alpha Z        PSCENC =        35.76143845
  Ewald energy   TEWEN  =      7005.02028753
  -Hartree energ DENC   =     -9638.57267567
  -exchange      EXHF   =         0.00000000
  -V(xc)+E(xc)   XCENC  =       -22.16541960
  PAW double counting   =      1673.87502774    -1567.79396617
  entropy T*S    EENTRO =         0.00000000
  eigenvalues    EBANDS =      -481.12651298
  atomic energy  EATOM  =      2953.47265105
  Solvation  Ediel_sol  =         0.00000000
  ---------------------------------------------------
  free energy    TOTEN  =       -41.52916965 eV

  energy without entropy =      -41.52916965  energy(sigma->0) =      -41.52916965


--------------------------------------------------------------------------------------------------------




--------------------------------------- Iteration      1(   9)  ---------------------------------------


    POTLOK:  cpu time   51.4560: real time   51.8449
    SETDIJ:  cpu time    0.0880: real time    0.0907
     EDDAV:  cpu time   30.5320: real time   30.8943
 BZINTS: Fermi energy: -3.580575; 60.000000 electrons
         Band energy:-493.041141;  BLOECHL correction: -0.021463
       DOS:  cpu time    0.0040: real time    0.0067
    CHARGE:  cpu time    2.0400: real time    2.0375
    MIXING:  cpu time    0.0680: real time    0.0693
    --------------------------------------------
      LOOP:  cpu time   84.1880: real time   84.9434

 eigenvalue-minimisations  :  1344
 total energy-change (2. order) : 0.1058066E+01  (-0.4195945E+00)
 number of electron      60.0000004 magnetization       7.0053123
 augmentation part       -0.0147184 magnetization       3.8936881

 Broyden mixing:
  rms(total) = 0.12095E+01    rms(broyden)= 0.12094E+01
  rms(prec ) = 0.12385E+01
  weight for this iteration     100.00

 eigenvalues of (default mixing * dielectric matrix)
  average eigenvalue GAMMA=   0.3770
  0.3704  0.3704  0.3836  0.3836

 Free energy of the ion-electron system (eV)
  ---------------------------------------------------
  alpha Z        PSCENC =        35.76143845
  Ewald energy   TEWEN  =      7005.02028753
  -Hartree energ DENC   =     -9626.03525093
  -exchange      EXHF   =         0.00000000
  -V(xc)+E(xc)   XCENC  =       -21.51936316
  PAW double counting   =      1651.64672454    -1545.77645007
  entropy T*S    EENTRO =         0.00000000
  eigenvalues    EBANDS =      -493.04114062
  atomic energy  EATOM  =      2953.47265105
  Solvation  Ediel_sol  =         0.00000000
  ---------------------------------------------------
  free energy    TOTEN  =       -40.47110320 eV

  energy without entropy =      -40.47110320  energy(sigma->0) =      -40.47110320


--------------------------------------------------------------------------------------------------------




--------------------------------------- Iteration      1(  10)  ---------------------------------------


    POTLOK:  cpu time   51.2160: real time   51.3826
    SETDIJ:  cpu time    0.0440: real time    0.0446
     EDDAV:  cpu time   30.3360: real time   30.9641
 BZINTS: Fermi energy: -3.677751; 60.000000 electrons
         Band energy:-494.909727;  BLOECHL correction: -0.018555
       DOS:  cpu time    0.0040: real time    0.0072
    CHARGE:  cpu time    2.0080: real time    2.0239
    MIXING:  cpu time    0.0440: real time    0.0436
    --------------------------------------------
      LOOP:  cpu time   83.6520: real time   84.4660

 eigenvalue-minimisations  :  1360
 total energy-change (2. order) : 0.2056513E-01  (-0.4783725E-01)
 number of electron      60.0000004 magnetization       7.0471694
 augmentation part        0.2990946 magnetization       4.0467001

 Broyden mixing:
  rms(total) = 0.85059E+00    rms(broyden)= 0.85059E+00
  rms(prec ) = 0.86804E+00
  weight for this iteration     100.00

 eigenvalues of (default mixing * dielectric matrix)
  average eigenvalue GAMMA=   0.4231
  0.4616  0.4616  0.4138  0.3892  0.3892

 Free energy of the ion-electron system (eV)
  ---------------------------------------------------
  alpha Z        PSCENC =        35.76143845
  Ewald energy   TEWEN  =      7005.02028753
  -Hartree energ DENC   =     -9624.28147379
  -exchange      EXHF   =         0.00000000
  -V(xc)+E(xc)   XCENC  =       -21.08785725
  PAW double counting   =      1648.63039262    -1543.05624921
  entropy T*S    EENTRO =         0.00000000
  eigenvalues    EBANDS =      -494.90972747
  atomic energy  EATOM  =      2953.47265105
  Solvation  Ediel_sol  =         0.00000000
  ---------------------------------------------------
  free energy    TOTEN  =       -40.45053808 eV

  energy without entropy =      -40.45053808  energy(sigma->0) =      -40.45053808


--------------------------------------------------------------------------------------------------------




--------------------------------------- Iteration      1(  11)  ---------------------------------------


    POTLOK:  cpu time   50.7800: real time   51.1843
    SETDIJ:  cpu time    0.0920: real time    0.0923
     EDDAV:  cpu time   29.8280: real time   30.2013
 BZINTS: Fermi energy: -3.799993; 60.007104 electrons
         Band energy:-495.745987;  BLOECHL correction: -0.003266
       DOS:  cpu time    0.0040: real time    0.0090
    CHARGE:  cpu time    2.0240: real time    2.0259
    MIXING:  cpu time    0.0400: real time    0.0444
    --------------------------------------------
      LOOP:  cpu time   82.7680: real time   83.5573

 eigenvalue-minimisations  :  1328
 total energy-change (2. order) :-0.1605405E+00  (-0.1255114E+00)
 number of electron      60.0071042 magnetization       7.2094134
 augmentation part        0.5220307 magnetization       4.4913998

 Broyden mixing:
  rms(total) = 0.89369E+00    rms(broyden)= 0.89362E+00
  rms(prec ) = 0.94169E+00
  weight for this iteration     100.00

 eigenvalues of (default mixing * dielectric matrix)
  average eigenvalue GAMMA=   0.5496
  0.8113  0.8113  0.6259  0.4858  0.4858  0.0774

 Free energy of the ion-electron system (eV)
  ---------------------------------------------------
  alpha Z        PSCENC =        35.76143845
  Ewald energy   TEWEN  =      7005.02028753
  -Hartree energ DENC   =     -9623.65367881
  -exchange      EXHF   =         0.00000000
  -V(xc)+E(xc)   XCENC  =       -20.86104759
  PAW double counting   =      1647.75474072    -1542.35948305
  entropy T*S    EENTRO =         0.00000000
  eigenvalues    EBANDS =      -495.74598684
  atomic energy  EATOM  =      2953.47265105
  Solvation  Ediel_sol  =         0.00000000
  ---------------------------------------------------
  free energy    TOTEN  =       -40.61107854 eV

  energy without entropy =      -40.61107854  energy(sigma->0) =      -40.61107854


--------------------------------------------------------------------------------------------------------




--------------------------------------- Iteration      1(  12)  ---------------------------------------


    POTLOK:  cpu time   51.1520: real time   51.2535
    SETDIJ:  cpu time    0.0480: real time    0.0484
     EDDAV:  cpu time   33.9040: real time   34.1009
 BZINTS: Fermi energy: -3.752304; 60.009303 electrons
         Band energy:-498.394510;  BLOECHL correction: -0.014932
       DOS:  cpu time    0.0080: real time    0.0091
    CHARGE:  cpu time    2.0680: real time    2.0730
    MIXING:  cpu time    0.0440: real time    0.0452
    --------------------------------------------
      LOOP:  cpu time   87.2240: real time   87.5300

 eigenvalue-minimisations  :  1504
 total energy-change (2. order) : 0.3625472E-01  (-0.9371674E-01)
 number of electron      60.0093030 magnetization       7.3586631
 augmentation part        0.5981801 magnetization       4.3574231

 Broyden mixing:
  rms(total) = 0.29861E+00    rms(broyden)= 0.29846E+00
  rms(prec ) = 0.30501E+00
  weight for this iteration     100.00

 eigenvalues of (default mixing * dielectric matrix)
  average eigenvalue GAMMA=   0.6375
  0.9539  0.9539  0.4841  0.4841  0.7556  0.7556  0.0752

 Free energy of the ion-electron system (eV)
  ---------------------------------------------------
  alpha Z        PSCENC =        35.76143845
  Ewald energy   TEWEN  =      7005.02028753
  -Hartree energ DENC   =     -9621.22507385
  -exchange      EXHF   =         0.00000000
  -V(xc)+E(xc)   XCENC  =       -19.86672688
  PAW double counting   =      1644.77007153    -1540.11296162
  entropy T*S    EENTRO =         0.00000000
  eigenvalues    EBANDS =      -498.39451004
  atomic energy  EATOM  =      2953.47265105
  Solvation  Ediel_sol  =         0.00000000
  ---------------------------------------------------
  free energy    TOTEN  =       -40.57482382 eV

  energy without entropy =      -40.57482382  energy(sigma->0) =      -40.57482382


--------------------------------------------------------------------------------------------------------




--------------------------------------- Iteration      1(  13)  ---------------------------------------


    POTLOK:  cpu time   50.9600: real time   51.0240
    SETDIJ:  cpu time    0.0480: real time    0.0461
     EDDAV:  cpu time   26.7080: real time   26.9157
 BZINTS: Fermi energy: -3.714778; 60.000000 electrons
         Band energy:-498.090328;  BLOECHL correction: -0.020575
       DOS:  cpu time    0.0080: real time    0.0067
    CHARGE:  cpu time    2.0680: real time    2.0751
    MIXING:  cpu time    0.0440: real time    0.0448
    --------------------------------------------
      LOOP:  cpu time   79.8360: real time   80.1124

 eigenvalue-minimisations  :  1168
 total energy-change (2. order) :-0.3563698E-01  (-0.1381562E-01)
 number of electron      60.0000004 magnetization       7.4635802
 augmentation part        0.4619368 magnetization       4.3752570

 Broyden mixing:
  rms(total) = 0.32160E+00    rms(broyden)= 0.32159E+00
  rms(prec ) = 0.33852E+00
  weight for this iteration     100.00

 eigenvalues of (default mixing * dielectric matrix)
  average eigenvalue GAMMA=   0.7367
  1.6558  0.4851  0.4851  0.8283  0.8283  0.8933  0.6421  0.0754

 Free energy of the ion-electron system (eV)
  ---------------------------------------------------
  alpha Z        PSCENC =        35.76143845
  Ewald energy   TEWEN  =      7005.02028753
  -Hartree energ DENC   =     -9621.45588219
  -exchange      EXHF   =         0.00000000
  -V(xc)+E(xc)   XCENC  =       -19.45227622
  PAW double counting   =      1647.52728869    -1543.39364016
  entropy T*S    EENTRO =         0.00000000
  eigenvalues    EBANDS =      -498.09032795
  atomic energy  EATOM  =      2953.47265105
  Solvation  Ediel_sol  =         0.00000000
  ---------------------------------------------------
  free energy    TOTEN  =       -40.61046080 eV

  energy without entropy =      -40.61046080  energy(sigma->0) =      -40.61046080


--------------------------------------------------------------------------------------------------------




--------------------------------------- Iteration      1(  14)  ---------------------------------------


    POTLOK:  cpu time   50.7200: real time   50.9494
    SETDIJ:  cpu time    0.0440: real time    0.0467
     EDDAV:  cpu time   32.8040: real time   32.8950
 BZINTS: Fermi energy: -3.721952; 60.000000 electrons
         Band energy:-498.681377;  BLOECHL correction: -0.020245
       DOS:  cpu time    0.0040: real time    0.0068
    CHARGE:  cpu time    2.0000: real time    2.0421
    MIXING:  cpu time    0.0640: real time    0.0615
    --------------------------------------------
      LOOP:  cpu time   85.6360: real time   86.0016

 eigenvalue-minimisations  :  1456
 total energy-change (2. order) : 0.8512960E-02  (-0.1082366E-01)
 number of electron      60.0000004 magnetization       7.5683578
 augmentation part        0.4964945 magnetization       4.4768437

 Broyden mixing:
  rms(total) = 0.27244E+00    rms(broyden)= 0.27243E+00
  rms(prec ) = 0.28828E+00
  weight for this iteration     100.00

 eigenvalues of (default mixing * dielectric matrix)
  average eigenvalue GAMMA=   0.7781
  1.7910  0.4862  0.4862  0.8307  0.8307  0.9929  0.8542  0.6558  0.0754

 Free energy of the ion-electron system (eV)
  ---------------------------------------------------
  alpha Z        PSCENC =        35.76143845
  Ewald energy   TEWEN  =      7005.02028753
  -Hartree energ DENC   =     -9620.86521210
  -exchange      EXHF   =         0.00000000
  -V(xc)+E(xc)   XCENC  =       -19.22921837
  PAW double counting   =      1647.77361127    -1543.85412842
  entropy T*S    EENTRO =         0.00000000
  eigenvalues    EBANDS =      -498.68137725
  atomic energy  EATOM  =      2953.47265105
  Solvation  Ediel_sol  =         0.00000000
  ---------------------------------------------------
  free energy    TOTEN  =       -40.60194784 eV

  energy without entropy =      -40.60194784  energy(sigma->0) =      -40.60194784


--------------------------------------------------------------------------------------------------------




--------------------------------------- Iteration      1(  15)  ---------------------------------------


    POTLOK:  cpu time   52.3000: real time   52.4717
    SETDIJ:  cpu time    0.0600: real time    0.0625
     EDDAV:  cpu time   33.4760: real time   33.5618
 BZINTS: Fermi energy: -3.737351; 60.000000 electrons
         Band energy:-499.209711;  BLOECHL correction: -0.019114
       DOS:  cpu time    0.0040: real time    0.0069
    CHARGE:  cpu time    2.0600: real time    2.0649
    MIXING:  cpu time    0.0520: real time    0.0502
    --------------------------------------------
      LOOP:  cpu time   87.9520: real time   88.2179

 eigenvalue-minimisations  :  1472
 total energy-change (2. order) : 0.4202645E-02  (-0.1920094E-02)
 number of electron      60.0000004 magnetization       7.6659057
 augmentation part        0.5617138 magnetization       4.5815506

 Broyden mixing:
  rms(total) = 0.25308E+00    rms(broyden)= 0.25308E+00
  rms(prec ) = 0.26934E+00
  weight for this iteration     100.00

 eigenvalues of (default mixing * dielectric matrix)
  average eigenvalue GAMMA=   0.8573
  1.8675  1.8675  0.8427  0.8427  0.4859  0.4859  0.7378  0.7378  0.6296  0.0754

 Free energy of the ion-electron system (eV)
  ---------------------------------------------------
  alpha Z        PSCENC =        35.76143845
  Ewald energy   TEWEN  =      7005.02028753
  -Hartree energ DENC   =     -9620.33579531
  -exchange      EXHF   =         0.00000000
  -V(xc)+E(xc)   XCENC  =       -19.17947547
  PAW double counting   =      1647.38080024    -1543.50794102
  entropy T*S    EENTRO =         0.00000000
  eigenvalues    EBANDS =      -499.20971068
  atomic energy  EATOM  =      2953.47265105
  Solvation  Ediel_sol  =         0.00000000
  ---------------------------------------------------
  free energy    TOTEN  =       -40.59774519 eV

  energy without entropy =      -40.59774519  energy(sigma->0) =      -40.59774519


--------------------------------------------------------------------------------------------------------




--------------------------------------- Iteration      1(  16)  ---------------------------------------


    POTLOK:  cpu time   51.1920: real time   51.3214
    SETDIJ:  cpu time    0.0520: real time    0.0510
     EDDAV:  cpu time   29.8400: real time   30.1182
 BZINTS: Fermi energy: -3.746641; 60.000000 electrons
         Band energy:-499.767090;  BLOECHL correction: -0.019676
       DOS:  cpu time    0.0040: real time    0.0056
    CHARGE:  cpu time    2.0080: real time    2.0247
    MIXING:  cpu time    0.0480: real time    0.0472
    --------------------------------------------
      LOOP:  cpu time   83.1440: real time   83.5681

 eigenvalue-minimisations  :  1328
 total energy-change (2. order) : 0.1379015E-01  (-0.4736772E-02)
 number of electron      60.0000004 magnetization       7.7345795
 augmentation part        0.5963748 magnetization       4.6212597

 Broyden mixing:
  rms(total) = 0.14916E+00    rms(broyden)= 0.14914E+00
  rms(prec ) = 0.15589E+00
  weight for this iteration     100.00

 eigenvalues of (default mixing * dielectric matrix)
  average eigenvalue GAMMA=   0.8643
  1.9563  0.4858  0.4858  1.0001  1.0001  1.1501  0.8693  0.8693  0.9913  0.6232
  0.0754

 Free energy of the ion-electron system (eV)
  ---------------------------------------------------
  alpha Z        PSCENC =        35.76143845
  Ewald energy   TEWEN  =      7005.02028753
  -Hartree energ DENC   =     -9619.78304172
  -exchange      EXHF   =         0.00000000
  -V(xc)+E(xc)   XCENC  =       -19.15272227
  PAW double counting   =      1646.69145804    -1542.82693583
  entropy T*S    EENTRO =         0.00000000
  eigenvalues    EBANDS =      -499.76709029
  atomic energy  EATOM  =      2953.47265105
  Solvation  Ediel_sol  =         0.00000000
  ---------------------------------------------------
  free energy    TOTEN  =       -40.58395504 eV

  energy without entropy =      -40.58395504  energy(sigma->0) =      -40.58395504


--------------------------------------------------------------------------------------------------------




--------------------------------------- Iteration      1(  17)  ---------------------------------------


    POTLOK:  cpu time   50.6040: real time   50.7973
    SETDIJ:  cpu time    0.0440: real time    0.0448
     EDDAV:  cpu time   27.6800: real time   28.1441
 BZINTS: Fermi energy: -3.756071; 60.000000 electrons
         Band energy:-500.120875;  BLOECHL correction: -0.018842
       DOS:  cpu time    0.0040: real time    0.0067
    CHARGE:  cpu time    2.0440: real time    2.0720
    MIXING:  cpu time    0.0520: real time    0.0484
    --------------------------------------------
      LOOP:  cpu time   80.4280: real time   81.1133

 eigenvalue-minimisations  :  1232
 total energy-change (2. order) :-0.1718017E-03  (-0.1618340E-02)
 number of electron      60.0000005 magnetization       7.8134489
 augmentation part        0.6341058 magnetization       4.7085514

 Broyden mixing:
  rms(total) = 0.12886E+00    rms(broyden)= 0.12885E+00
  rms(prec ) = 0.13509E+00
  weight for this iteration     100.00

 eigenvalues of (default mixing * dielectric matrix)
  average eigenvalue GAMMA=   0.9186
  1.9856  1.9856  1.1026  1.1026  0.4859  0.4859  0.8184  0.8184  0.7710  0.7710
  0.6214  0.0754

 Free energy of the ion-electron system (eV)
  ---------------------------------------------------
  alpha Z        PSCENC =        35.76143845
  Ewald energy   TEWEN  =      7005.02028753
  -Hartree energ DENC   =     -9619.45115427
  -exchange      EXHF   =         0.00000000
  -V(xc)+E(xc)   XCENC  =       -19.12383115
  PAW double counting   =      1646.33280126    -1542.47544463
  entropy T*S    EENTRO =         0.00000000
  eigenvalues    EBANDS =      -500.12087508
  atomic energy  EATOM  =      2953.47265105
  Solvation  Ediel_sol  =         0.00000000
  ---------------------------------------------------
  free energy    TOTEN  =       -40.58412684 eV

  energy without entropy =      -40.58412684  energy(sigma->0) =      -40.58412684


--------------------------------------------------------------------------------------------------------




--------------------------------------- Iteration      1(  18)  ---------------------------------------


    POTLOK:  cpu time   50.3280: real time   50.9309
    SETDIJ:  cpu time    0.0600: real time    0.0618
     EDDAV:  cpu time   29.1960: real time   29.4818
 BZINTS: Fermi energy: -3.763761; 60.000000 electrons
         Band energy:-500.375321;  BLOECHL correction: -0.018608
       DOS:  cpu time    0.0040: real time    0.0069
    CHARGE:  cpu time    2.0280: real time    2.0282
    MIXING:  cpu time    0.0480: real time    0.0492
    --------------------------------------------
      LOOP:  cpu time   81.6640: real time   82.5589

 eigenvalue-minimisations  :  1296
 total energy-change (2. order) : 0.1073308E-02  (-0.6050514E-03)
 number of electron      60.0000005 magnetization       7.9404855
 augmentation part        0.6576790 magnetization       4.8330007

 Broyden mixing:
  rms(total) = 0.93323E-01    rms(broyden)= 0.93322E-01
  rms(prec ) = 0.96378E-01
  weight for this iteration     100.00

 eigenvalues of (default mixing * dielectric matrix)
  average eigenvalue GAMMA=   1.0157
  2.6834  2.6834  1.1642  1.1642  0.4859  0.4859  0.8607  0.8607  0.7509  0.7509
  0.6230  0.6158  0.0754

 Free energy of the ion-electron system (eV)
  ---------------------------------------------------
  alpha Z        PSCENC =        35.76143845
  Ewald energy   TEWEN  =      7005.02028753
  -Hartree energ DENC   =     -9619.20902254
  -exchange      EXHF   =         0.00000000
  -V(xc)+E(xc)   XCENC  =       -19.12582624
  PAW double counting   =      1646.09196987    -1542.21923090
  entropy T*S    EENTRO =         0.00000000
  eigenvalues    EBANDS =      -500.37532077
  atomic energy  EATOM  =      2953.47265105
  Solvation  Ediel_sol  =         0.00000000
  ---------------------------------------------------
  free energy    TOTEN  =       -40.58305353 eV

  energy without entropy =      -40.58305353  energy(sigma->0) =      -40.58305353


--------------------------------------------------------------------------------------------------------




--------------------------------------- Iteration      1(  19)  ---------------------------------------


    POTLOK:  cpu time   50.6760: real time   51.0071
    SETDIJ:  cpu time    0.0480: real time    0.0465
     EDDAV:  cpu time   29.0480: real time   29.3648
 BZINTS: Fermi energy: -3.769965; 60.000000 electrons
         Band energy:-500.616149;  BLOECHL correction: -0.018656
       DOS:  cpu time    0.0040: real time    0.0069
    CHARGE:  cpu time    2.0040: real time    2.0319
    MIXING:  cpu time    0.0520: real time    0.0507
    --------------------------------------------
      LOOP:  cpu time   81.8320: real time   82.5079

 eigenvalue-minimisations  :  1296
 total energy-change (2. order) :-0.1278905E-02  (-0.6125511E-03)
 number of electron      60.0000005 magnetization       8.1027708
 augmentation part        0.6755538 magnetization       4.9836772

 Broyden mixing:
  rms(total) = 0.87139E-01    rms(broyden)= 0.87132E-01
  rms(prec ) = 0.90520E-01
  weight for this iteration     100.00

 eigenvalues of (default mixing * dielectric matrix)
  average eigenvalue GAMMA=   1.1447
  4.4200  2.6737  1.1944  1.1944  0.9704  0.9704  0.4858  0.4858  0.7892  0.7892
  0.6847  0.6847  0.6078  0.0754

 Free energy of the ion-electron system (eV)
  ---------------------------------------------------
  alpha Z        PSCENC =        35.76143845
  Ewald energy   TEWEN  =      7005.02028753
  -Hartree energ DENC   =     -9618.99765934
  -exchange      EXHF   =         0.00000000
  -V(xc)+E(xc)   XCENC  =       -19.10096295
  PAW double counting   =      1645.79790492    -1541.92184284
  entropy T*S    EENTRO =         0.00000000
  eigenvalues    EBANDS =      -500.61614926
  atomic energy  EATOM  =      2953.47265105
  Solvation  Ediel_sol  =         0.00000000
  ---------------------------------------------------
  free energy    TOTEN  =       -40.58433244 eV

  energy without entropy =      -40.58433244  energy(sigma->0) =      -40.58433244


--------------------------------------------------------------------------------------------------------




--------------------------------------- Iteration      1(  20)  ---------------------------------------


    POTLOK:  cpu time   50.8240: real time   51.0234
    SETDIJ:  cpu time    0.0480: real time    0.0456
     EDDAV:  cpu time   26.8800: real time   27.1234
 BZINTS: Fermi energy: -3.779378; 60.000000 electrons
         Band energy:-501.031173;  BLOECHL correction: -0.018528
       DOS:  cpu time    0.0040: real time    0.0067
    CHARGE:  cpu time    2.0200: real time    2.0280
    MIXING:  cpu time    0.0520: real time    0.0521
    --------------------------------------------
      LOOP:  cpu time   79.8280: real time   80.2791

 eigenvalue-minimisations  :  1184
 total energy-change (2. order) :-0.1538396E-03  (-0.4775958E-03)
 number of electron      60.0000005 magnetization       8.2036536
 augmentation part        0.7094545 magnetization       5.0713703

 Broyden mixing:
  rms(total) = 0.29920E-01    rms(broyden)= 0.29917E-01
  rms(prec ) = 0.30556E-01
  weight for this iteration     100.00

 eigenvalues of (default mixing * dielectric matrix)
  average eigenvalue GAMMA=   1.2819
  6.5831  2.6750  1.2386  1.2386  1.0268  1.0268  0.4858  0.4858  0.8120  0.8120
  0.7498  0.7498  0.6555  0.6135  0.0754

 Free energy of the ion-electron system (eV)
  ---------------------------------------------------
  alpha Z        PSCENC =        35.76143845
  Ewald energy   TEWEN  =      7005.02028753
  -Hartree energ DENC   =     -9618.64020679
  -exchange      EXHF   =         0.00000000
  -V(xc)+E(xc)   XCENC  =       -19.02626471
  PAW double counting   =      1645.20543837    -1541.34665720
  entropy T*S    EENTRO =         0.00000000
  eigenvalues    EBANDS =      -501.03117298
  atomic energy  EATOM  =      2953.47265105
  Solvation  Ediel_sol  =         0.00000000
  ---------------------------------------------------
  free energy    TOTEN  =       -40.58448628 eV

  energy without entropy =      -40.58448628  energy(sigma->0) =      -40.58448628


--------------------------------------------------------------------------------------------------------




--------------------------------------- Iteration      1(  21)  ---------------------------------------


    POTLOK:  cpu time   50.9760: real time   51.1228
    SETDIJ:  cpu time    0.0680: real time    0.0665
     EDDAV:  cpu time   30.5200: real time   30.7311
 BZINTS: Fermi energy: -3.782129; 60.000000 electrons
         Band energy:-501.161504;  BLOECHL correction: -0.018516
       DOS:  cpu time    0.0040: real time    0.0066
    CHARGE:  cpu time    2.0400: real time    2.0459
    MIXING:  cpu time    0.0520: real time    0.0542
    --------------------------------------------
      LOOP:  cpu time   83.6600: real time   84.0273

 eigenvalue-minimisations  :  1360
 total energy-change (2. order) :-0.6554717E-03  (-0.1957826E-03)
 number of electron      60.0000005 magnetization       8.2387010
 augmentation part        0.7220867 magnetization       5.1040693

 Broyden mixing:
  rms(total) = 0.14460E-01    rms(broyden)= 0.14454E-01
  rms(prec ) = 0.15020E-01
  weight for this iteration     100.00

 eigenvalues of (default mixing * dielectric matrix)
  average eigenvalue GAMMA=   1.3632
  8.0827  2.6808  1.2972  1.2972  1.0371  1.0371  0.4858  0.4858  0.8562  0.8562
  0.8223  0.8223  0.6866  0.6866  0.6016  0.0754

 Free energy of the ion-electron system (eV)
  ---------------------------------------------------
  alpha Z        PSCENC =        35.76143845
  Ewald energy   TEWEN  =      7005.02028753
  -Hartree energ DENC   =     -9618.53681834
  -exchange      EXHF   =         0.00000000
  -V(xc)+E(xc)   XCENC  =       -18.98182476
  PAW double counting   =      1645.04007774    -1541.19944957
  entropy T*S    EENTRO =         0.00000000
  eigenvalues    EBANDS =      -501.16150386
  atomic energy  EATOM  =      2953.47265105
  Solvation  Ediel_sol  =         0.00000000
  ---------------------------------------------------
  free energy    TOTEN  =       -40.58514175 eV

  energy without entropy =      -40.58514175  energy(sigma->0) =      -40.58514175


--------------------------------------------------------------------------------------------------------




--------------------------------------- Iteration      1(  22)  ---------------------------------------


    POTLOK:  cpu time   50.7280: real time   50.9714
    SETDIJ:  cpu time    0.0480: real time    0.0462
     EDDAV:  cpu time   21.3240: real time   21.6069
 BZINTS: Fermi energy: -3.784200; 60.000000 electrons
         Band energy:-501.271738;  BLOECHL correction: -0.018408
       DOS:  cpu time    0.0040: real time    0.0068
    CHARGE:  cpu time    2.0280: real time    2.0393
    MIXING:  cpu time    0.0560: real time    0.0548
    --------------------------------------------
      LOOP:  cpu time   74.1880: real time   74.7253

 eigenvalue-minimisations  :   896
 total energy-change (2. order) :-0.1365928E-03  (-0.4120398E-04)
 number of electron      60.0000005 magnetization       8.2660242
 augmentation part        0.7315597 magnetization       5.1313895

 Broyden mixing:
  rms(total) = 0.70059E-02    rms(broyden)= 0.70050E-02
  rms(prec ) = 0.74274E-02
  weight for this iteration     100.00

 eigenvalues of (default mixing * dielectric matrix)
  average eigenvalue GAMMA=   1.4628
  9.7507  2.6439  1.6204  1.2100  1.2100  1.0335  1.0335  0.4858  0.4858  0.8472
  0.8472  0.8406  0.8406  0.5999  0.6711  0.6711  0.0754

 Free energy of the ion-electron system (eV)
  ---------------------------------------------------
  alpha Z        PSCENC =        35.76143845
  Ewald energy   TEWEN  =      7005.02028753
  -Hartree energ DENC   =     -9618.43785845
  -exchange      EXHF   =         0.00000000
  -V(xc)+E(xc)   XCENC  =       -18.95529509
[...]
     34      -1.1242      0.00000
     35      -0.9016      0.00000
     36      -0.5190      0.00000
     37       0.1238      0.00000
     38       0.9671      0.00000
     39       1.1807      0.00000
     40       1.7567      0.00000
     41       1.8547      0.00000
     42       2.1683      0.00000
     43       2.2285      0.00000
     44       2.3783      0.00000
     45       2.8770      0.00000
     46       3.0246      0.00000
     47       3.4497      0.00000
     48       3.5853      0.00000

 k-point     5 :      -0.4000    0.2000    0.0000
  band No.  band energies     occupation 
      1     -16.4056      1.00000
      2     -16.2952      1.00000
      3     -15.8853      1.00000
      4     -15.7333      1.00000
      5     -15.6278      1.00000
      6     -15.4612      1.00000
      7     -11.3262      1.00000
      8      -9.5417      1.00000
      9      -7.8111      1.00000
     10      -7.3138      1.00000
     11      -7.2719      1.00000
     12      -6.7986      1.00000
     13      -6.4337      1.00000
     14      -6.2269      1.00000
     15      -5.9639      1.00000
     16      -5.6011      1.00000
     17      -5.5379      1.00000
     18      -5.4745      1.00000
     19      -5.4446      1.00000
     20      -5.0602      1.00000
     21      -5.0497      1.00000
     22      -4.2362      1.00000
     23      -4.1611      1.00000
     24      -4.0292      1.00000
     25      -3.9661      1.00000
     26      -3.2388      1.00000
     27      -2.9304      1.00000
     28      -2.7833      1.00000
     29      -2.7090      1.00000
     30      -2.3819      0.00000
     31      -2.3554      0.00000
     32      -1.5898      0.00000
     33      -1.3726      0.00000
     34      -1.1799      0.00000
     35      -0.9458      0.00000
     36      -0.8620      0.00000
     37       0.0783      0.00000
     38       0.6821      0.00000
     39       0.8910      0.00000
     40       1.5487      0.00000
     41       1.6715      0.00000
     42       1.8734      0.00000
     43       2.6773      0.00000
     44       2.8105      0.00000
     45       2.8901      0.00000
     46       2.9179      0.00000
     47       3.3763      0.00000
     48       3.6335      0.00000


--------------------------------------------------------------------------------------------------------


 soft charge-density along one line, spin component           1
         0         1         2         3         4         5         6         7         8         9
 total charge-density along one line

 soft charge-density along one line, spin component           2
         0         1         2         3         4         5         6         7         8         9
 total charge-density along one line

 pseudopotential strength for first ion, spin component:           1
-10.435  -0.097  -0.000   0.012  -0.000   0.747   0.029   0.000
 -0.097 -10.697   0.000  -0.000   0.012   0.029   0.824  -0.000
 -0.000   0.000 -11.181   0.000   0.000   0.000  -0.000   0.964
  0.012  -0.000   0.000 -10.697   0.097  -0.003   0.000  -0.000
 -0.000   0.012   0.000   0.097 -10.435   0.000  -0.003  -0.000
  0.747   0.029   0.000  -0.003   0.000   0.521  -0.009  -0.000
  0.029   0.824  -0.000   0.000  -0.003  -0.009   0.497   0.000
  0.000  -0.000   0.964  -0.000  -0.000  -0.000   0.000   0.458
 -0.003   0.000  -0.000   0.824  -0.029   0.001  -0.000   0.000
  0.000  -0.003  -0.000  -0.029   0.747  -0.000   0.001   0.000
  0.000  -0.000   0.086  -0.000   0.000  -0.000  -0.000  -0.021
 -0.000   0.000  -0.009   0.000  -0.000   0.000  -0.000   0.002
 -0.001  -0.005   0.000  -0.000   0.000   0.000   0.001  -0.000
 -0.000  -0.000  -0.005  -0.000   0.000  -0.000   0.000   0.001
  0.000  -0.000   0.000  -0.005   0.001   0.000  -0.000  -0.000
  0.001   0.002  -0.000   0.000  -0.001  -0.000  -0.001   0.000
  0.000   0.000   0.002   0.000  -0.000  -0.000  -0.000  -0.000
 -0.001   0.000  -0.000   0.002  -0.001   0.000  -0.000   0.000
 pseudopotential strength for first ion, spin component:           2
 -9.822  -0.041  -0.000   0.003  -0.000   0.563   0.013   0.000
 -0.041 -10.154   0.000  -0.000   0.003   0.013   0.657  -0.000
 -0.000   0.000  -9.779   0.000   0.000   0.000  -0.000   0.554
  0.003  -0.000   0.000 -10.154   0.041  -0.001   0.000  -0.000
 -0.000   0.003   0.000   0.041  -9.822   0.000  -0.001  -0.000
  0.563   0.013   0.000  -0.001   0.000   0.575  -0.005  -0.000
  0.013   0.657  -0.000   0.000  -0.001  -0.005   0.549   0.000
  0.000  -0.000   0.554  -0.000  -0.000  -0.000   0.000   0.576
 -0.001   0.000  -0.000   0.657  -0.013   0.000  -0.000   0.000
  0.000  -0.001  -0.000  -0.013   0.563  -0.000   0.000   0.000
  0.000  -0.000   0.010  -0.000   0.000  -0.000  -0.000  -0.006
 -0.000   0.000  -0.003   0.000  -0.000   0.000  -0.000   0.001
 -0.001  -0.005   0.000  -0.000   0.002   0.000   0.001  -0.000
 -0.000  -0.000  -0.004  -0.000  -0.000  -0.000   0.000   0.001
  0.002  -0.000   0.000  -0.005   0.001  -0.000  -0.000  -0.000
  0.001   0.002  -0.000   0.000  -0.001  -0.000  -0.001   0.000
  0.000   0.000   0.001   0.000   0.000  -0.000  -0.000  -0.000
 -0.001   0.000  -0.000   0.002  -0.001   0.000  -0.000   0.000
 total augmentation occupancy for first ion, spin component:           1
  1.526  -0.367   0.000   0.039  -0.000   0.103   0.211   0.000  -0.024  -0.000   0.000   0.000  -0.012  -0.000   0.003   0.000
 -0.367   1.390  -0.000  -0.000   0.039   0.166   0.215   0.000  -0.000  -0.019  -0.000  -0.000  -0.017  -0.000   0.011   0.001
  0.000  -0.000   1.160  -0.000  -0.000   0.000   0.000  -0.062   0.000  -0.000   0.031   0.052  -0.000  -0.003  -0.000   0.000
  0.039  -0.000  -0.000   1.390   0.367  -0.019   0.000   0.000   0.215  -0.166  -0.000   0.000  -0.011   0.000  -0.017   0.000
 -0.000   0.039  -0.000   0.367   1.526   0.000  -0.024  -0.000  -0.211   0.103  -0.000  -0.000   0.003   0.000   0.012   0.000
  0.103   0.166   0.000  -0.019   0.000   0.110   0.054   0.000  -0.006  -0.000   0.000  -0.000  -0.001  -0.000   0.022   0.000
  0.211   0.215   0.000   0.000  -0.024   0.054   0.178   0.000  -0.000  -0.006  -0.000   0.000  -0.009   0.000  -0.006   0.001
  0.000   0.000  -0.062   0.000  -0.000   0.000   0.000   0.114   0.000  -0.000   0.045  -0.023  -0.000  -0.005   0.000   0.000
 -0.024  -0.000   0.000   0.215  -0.211  -0.006  -0.000   0.000   0.178  -0.054   0.000   0.000   0.006  -0.000  -0.009  -0.000
 -0.000  -0.019  -0.000  -0.166   0.103  -0.000  -0.006  -0.000  -0.054   0.110  -0.000   0.000   0.022   0.000   0.001  -0.003
  0.000   0.000   0.031   0.000  -0.000   0.000   0.000   0.045   0.000  -0.000   1.067  -0.254  -0.000  -0.022   0.000  -0.000
  0.000  -0.000   0.052   0.000  -0.000  -0.000   0.000  -0.023   0.000   0.000  -0.254   0.117  -0.000   0.006   0.000   0.000
 -0.012  -0.017  -0.000  -0.011   0.003  -0.001  -0.009  -0.000   0.006   0.022  -0.000  -0.000   0.182  -0.000  -0.000  -0.011
 -0.000  -0.000  -0.003   0.000   0.000  -0.000   0.000  -0.005  -0.000   0.000  -0.022   0.006  -0.000   0.194  -0.000   0.000
  0.003   0.011  -0.000  -0.017   0.012   0.022  -0.006   0.000  -0.009   0.001   0.000   0.000  -0.000  -0.000   0.182   0.000
  0.000   0.001   0.000   0.000   0.000   0.000   0.001   0.000  -0.000  -0.003  -0.000   0.000  -0.011   0.000   0.000   0.001
  0.000  -0.000   0.000  -0.000  -0.000   0.000  -0.000   0.000   0.000  -0.000   0.002  -0.001   0.000  -0.012   0.000  -0.000
  0.000  -0.000   0.000   0.001  -0.000  -0.003   0.000  -0.000   0.001  -0.000  -0.000   0.000  -0.000   0.000  -0.011  -0.000
 total augmentation occupancy for first ion, spin component:           2
  0.113   0.038   0.000  -0.006  -0.000  -0.054   0.001  -0.000   0.001  -0.000  -0.000   0.000   0.001   0.000   0.006  -0.000
  0.038   0.054   0.000  -0.000  -0.006   0.012  -0.042   0.000  -0.000  -0.001   0.000  -0.000  -0.000  -0.000  -0.003  -0.000
  0.000   0.000   0.775   0.000  -0.000  -0.000   0.000  -0.192   0.000   0.000  -0.025   0.058  -0.000   0.002   0.000  -0.000
 -0.006  -0.000   0.000   0.054  -0.038  -0.001   0.000   0.000  -0.042  -0.012   0.000  -0.000   0.003   0.000  -0.000  -0.000
 -0.000  -0.006  -0.000  -0.038   0.113   0.000   0.001   0.000  -0.001  -0.054   0.000  -0.000   0.006  -0.000  -0.001   0.000
 -0.054   0.012  -0.000  -0.001   0.000  -0.007  -0.017   0.000   0.002  -0.000   0.000  -0.000   0.001  -0.000  -0.000  -0.000
  0.001  -0.042   0.000   0.000   0.001  -0.017  -0.020  -0.000   0.000   0.002   0.000   0.000   0.001   0.000   0.001  -0.000
 -0.000   0.000  -0.192   0.000   0.000   0.000  -0.000   0.037  -0.000  -0.000   0.012  -0.009   0.000  -0.000   0.000  -0.000
  0.001  -0.000   0.000  -0.042  -0.001   0.002   0.000  -0.000  -0.020   0.017  -0.000   0.000  -0.001  -0.000   0.001   0.000
 -0.000  -0.001   0.000  -0.012  -0.054  -0.000   0.002  -0.000   0.017  -0.007  -0.000   0.000  -0.000   0.000  -0.001   0.000
 -0.000   0.000  -0.025   0.000   0.000   0.000   0.000   0.012  -0.000  -0.000   0.051   0.032  -0.000  -0.000   0.000  -0.000
  0.000  -0.000   0.058  -0.000  -0.000  -0.000   0.000  -0.009   0.000   0.000   0.032  -0.012  -0.000  -0.001   0.000  -0.000
  0.001  -0.000  -0.000   0.003   0.006   0.001   0.001   0.000  -0.001  -0.000   0.000  -0.000   0.007  -0.000  -0.000   0.001
  0.000  -0.000   0.002  -0.000  -0.000  -0.000   0.000  -0.000  -0.000   0.000  -0.000  -0.001  -0.000   0.007  -0.000  -0.000
  0.006  -0.003   0.000  -0.000  -0.001  -0.000   0.001   0.000   0.001  -0.001   0.000   0.000  -0.000  -0.000   0.007   0.000
 -0.000  -0.000  -0.000  -0.000   0.000  -0.000  -0.000  -0.000   0.000   0.000  -0.000  -0.000   0.001  -0.000   0.000  -0.000
 -0.000  -0.000  -0.000   0.000   0.000  -0.000   0.000  -0.000  -0.000   0.000  -0.000   0.000  -0.000   0.001  -0.000   0.000
  0.000   0.000   0.000  -0.000   0.000   0.000  -0.000   0.000  -0.000   0.000   0.000   0.000  -0.000  -0.000   0.001   0.000


------------------------ aborting loop because EDIFF is reached ----------------------------------------





 total charge     

# of ion       s       p       d       tot
------------------------------------------
    1        0.365   0.453   6.319   7.136
    2        0.364   0.450   6.316   7.130
    3        1.166   1.165   0.097   2.428
    4        0.759   0.863   0.000   1.622
    5        1.481   2.303   0.047   3.832
    6        1.476   2.320   0.048   3.844
    7        1.480   2.307   0.048   3.835
    8        1.487   2.280   0.049   3.815
    9        1.483   2.295   0.048   3.825
   10        1.486   2.281   0.049   3.816
--------------------------------------------------
tot         11.546  16.717  13.020  41.283



 magnetization (x)

# of ion       s       p       d       tot
------------------------------------------
    1        0.011   0.013   1.097   1.121
    2        0.012   0.013   1.104   1.128
    3       -0.005   0.004  -0.001  -0.002
    4       -0.002   0.004   0.000   0.002
    5       -0.001  -0.038  -0.000  -0.039
    6       -0.001  -0.017  -0.001  -0.019
    7       -0.001  -0.033  -0.000  -0.034
    8       -0.002  -0.048  -0.000  -0.050
    9       -0.002  -0.026  -0.001  -0.028
   10       -0.002  -0.043  -0.001  -0.045
--------------------------------------------------
tot          0.008  -0.172   2.198   2.035

    CHARGE:  cpu time    2.0480: real time    2.0578
    FORLOC:  cpu time    0.0640: real time    0.0670
    FORNL :  cpu time    6.7880: real time    6.8111
    STRESS:  cpu time   20.4160: real time   20.4722
    FORCOR:  cpu time   51.3600: real time   51.4843
    FORHAR:  cpu time    0.3280: real time    0.3299
    MIXING:  cpu time    0.0400: real time    0.0407
    OFIELD:  cpu time    0.0000: real time    0.0001

  FORCE on cell =-STRESS in cart. coord.  units (eV):
  Direction    XX          YY          ZZ          XY          YZ          ZX
  --------------------------------------------------------------------------------------
  Alpha Z    47.09236    47.09236    47.09236
  Ewald   10260.50969 10260.50744-12111.35307    -0.00187    -0.00050    -0.00091
  Hartree 10747.88455 10747.88531-10412.74817    -0.00027     0.00006     0.00010
  E(xc)    -242.39190  -242.39193  -241.26138     0.00005     0.00001     0.00001
  Local  -21736.44933-21736.44910 21775.79815     0.00171     0.00026     0.00048
  n-local   250.44716   250.17590   258.04228    -0.09080     0.42004     0.40831
  augment    49.73374    49.73374    39.99986     0.00024    -0.00013     0.00004
  Kinetic   625.26629   621.82374   644.72979    -2.36306     1.41802     1.67299
  Fock        0.00000     0.00000     0.00000     0.00000     0.00000     0.00000
  -------------------------------------------------------------------------------------
  Total       0.23501     0.23501     0.29981     0.00000    -0.00000     0.00000
  in kB       0.51178     0.51178     0.65290     0.00000    -0.00000     0.00000
  external pressure =        0.56 kB  Pullay stress =        0.00 kB


 VOLUME and BASIS-vectors are now :
 -----------------------------------------------------------------------------
  energy-cutoff  :      520.00
  volume of cell :      735.72
      direct lattice vectors                 reciprocal lattice vectors
     6.235792442 -0.000000315 -0.000000000     0.160364537 -0.092586514  0.000000000
     3.117896143  5.400354254 -0.000000000     0.000000009  0.185173032  0.000000000
    -0.000000000 -0.000000000 21.847433710     0.000000000  0.000000000  0.045771966

  length of vectors
     6.235792442  6.235792045 21.847433710     0.185173020  0.185173032  0.045771966


 FORCES acting on ions
    electron-ion (+dipol)            ewald-force                    non-local-force                 convergence-correction
 -----------------------------------------------------------------------------------------------
   0.123E-03 0.663E-04 -.616E+01   0.584E-03 0.350E-03 0.605E+01   -.167E-18 -.104E-18 0.994E-01   0.701E-06 -.166E-05 -.770E-02
   -.114E-03 -.499E-04 -.584E+01   -.581E-03 -.348E-03 0.575E+01   0.150E-18 0.108E-18 0.104E+00   -.106E-05 0.238E-05 0.384E-02
   -.446E-04 -.191E-04 0.229E+03   -.175E-03 -.982E-04 -.226E+03   0.165E-16 0.107E-16 -.360E+01   0.188E-06 0.107E-06 -.300E-01
   0.393E-04 0.225E-04 -.230E+03   0.186E-03 0.104E-03 0.225E+03   -.712E-16 -.401E-16 0.519E+01   0.947E-07 0.695E-07 0.160E-01
   -.188E+02 0.652E+00 -.470E+03   0.166E+02 -.666E+00 0.472E+03   0.228E+01 -.963E-02 -.249E+01   0.486E-02 -.470E-03 0.466E-01
   0.999E+01 0.160E+02 -.470E+03   -.886E+01 -.140E+02 0.472E+03   -.115E+01 -.197E+01 -.249E+01   -.284E-02 -.397E-02 0.466E-01
   0.886E+01 -.166E+02 -.470E+03   -.771E+01 0.147E+02 0.472E+03   -.113E+01 0.198E+01 -.249E+01   -.202E-02 0.444E-02 0.466E-01
   0.264E+02 0.101E+00 0.473E+03   -.241E+02 -.969E-01 -.476E+03   -.223E+01 -.714E-02 0.243E+01   -.147E-01 -.401E-02 -.707E-01
   -.131E+02 -.229E+02 0.473E+03   0.120E+02 0.209E+02 -.476E+03   0.111E+01 0.193E+01 0.243E+01   0.385E-02 0.147E-01 -.707E-01
   -.133E+02 0.228E+02 0.473E+03   0.121E+02 -.208E+02 -.476E+03   0.112E+01 -.193E+01 0.243E+01   0.108E-01 -.107E-01 -.707E-01
 -----------------------------------------------------------------------------------------------
   0.478E-04 -.384E-04 -.154E+01   -.124E-13 -.355E-14 0.568E-13   0.444E-15 -.222E-15 0.160E+01   -.199E-06 0.782E-06 -.901E-01


 POSITION                                       TOTAL-FORCE (eV/Angst)
 -----------------------------------------------------------------------------------
      3.11789      1.80012     10.93239         0.000000      0.000000     -0.019510
      6.23580      3.60024     10.92928        -0.000000      0.000000      0.012227
     -0.00000     -0.00000      9.79237         0.000000      0.000000     -0.153192
     -0.00000     -0.00000     12.11829         0.000000      0.000000     -0.005757
      3.93606      0.00283     12.45443         0.009320     -0.023778      0.010486
      1.15232      1.99022     12.45443        -0.025252      0.003818      0.010486
      4.26532      3.40731     12.45443         0.015933      0.019960      0.010486
      2.41660      0.00108      9.43610         0.049604     -0.007355      0.044925
      1.91053      3.30697      9.43610        -0.031172     -0.039281      0.044925
      5.02655      2.09230      9.43610        -0.018432      0.046636      0.044925
 -----------------------------------------------------------------------------------
    total drift:                                0.000048     -0.000038     -0.030878


--------------------------------------------------------------------------------------------------------



  FREE ENERGIE OF THE ION-ELECTRON SYSTEM (eV)
  ---------------------------------------------------
  free  energy   TOTEN  =       -43.80071164 eV

  energy  without entropy=      -43.80071164  energy(sigma->0) =      -43.80071164

 d Force = 0.4709915E-03[ 0.461E-03, 0.481E-03]  d Energy = 0.4316152E-03 0.394E-04
 d Force =-0.1721759E+01[-0.172E+01,-0.172E+01]  d Ewald  =-0.1513166E+01-0.209E+00


--------------------------------------------------------------------------------------------------------


    POTLOK:  cpu time   51.4200: real time   51.5700


--------------------------------------------------------------------------------------------------------




--------------------------------------------------------------------------------------------------------


  
 reached required accuracy - stopping structural energy minimisation
     LOOP+:  cpu time  442.0040: real time  445.0798
    4ORBIT:  cpu time    0.0000: real time    0.0000



 total charge     

# of ion       s       p       d       tot
------------------------------------------
    1        0.365   0.453   6.319   7.136
    2        0.364   0.450   6.316   7.130
    3        1.166   1.165   0.097   2.428
    4        0.759   0.863   0.000   1.622
    5        1.481   2.303   0.047   3.832
    6        1.476   2.320   0.048   3.844
    7        1.480   2.307   0.048   3.835
    8        1.487   2.280   0.049   3.815
    9        1.483   2.295   0.048   3.825
   10        1.486   2.281   0.049   3.816
--------------------------------------------------
tot         11.546  16.717  13.020  41.283



 magnetization (x)

# of ion       s       p       d       tot
------------------------------------------
    1        0.011   0.013   1.097   1.121
    2        0.012   0.013   1.104   1.128
    3       -0.005   0.004  -0.001  -0.002
    4       -0.002   0.004   0.000   0.002
    5       -0.001  -0.038  -0.000  -0.039
    6       -0.001  -0.017  -0.001  -0.019
    7       -0.001  -0.033  -0.000  -0.034
    8       -0.002  -0.048  -0.000  -0.050
    9       -0.002  -0.026  -0.001  -0.028
   10       -0.002  -0.043  -0.001  -0.045
--------------------------------------------------
tot          0.008  -0.172   2.198   2.035

 BZINTS: Fermi energy: -2.637192; 60.000000 electrons
         Band energy:-461.097515;  BLOECHL correction:  0.000000

 total amount of memory used by VASP MPI-rank0   132253. kBytes
=======================================================================

   base      :      30000. kBytes
   nonlr-proj:       9753. kBytes
   fftplans  :      11247. kBytes
   grid      :      68332. kBytes
   one-center:        311. kBytes
   wavefun   :      12610. kBytes

  
  
 General timing and accounting informations for this job:
 ========================================================
  
                  Total CPU time used (sec):    19364.504
                            User time (sec):    18940.744
                          System time (sec):      423.760
                         Elapsed time (sec):    19496.226
  
                   Maximum memory used (kb):      388900.
                   Average memory used (kb):           0.
  
                          Minor page faults:     19352421
                          Major page faults:            8
                 Voluntary context switches:         1123
