 vasp.5.4.4.18Apr17-6-g9f103f2a35 (build May  1 2020 15:48:39) complex           
 executed on             LinuxGNU date 2020.07.09  09:49:21
 running on   16 total cores
 distrk:  each k-point on   16 cores,    1 groups
 distr:  one band on NCORES_PER_BAND=   1 cores,   16 groups


--------------------------------------------------------------------------------------------------------


 INCAR:
 POTCAR:   PAW_PBE Mn 06Sep2000                   
 POTCAR:    PAW_PBE P 17Jan2003                   
 POTCAR:    PAW_PBE S 17Jan2003                   

 ----------------------------------------------------------------------------- 
|                                                                             |
|           W    W    AA    RRRRR   N    N  II  N    N   GGGG   !!!           |
|           W    W   A  A   R    R  NN   N  II  NN   N  G    G  !!!           |
|           W    W  A    A  R    R  N N  N  II  N N  N  G       !!!           |
|           W WW W  AAAAAA  RRRRR   N  N N  II  N  N N  G  GGG   !            |
|           WW  WW  A    A  R   R   N   NN  II  N   NN  G    G                |
|           W    W  A    A  R    R  N    N  II  N    N   GGGG   !!!           |
|                                                                             |
|      For optimal performance we recommend to set                            |
|        NCORE= 4 - approx SQRT( number of cores)                             |
|      NCORE specifies how many cores store one orbital (NPAR=cpu/NCORE).     |
|      This setting can  greatly improve the performance of VASP for DFT.     |
|      The default,   NCORE=1            might be grossly inefficient         |
|      on modern multi-core architectures or massively parallel machines.     |
|      Do your own testing !!!!                                               |
|      Unfortunately you need to use the default for GW and RPA calculations. |
|      (for HF NCORE is supported but not extensively tested yet)             |
|                                                                             |
 ----------------------------------------------------------------------------- 


 ----------------------------------------------------------------------------- 
|                                                                             |
|  ADVICE TO THIS USER RUNNING 'VASP/VAMP'   (HEAR YOUR MASTER'S VOICE ...):  |
|                                                                             |
|      You have switched on vdW-DFT.                                          |
|      This routine was written and supplied by Jiri Klimes.                  |
|      We recommed that you carefully read and cite the following             |
|      publication                                                            |
|      J. Klimes, D.R. Bowler, A. Michelides                                  |
|        J. Phys.: Cond Matt. 22 022201 (2010)                                |
|      J. Klimes, D.R. Bowler, A. Michelides                                  |
|        Phys. Rev. B. 83, 195131 (2011)                                      |
|      and references therein.                                                |
|                                                                             |
 ----------------------------------------------------------------------------- 

 POTCAR:   PAW_PBE Mn 06Sep2000                   
   VRHFIN =Mn: d6 s1                                                            
   LEXCH  = PE                                                                  
   EATOM  =   416.8732 eV,   30.6393 Ry                                         
                                                                                
   TITEL  = PAW_PBE Mn 06Sep2000                                                
   LULTRA =        F    use ultrasoft PP ?                                      
   IUNSCR =        1    unscreen: 0-lin 1-nonlin 2-no                           
   RPACOR =    2.000    partial core radius                                     
   POMASS =   54.938; ZVAL   =    7.000    mass and valenz                      
   RCORE  =    2.300    outmost cutoff radius                                   
   RWIGS  =    2.500; RWIGS  =    1.323    wigner-seitz radius (au A)           
   ENMAX  =  269.865; ENMIN  =  202.399 eV                                      
   RCLOC  =    1.725    cutoff for local pot                                    
   LCOR   =        T    correct aug charges                                     
   LPAW   =        T    paw PP                                                  
   EAUG   =  500.711                                                            
   DEXC   =    -.071                                                            
   RMAX   =    2.807    core radius for proj-oper                               
   RAUG   =    1.300    factor for augmentation sphere                          
   RDEP   =    2.338    radius for radial grids                                 
   QCUT   =   -4.454; QGAM   =    8.907    optimization parameters              
                                                                                
   Description                                                                  
     l     E      TYP  RCUT    TYP  RCUT                                        
     2   .000     23  2.300                                                     
     2   .000     23  2.300                                                     
     0   .000     23  2.300                                                     
     0   .000     23  2.300                                                     
     1  -.200     23  2.300                                                     
     1  1.500     23  2.300                                                     
     3   .000      7   .000                                                     
  local pseudopotential read in
  partial core-charges read in
  atomic valenz-charges read in
  non local Contribution for L=           2  read in
    real space projection operators read in
  non local Contribution for L=           2  read in
    real space projection operators read in
  non local Contribution for L=           0  read in
    real space projection operators read in
  non local Contribution for L=           0  read in
    real space projection operators read in
  non local Contribution for L=           1  read in
    real space projection operators read in
  non local Contribution for L=           1  read in
    real space projection operators read in
    PAW grid and wavefunctions read in

   number of l-projection  operators is LMAX  =           6
   number of lm-projection operators is LMMAX =          18

 POTCAR:    PAW_PBE P 17Jan2003                   
   VRHFIN =P : s2p3                                                             
   LEXCH  = PE                                                                  
   EATOM  =   176.0430 eV,   12.9388 Ry                                         
                                                                                
   TITEL  = PAW_PBE P 17Jan2003                                                 
   LULTRA =        F    use ultrasoft PP ?                                      
   IUNSCR =        1    unscreen: 0-lin 1-nonlin 2-no                           
   RPACOR =    1.500    partial core radius                                     
   POMASS =   30.974; ZVAL   =    5.000    mass and valenz                      
   RCORE  =    1.900    outmost cutoff radius                                   
   RWIGS  =    2.330; RWIGS  =    1.233    wigner-seitz radius (au A)           
   ENMAX  =  270.000; ENMIN  =  191.280 eV                                      
   ICORE  =        2    local potential                                         
   LCOR   =        T    correct aug charges                                     
   LPAW   =        T    paw PP                                                  
   EAUG   =  342.924                                                            
   DEXC   =    -.002                                                            
   RMAX   =    2.887    core radius for proj-oper                               
   RAUG   =    1.300    factor for augmentation sphere                          
   RDEP   =    1.931    radius for radial grids                                 
   QCUT   =   -4.330; QGAM   =    8.659    optimization parameters              
                                                                                
   Description                                                                  
     l     E      TYP  RCUT    TYP  RCUT                                        
     0   .000     23  1.900                                                     
     0   .000     23  1.900                                                     
     1   .000     23  1.900                                                     
     1   .000     23  1.900                                                     
     2   .000     23  1.900                                                     
  local pseudopotential read in
  partial core-charges read in
  atomic valenz-charges read in
  non local Contribution for L=           0  read in
    real space projection operators read in
  non local Contribution for L=           0  read in
    real space projection operators read in
  non local Contribution for L=           1  read in
    real space projection operators read in
  non local Contribution for L=           1  read in
    real space projection operators read in
    PAW grid and wavefunctions read in

   number of l-projection  operators is LMAX  =           4
   number of lm-projection operators is LMMAX =           8

 POTCAR:    PAW_PBE S 17Jan2003                   
   VRHFIN =S : s2p4                                                             
   LEXCH  = PE                                                                  
   EATOM  =   276.8230 eV,   20.3459 Ry                                         
                                                                                
   TITEL  = PAW_PBE S 17Jan2003                                                 
   LULTRA =        F    use ultrasoft PP ?                                      
   IUNSCR =        1    unscreen: 0-lin 1-nonlin 2-no                           
   RPACOR =    1.500    partial core radius                                     
   POMASS =   32.066; ZVAL   =    6.000    mass and valenz                      
   RCORE  =    1.900    outmost cutoff radius                                   
   RWIGS  =    2.200; RWIGS  =    1.164    wigner-seitz radius (au A)           
   ENMAX  =  280.000; ENMIN  =  194.016 eV                                      
   ICORE  =        2    local potential                                         
   LCOR   =        T    correct aug charges                                     
   LPAW   =        T    paw PP                                                  
   EAUG   =  335.092                                                            
   DEXC   =     .000                                                            
   RMAX   =    2.867    core radius for proj-oper                               
   RAUG   =    1.300    factor for augmentation sphere                          
   RDEP   =    1.954    radius for radial grids                                 
   QCUT   =   -4.360; QGAM   =    8.721    optimization parameters              
                                                                                
   Description                                                                  
     l     E      TYP  RCUT    TYP  RCUT                                        
     0   .000     23  1.900                                                     
     0   .000     23  1.900                                                     
     1   .000     23  1.900                                                     
     1   .000     23  1.900                                                     
     2   .000     23  1.900                                                     
  local pseudopotential read in
  partial core-charges read in
  atomic valenz-charges read in
  non local Contribution for L=           0  read in
    real space projection operators read in
  non local Contribution for L=           0  read in
    real space projection operators read in
  non local Contribution for L=           1  read in
    real space projection operators read in
  non local Contribution for L=           1  read in
    real space projection operators read in
    PAW grid and wavefunctions read in

   number of l-projection  operators is LMAX  =           4
   number of lm-projection operators is LMMAX =           8

 Optimization of the real space projectors (new method)

 maximal supplied QI-value         = 16.25
 optimisation between [QCUT,QGAM] = [ 11.54, 23.24] = [ 37.28,151.24] Ry 
 Optimized for a Real-space Cutoff    1.53 Angstroem

   l    n(q)    QCUT    max X(q) W(low)/X(q) W(high)/X(q)  e(spline) 
   2     10    11.539     4.144    0.87E-05    0.14E-04    0.48E-07
   2     10    11.539    35.116    0.12E-03    0.13E-03    0.25E-06
   0     11    11.539    20.431    0.20E-04    0.18E-05    0.19E-07
   0     11    11.539    61.159    0.37E-04    0.19E-04    0.29E-06
   1     10    11.539     6.695    0.11E-04    0.24E-05    0.29E-07
   1     10    11.539     8.642    0.41E-04    0.18E-04    0.11E-06
 Optimization of the real space projectors (new method)

 maximal supplied QI-value         = 19.84
 optimisation between [QCUT,QGAM] = [ 11.51, 23.22] = [ 37.09,150.92] Ry 
 Optimized for a Real-space Cutoff    1.21 Angstroem

   l    n(q)    QCUT    max X(q) W(low)/X(q) W(high)/X(q)  e(spline) 
   0      8    11.508     6.651    0.19E-04    0.31E-05    0.49E-08
   0      8    11.508    90.285    0.95E-04    0.17E-03    0.51E-07
   1      8    11.508     4.328    0.14E-04    0.32E-04    0.22E-07
   1      8    11.508    54.583    0.16E-03    0.71E-04    0.89E-07
 Optimization of the real space projectors (new method)

 maximal supplied QI-value         = 19.84
 optimisation between [QCUT,QGAM] = [ 11.51, 23.22] = [ 37.09,150.92] Ry 
 Optimized for a Real-space Cutoff    1.21 Angstroem

   l    n(q)    QCUT    max X(q) W(low)/X(q) W(high)/X(q)  e(spline) 
   0      8    11.508     5.487    0.18E-04    0.22E-05    0.47E-08
   0      8    11.508    85.627    0.96E-04    0.18E-03    0.54E-07
   1      8    11.508     3.530    0.17E-04    0.28E-04    0.21E-07
   1      8    11.508    42.714    0.18E-03    0.63E-04    0.92E-07

 ----------------------------------------------------------------------------- 
|                                                                             |
|  ADVICE TO THIS USER RUNNING 'VASP/VAMP'   (HEAR YOUR MASTER'S VOICE ...):  |
|                                                                             |
|      You enforced a specific xc-type in the INCAR file,                     |
|      a different type was found on the POTCAR file                          |
|          I HOPE YOU KNOW, WHAT YOU ARE  DOING                               |
|                                                                             |
 ----------------------------------------------------------------------------- 

 PAW_PBE Mn 06Sep2000                   :
 energy of atom  1       EATOM= -416.8732
 kinetic energy error for atom=    0.0024 (will be added to EATOM!!)
  PAW_PBE P 17Jan2003                   :
 energy of atom  2       EATOM= -176.0430
 kinetic energy error for atom=    0.0011 (will be added to EATOM!!)
  PAW_PBE S 17Jan2003                   :
 energy of atom  3       EATOM= -276.8230
 kinetic energy error for atom=    0.0016 (will be added to EATOM!!)


 POSCAR: Mn2 P2 S6                               
  positions in direct lattice
  velocities in cartesian coordinates
  No initial velocities read in
 exchange correlation table for  LEXCH =       42
   RHO(1)=    0.500       N(1)  =     2000
   RHO(2)=  100.500       N(2)  =     4000



--------------------------------------------------------------------------------------------------------


 ion  position               nearest neighbor table
   1  0.333  0.333  0.500-   6 2.78   5 2.78   7 2.78   8 2.78  10 2.78   9 2.78
   2  0.667  0.667  0.500-   9 2.78   8 2.78  10 2.78   5 2.78   7 2.78   6 2.78
   3  0.000  0.000  0.448-   4 2.43   8 2.63  10 2.63   9 2.63
   4  0.000  0.000  0.552-   3 2.43   5 2.63   7 2.63   6 2.63
   5  0.626  0.000  0.574-   4 2.63   1 2.78   2 2.78
   6  0.000  0.373  0.574-   4 2.63   1 2.78   2 2.78
   7  0.373  0.626  0.574-   4 2.63   1 2.78   2 2.78
   8  0.374  1.000  0.426-   3 2.63   2 2.78   1 2.78
   9  1.000  0.627  0.426-   3 2.63   2 2.78   1 2.78
  10  0.627  0.374  0.426-   3 2.63   2 2.78   1 2.78

  LATTYP: Found a hexagonal cell.
 ALAT       =     6.9077769333
 C/A-ratio  =     3.3939410937
  
  Lattice vectors:
  
 A1 = (   3.4538890000,  -5.9823100000,   0.0000000000)
 A2 = (  -6.9077770000,   0.0000000000,   0.0000000000)
 A3 = (   0.0000000000,   0.0000000000, -23.4445880000)


Analysis of symmetry for initial positions (statically):
=====================================================================
 Subroutine PRICEL returns:
 Original cell was already a primitive cell.
 

 Routine SETGRP: Setting up the symmetry group for a 
 hexagonal supercell.


 Subroutine GETGRP returns: Found  6 space group operations
 (whereof  6 operations were pure point group operations)
 out of a pool of 24 trial point group operations.


The static configuration has the point symmetry S_6 .


Analysis of symmetry for dynamics (positions and initial velocities):
=====================================================================
 Subroutine PRICEL returns:
 Original cell was already a primitive cell.
 

 Routine SETGRP: Setting up the symmetry group for a 
 hexagonal supercell.


 Subroutine GETGRP returns: Found  6 space group operations
 (whereof  6 operations were pure point group operations)
 out of a pool of 24 trial point group operations.


The dynamic configuration has the point symmetry S_6 .


Analysis of constrained symmetry for selective dynamics:
=====================================================================
 Subroutine PRICEL returns:
 Original cell was already a primitive cell.
 

 Routine SETGRP: Setting up the symmetry group for a 
 hexagonal supercell.


 Subroutine GETGRP returns: Found  6 space group operations
 (whereof  6 operations were pure point group operations)
 out of a pool of 24 trial point group operations.


The constrained configuration has the point symmetry S_6 .


Analysis of structural, dynamic, and magnetic symmetry:
=====================================================================
 Subroutine PRICEL returns:
 Original cell was already a primitive cell.
 

 Routine SETGRP: Setting up the symmetry group for a 
 hexagonal supercell.


 Subroutine GETGRP returns: Found  6 space group operations
 (whereof  6 operations were pure point group operations)
 out of a pool of 24 trial point group operations.


The magnetic configuration has the point symmetry S_6 .


 Subroutine INISYM returns: Found  6 space group operations
 (whereof  6 operations are pure point group operations),
 and found     1 'primitive' translations



 KPOINTS: Kpoints from vasprun.xml                

Automatic generation of k-mesh.
Space group operators:
 irot       det(A)        alpha          n_x          n_y          n_z        tau_x        tau_y        tau_z
    1     1.000000     0.000000     1.000000     0.000000     0.000000     0.000000     0.000000     0.000000
    2    -1.000000     0.000000     1.000000     0.000000     0.000000     0.000000     0.000000     0.000000
    3     1.000000   120.000000     0.000000     0.000000     1.000000     0.000000     0.000000     0.000000
    4    -1.000000   120.000000     0.000000     0.000000     1.000000     0.000000     0.000000     0.000000
    5     1.000000   120.000000     0.000000     0.000000    -1.000000     0.000000     0.000000     0.000000
    6    -1.000000   120.000000     0.000000     0.000000    -1.000000     0.000000     0.000000     0.000000
 
 Subroutine IBZKPT returns following result:
 ===========================================
 
 Found      5 irreducible k-points:
 
 Following reciprocal coordinates:
            Coordinates               Weight
  0.000000  0.000000  0.000000      1.000000
  0.200000  0.000000  0.000000      6.000000
  0.400000  0.000000  0.000000      6.000000
  0.400000  0.200000  0.000000      6.000000
 -0.400000  0.200000  0.000000      6.000000
 
 Following cartesian coordinates:
            Coordinates               Weight
  0.000000  0.000000  0.000000      1.000000
  0.028953 -0.016716  0.000000      6.000000
  0.057906 -0.033432  0.000000      6.000000
  0.057906  0.000000  0.000000      6.000000
 -0.057906  0.066864  0.000000      6.000000
 
 TETIRR: Found     15 inequivalent tetrahedra from      150


--------------------------------------------------------------------------------------------------------




 Dimension of arrays:
   k-points           NKPTS =      5   k-points in BZ     NKDIM =      5   number of bands    NBANDS=     48
   number of dos      NEDOS =    301   number of ions     NIONS =     10
   non local maximal  LDIM  =      6   non local SUM 2l+1 LMDIM =     18
   total plane-waves  NPLWV = 524880
   max r-space proj   IRMAX =   8238   max aug-charges    IRDMAX=  20115
   dimension x,y,z NGX =    54 NGY =   54 NGZ =  180
   dimension x,y,z NGXF=   108 NGYF=  108 NGZF=  360
   support grid    NGXF=   108 NGYF=  108 NGZF=  360
   ions per type =               2   2   6
   NGX,Y,Z   is equivalent  to a cutoff of  13.00, 13.00, 12.76 a.u.
   NGXF,Y,Z  is equivalent  to a cutoff of  25.99, 25.99, 25.53 a.u.

 SYSTEM =  unknown system                          
 POSCAR =  Mn2 P2 S6                               

 Startparameter for this run:
   NWRITE =      2    write-flag & timer
   PREC   = accura    normal or accurate (medium, high low for compatibility)
   ISTART =      0    job   : 0-new  1-cont  2-samecut
   ICHARG =      2    charge: 1-file 2-atom 10-const
   ISPIN  =      2    spin polarized calculation?
   LNONCOLLINEAR =      F non collinear calculations
   LSORBIT =      F    spin-orbit coupling
   INIWAV =      1    electr: 0-lowe 1-rand  2-diag
   LASPH  =      F    aspherical Exc in radial PAW
   METAGGA=      F    non-selfconsistent MetaGGA calc.

 Electronic Relaxation 1
   ENCUT  =  520.0 eV  38.22 Ry    6.18 a.u.  12.84 12.84 43.59*2*pi/ulx,y,z
   ENINI  =  520.0     initial cutoff
   ENAUG  =  500.7 eV  augmentation charge cutoff
   NELM   =    400;   NELMIN=  2; NELMDL=  0     # of ELM steps 
   EDIFF  = 0.1E-03   stopping-criterion for ELM
   LREAL  =      T    real-space projection
   NLSPLINE    = F    spline interpolate recip. space projectors
   LCOMPAT=      F    compatible to vasp.4.4
   GGA_COMPAT  = T    GGA compatible to vasp.4.4-vasp.4.6
   LMAXPAW     = -100 max onsite density
   LMAXMIX     =    2 max onsite mixed and CHGCAR
   VOSKOWN=      0    Vosko Wilk Nusair interpolation
   ROPT   =   -0.00025  -0.00025  -0.00025
 Ionic relaxation
   EDIFFG = 0.1E-02   stopping-criterion for IOM
   NSW    =     99    number of steps for IOM
   NBLOCK =      1;   KBLOCK =     99    inner block; outer block 
   IBRION =      2    ionic relax: 0-MD 1-quasi-New 2-CG
   NFREE  =      1    steps in history (QN), initial steepest desc. (CG)
   ISIF   =      3    stress and relaxation
   IWAVPR =     11    prediction:  0-non 1-charg 2-wave 3-comb
   ISYM   =      2    0-nonsym 1-usesym 2-fastsym
   LCORR  =      T    Harris-Foulkes like correction to forces

   POTIM  = 0.5000    time-step for ionic-motion
   TEIN   =    0.0    initial temperature
   TEBEG  =    0.0;   TEEND  =   0.0 temperature during run
   SMASS  =  -3.00    Nose mass-parameter (am)
   estimated Nose-frequenzy (Omega)   =  0.10E-29 period in steps =****** mass=  -0.109E-26a.u.
   SCALEE = 1.0000    scale energy and forces
   NPACO  =    256;   APACO  = 16.0  distance and # of slots for P.C.
   PSTRESS=    0.0 pullay stress

  Mass of Ions in am
   POMASS =  54.94 30.97 32.07
  Ionic Valenz
   ZVAL   =   7.00  5.00  6.00
  Atomic Wigner-Seitz radii
   RWIGS  =  -1.00 -1.00 -1.00
  virtual crystal weights 
   VCA    =   1.00  1.00  1.00
   NELECT =      60.0000    total number of electrons
   NUPDOWN=      -1.0000    fix difference up-down

 DOS related values:
   EMIN   =  10.00;   EMAX   =-10.00  energy-range for DOS
   EFERMI =   0.00
   ISMEAR =    -5;   SIGMA  =   0.05  broadening in eV -4-tet -1-fermi 0-gaus

 Electronic relaxation 2 (details)
   IALGO  =     38    algorithm
   LDIAG  =      T    sub-space diagonalisation (order eigenvalues)
   LSUBROT=      F    optimize rotation matrix (better conditioning)
   TURBO    =      0    0=normal 1=particle mesh
   IRESTART =      0    0=no restart 2=restart with 2 vectors
   NREBOOT  =      0    no. of reboots
   NMIN     =      0    reboot dimension
   EREF     =   0.00    reference energy to select bands
   IMIX   =      4    mixing-type and parameters
     AMIX     =   0.40;   BMIX     =  1.00
     AMIX_MAG =   1.60;   BMIX_MAG =  1.00
     AMIN     =   0.01
     WC   =   100.;   INIMIX=   1;  MIXPRE=   1;  MAXMIX= -45

 Intra band minimization:
   WEIMIN = 0.0010     energy-eigenvalue tresh-hold
   EBREAK =  0.52E-06  absolut break condition
   DEPER  =   0.30     relativ break condition  

   TIME   =   0.40     timestep for ELM

  volume/ion in A,a.u.               =      96.88       653.80
  Fermi-wavevector in a.u.,A,eV,Ry     =   0.647702  1.223979  5.707889  0.419518
  Thomas-Fermi vector in A             =   1.716096

 Write flags
   LWAVE        =      F    write WAVECAR
   LDOWNSAMPLE  =      F    k-point downsampling of WAVECAR
   LCHARG       =      T    write CHGCAR
   LVTOT        =      F    write LOCPOT, total local potential
   LVHAR        =      F    write LOCPOT, Hartree potential only
   LELF         =      F    write electronic localiz. function (ELF)
   LORBIT       =     11    0 simple, 1 ext, 2 COOP (PROOUT), +10 PAW based schemes


 Dipole corrections
   LMONO  =      F    monopole corrections only (constant potential shift)
   LDIPOL =      F    correct potential (dipole corrections)
   IDIPOL =      0    1-x, 2-y, 3-z, 4-all directions 
   EPSILON=  1.0000000 bulk dielectric constant

 Exchange correlation treatment:
   GGA     =    BO    GGA type
   LEXCH   =    42    internal setting for exchange type
   VOSKOWN=      0    Vosko Wilk Nusair interpolation
   LHFCALC =     F    Hartree Fock is set to
   LHFONE  =     F    Hartree Fock one center treatment
   AEXX    =    0.0000 exact exchange contribution

 vdW DFT:
   LUSE_VDW   =     T    switch on vdW DFT
   Zab_VDW    =-.8491    correlation parameter
   PARAM1     =0.1833
   PARAM2     =0.2200
   PARAM3     =0.0000
   -- rVV10 --
   BPARAM     = 6.3000
   CPARAM     = 0.0093

 Linear response parameters
   LEPSILON=     F    determine dielectric tensor
   LRPA    =     F    only Hartree local field effects (RPA)
   LNABLA  =     F    use nabla operator in PAW spheres
   LVEL    =     F    velocity operator in full k-point grid
   LINTERFAST=   F  fast interpolation
   KINTER  =     0    interpolate to denser k-point grid
   CSHIFT  =0.1000    complex shift for real part using Kramers Kronig
   OMEGAMAX=  -1.0    maximum frequency
   DEG_THRESHOLD= 0.2000000E-02 threshold for treating states as degnerate
   RTIME   =   -0.100 relaxation time in fs
  (WPLASMAI=    0.000 imaginary part of plasma frequency in eV, 0.658/RTIME)
   DFIELD  = 0.0000000 0.0000000 0.0000000 field for delta impulse in time

 Orbital magnetization related:
   ORBITALMAG=     F  switch on orbital magnetization
   LCHIMAG   =     F  perturbation theory with respect to B field
   DQ        =  0.001000  dq finite difference perturbation B field
   LLRAUG    =     F  two centre corrections for induced B field



--------------------------------------------------------------------------------------------------------


 conjugate gradient relaxation of ions
   using selective dynamics as specified on POSCAR
 charge density and potential will be updated during run
 spin polarized calculation
 Variant of blocked Davidson
 Davidson routine will perform the subspace rotation
 perform sub-space diagonalisation
    after iterative eigenvector-optimisation
 modified Broyden-mixing scheme, WC =      100.0
 initial mixing is a Kerker type mixing with AMIX =  0.4000 and BMIX =      1.0000
 Hartree-type preconditioning will be used
 using additional bands           18
 real space projection scheme for non local part
 use partial core corrections
 calculate Harris-corrections to forces   (improved forces if not selfconsistent)
 use gradient corrections 
 use of overlap-Matrix (Vanderbilt PP)
 Fermi weights with tetrahedron method with Bloechl corrections


--------------------------------------------------------------------------------------------------------


  energy-cutoff  :      520.00
  volume of cell :      968.84
      direct lattice vectors                 reciprocal lattice vectors
     6.907777000 -0.000000000  0.000000000     0.144764372 -0.083579742  0.000000000
     3.453888000  5.982310000  0.000000000     0.000000000  0.167159509 -0.000000000
     0.000000000  0.000000000 23.444588000    -0.000000000  0.000000000  0.042653767

  length of vectors
     6.907777000  6.907776433 23.444588000     0.167159495  0.167159509  0.042653767



 k-points in units of 2pi/SCALE and weight: Kpoints from vasprun.xml                
   0.00000000  0.00000000  0.00000000       0.040
   0.02895287 -0.01671595  0.00000000       0.240
   0.05790575 -0.03343190  0.00000000       0.240
   0.05790575  0.00000000  0.00000000       0.240
  -0.05790575  0.06686380  0.00000000       0.240

 k-points in reciprocal lattice and weights: Kpoints from vasprun.xml                
   0.00000000  0.00000000  0.00000000       0.040
   0.20000000  0.00000000  0.00000000       0.240
   0.40000000  0.00000000  0.00000000       0.240
   0.40000000  0.20000000  0.00000000       0.240
  -0.40000000  0.20000000  0.00000000       0.240

 position of ions in fractional coordinates (direct lattice) 
   0.33333300  0.33333300  0.49992500
   0.66666700  0.66666700  0.50007500
   0.00000000  0.00000000  0.44821600
   0.00000000  0.00000000  0.55178400
   0.62635700  0.00042000  0.57375200
   0.00042000  0.37322400  0.57375200
   0.37322400  0.62635700  0.57375200
   0.37364300  0.99958000  0.42624800
   0.99958000  0.62677600  0.42624800
   0.62677600  0.37364300  0.42624800

 position of ions in cartesian coordinates  (Angst):
   3.45388488  1.99410134 11.72053566
   6.90778012  3.98820866 11.72405234
   0.00000000  0.00000000 10.50823946
   0.00000000  0.00000000 12.93634854
   4.32818511  0.00251257 13.45137925
   1.29197516  2.23274167 13.45137925
   4.74151509  3.74706174 13.45137925
   6.03347989  5.97979743  9.99320875
   9.06968984  3.74956833  9.99320875
   5.62014991  2.23524826  9.99320875



--------------------------------------------------------------------------------------------------------


 k-point  1 :   0.0000 0.0000 0.0000  plane waves:   26073
 k-point  2 :   0.2000 0.0000 0.0000  plane waves:   26070
 k-point  3 :   0.4000 0.0000 0.0000  plane waves:   26086
 k-point  4 :   0.4000 0.2000 0.0000  plane waves:   26085
 k-point  5 :  -0.4000 0.2000 0.0000  plane waves:   26115

 maximum and minimum number of plane-waves per node :     26115    26070

 maximum number of plane-waves:     26115
 maximum index in each direction: 
   IXMAX=   13   IYMAX=   12   IZMAX=   43
   IXMIN=  -13   IYMIN=  -13   IZMIN=  -43


 serial   3D FFT for wavefunctions
 parallel 3D FFT for charge:
    minimum data exchange during FFTs selected (reduces bandwidth)


 total amount of memory used by VASP MPI-rank0   126399. kBytes
=======================================================================

   base      :      30000. kBytes
   nonlr-proj:       6104. kBytes
   fftplans  :      11247. kBytes
   grid      :      66142. kBytes
   one-center:        311. kBytes
   wavefun   :      12595. kBytes

     INWAV:  cpu time    0.0000: real time    0.0004
 Broyden mixing: mesh for mixing (old mesh)
   NGX = 25   NGY = 25   NGZ = 87
  (NGX  =108   NGY  =108   NGZ  =360)
  gives a total of  54375 points

 initial charge density was supplied:
 charge density of overlapping atoms calculated
 number of electron      60.0000000 magnetization       7.0000000
 keeping initial charge density in first step


--------------------------------------------------------------------------------------------------------


 Maximum index for non-local projection operator         7925
 Maximum index for augmentation-charges         1290 (set IRDMAX)


--------------------------------------------------------------------------------------------------------


 First call to EWALD:  gamma=   0.179
 Maximum number of real-space cells 4x 4x 1
 Maximum number of reciprocal cells 2x 2x 6

    FEWALD:  cpu time    0.0040: real time    0.0014


--------------------------------------- Iteration      1(   1)  ---------------------------------------


vdW kernel read from vdw_kernel.bindat
  0.0000  0.2424  0.5071  0.7962  1.1119  1.4567  1.8333  2.2446  2.6937  3.1842
  3.7199  4.3049  4.9438  5.6415  6.4036  7.2358  8.1446  9.1372 10.2212 11.4050
 12.6979 14.1099 15.6519 17.3360 19.1751 21.1837 23.3773 25.7729 28.3892 31.2465
 34.3669 37.7748 41.4965 45.5611 50.0000

    POTLOK:  cpu time   52.2640: real time   52.6199
    SETDIJ:  cpu time    0.0360: real time    0.0382
     EDDAV:  cpu time   22.3840: real time   22.5036
 BZINTS: Fermi energy:  6.010968; 60.000000 electrons
         Band energy:  -8.213124;  BLOECHL correction: -0.040898
       DOS:  cpu time    0.0080: real time    0.0065
    --------------------------------------------
      LOOP:  cpu time   74.6920: real time   75.1682

 eigenvalue-minimisations  :   960
 total energy-change (2. order) : 0.4372690E+03  (-0.1743767E+04)
 number of electron      60.0000000 magnetization       7.0000000
 augmentation part       60.0000000 magnetization       7.0000000

 Free energy of the ion-electron system (eV)
  ---------------------------------------------------
  alpha Z        PSCENC =        21.59586747
  Ewald energy   TEWEN  =      6985.74515320
  -Hartree energ DENC   =     -9538.06853929
  -exchange      EXHF   =         0.00000000
  -V(xc)+E(xc)   XCENC  =        47.55290496
  PAW double counting   =      1350.53879019    -1279.28075271
  entropy T*S    EENTRO =         0.00000000
  eigenvalues    EBANDS =        -8.21312423
  atomic energy  EATOM  =      2857.39865925
  Solvation  Ediel_sol  =         0.00000000
  ---------------------------------------------------
  free energy    TOTEN  =       437.26895885 eV

  energy without entropy =      437.26895885  energy(sigma->0) =      437.26895885


--------------------------------------------------------------------------------------------------------




--------------------------------------- Iteration      1(   2)  ---------------------------------------


     EDDAV:  cpu time   27.2040: real time   27.6520
 BZINTS: Fermi energy: -0.706423; 60.000000 electrons
         Band energy:-406.945110;  BLOECHL correction: -0.158631
       DOS:  cpu time    0.0080: real time    0.0051
    --------------------------------------------
      LOOP:  cpu time   27.2120: real time   27.6572

 eigenvalue-minimisations  :  1200
 total energy-change (2. order) :-0.3987320E+03  (-0.3674139E+03)
 number of electron      60.0000000 magnetization       7.0000000
 augmentation part       60.0000000 magnetization       7.0000000

 Free energy of the ion-electron system (eV)
  ---------------------------------------------------
  alpha Z        PSCENC =        21.59586747
  Ewald energy   TEWEN  =      6985.74515320
  -Hartree energ DENC   =     -9538.06853929
  -exchange      EXHF   =         0.00000000
  -V(xc)+E(xc)   XCENC  =        47.55290496
  PAW double counting   =      1350.53879019    -1279.28075271
  entropy T*S    EENTRO =         0.00000000
  eigenvalues    EBANDS =      -406.94511021
  atomic energy  EATOM  =      2857.39865925
  Solvation  Ediel_sol  =         0.00000000
  ---------------------------------------------------
  free energy    TOTEN  =        38.53697287 eV

  energy without entropy =       38.53697287  energy(sigma->0) =       38.53697287


--------------------------------------------------------------------------------------------------------




--------------------------------------- Iteration      1(   3)  ---------------------------------------


     EDDAV:  cpu time   31.0560: real time   31.2794
 BZINTS: Fermi energy: -2.517667; 60.000000 electrons
         Band energy:-495.737282;  BLOECHL correction:  0.000000
       DOS:  cpu time    0.0000: real time    0.0017
    --------------------------------------------
      LOOP:  cpu time   31.0560: real time   31.2811

 eigenvalue-minimisations  :  1376
 total energy-change (2. order) :-0.8879217E+02  (-0.8523467E+02)
 number of electron      60.0000000 magnetization       7.0000000
 augmentation part       60.0000000 magnetization       7.0000000

 Free energy of the ion-electron system (eV)
  ---------------------------------------------------
  alpha Z        PSCENC =        21.59586747
  Ewald energy   TEWEN  =      6985.74515320
  -Hartree energ DENC   =     -9538.06853929
  -exchange      EXHF   =         0.00000000
  -V(xc)+E(xc)   XCENC  =        47.55290496
  PAW double counting   =      1350.53879019    -1279.28075271
  entropy T*S    EENTRO =         0.00000000
  eigenvalues    EBANDS =      -495.73728230
  atomic energy  EATOM  =      2857.39865925
  Solvation  Ediel_sol  =         0.00000000
  ---------------------------------------------------
  free energy    TOTEN  =       -50.25519922 eV

  energy without entropy =      -50.25519922  energy(sigma->0) =      -50.25519922


--------------------------------------------------------------------------------------------------------




--------------------------------------- Iteration      1(   4)  ---------------------------------------


     EDDAV:  cpu time   29.6640: real time   30.0404
 BZINTS: Fermi energy: -2.630966; 60.000000 electrons
         Band energy:-500.811751;  BLOECHL correction:  0.000000
       DOS:  cpu time    0.0000: real time    0.0018
    --------------------------------------------
      LOOP:  cpu time   29.6640: real time   30.0422

 eigenvalue-minimisations  :  1328
 total energy-change (2. order) :-0.5074469E+01  (-0.4954970E+01)
 number of electron      60.0000000 magnetization       7.0000000
 augmentation part       60.0000000 magnetization       7.0000000

 Free energy of the ion-electron system (eV)
  ---------------------------------------------------
  alpha Z        PSCENC =        21.59586747
  Ewald energy   TEWEN  =      6985.74515320
  -Hartree energ DENC   =     -9538.06853929
  -exchange      EXHF   =         0.00000000
  -V(xc)+E(xc)   XCENC  =        47.55290496
  PAW double counting   =      1350.53879019    -1279.28075271
  entropy T*S    EENTRO =         0.00000000
  eigenvalues    EBANDS =      -500.81175142
  atomic energy  EATOM  =      2857.39865925
  Solvation  Ediel_sol  =         0.00000000
  ---------------------------------------------------
  free energy    TOTEN  =       -55.32966834 eV

  energy without entropy =      -55.32966834  energy(sigma->0) =      -55.32966834


--------------------------------------------------------------------------------------------------------




--------------------------------------- Iteration      1(   5)  ---------------------------------------


     EDDAV:  cpu time   30.5200: real time   30.7563
 BZINTS: Fermi energy: -2.633542; 60.000000 electrons
         Band energy:-500.919007;  BLOECHL correction:  0.000000
       DOS:  cpu time    0.0040: real time    0.0045
    CHARGE:  cpu time    2.0200: real time    2.0235
    MIXING:  cpu time    0.0440: real time    0.0421
    --------------------------------------------
      LOOP:  cpu time   32.5880: real time   32.8264

 eigenvalue-minimisations  :  1360
 total energy-change (2. order) :-0.1072551E+00  (-0.1070879E+00)
 number of electron      59.9999992 magnetization       6.8927812
 augmentation part       -2.9089585 magnetization       4.2885941

 Broyden mixing:
  rms(total) = 0.24758E+01    rms(broyden)= 0.24755E+01
  rms(prec ) = 0.27676E+01
  weight for this iteration     100.00

 Free energy of the ion-electron system (eV)
  ---------------------------------------------------
  alpha Z        PSCENC =        21.59586747
  Ewald energy   TEWEN  =      6985.74515320
  -Hartree energ DENC   =     -9538.06853929
  -exchange      EXHF   =         0.00000000
  -V(xc)+E(xc)   XCENC  =        47.55290496
  PAW double counting   =      1350.53879019    -1279.28075271
  entropy T*S    EENTRO =         0.00000000
  eigenvalues    EBANDS =      -500.91900653
  atomic energy  EATOM  =      2857.39865925
  Solvation  Ediel_sol  =         0.00000000
  ---------------------------------------------------
  free energy    TOTEN  =       -55.43692345 eV

  energy without entropy =      -55.43692345  energy(sigma->0) =      -55.43692345


--------------------------------------------------------------------------------------------------------




--------------------------------------- Iteration      1(   6)  ---------------------------------------


    POTLOK:  cpu time   51.3040: real time   52.2440
    SETDIJ:  cpu time    0.0400: real time    0.0412
     EDDAV:  cpu time   30.4800: real time   30.5380
 BZINTS: Fermi energy: -4.888013; 60.000000 electrons
         Band energy:-638.227689;  BLOECHL correction: -0.018454
       DOS:  cpu time    0.0040: real time    0.0071
    CHARGE:  cpu time    1.9880: real time    2.0234
    MIXING:  cpu time    0.0400: real time    0.0403
    --------------------------------------------
      LOOP:  cpu time   83.8560: real time   84.8939

 eigenvalue-minimisations  :  1344
 total energy-change (2. order) :-0.6222463E+02  (-0.1443079E+02)
 number of electron      59.9999999 magnetization       6.7079831
 augmentation part        8.9053344 magnetization       6.3208218

 Broyden mixing:
  rms(total) = 0.65892E+01    rms(broyden)= 0.65891E+01
  rms(prec ) = 0.72211E+01
  weight for this iteration     100.00

 eigenvalues of (default mixing * dielectric matrix)
  average eigenvalue GAMMA=   0.2242
  0.2242

 Free energy of the ion-electron system (eV)
  ---------------------------------------------------
  alpha Z        PSCENC =        21.59586747
  Ewald energy   TEWEN  =      6985.74515320
  -Hartree energ DENC   =     -9471.50993560
  -exchange      EXHF   =         0.00000000
  -V(xc)+E(xc)   XCENC  =        48.09198281
  PAW double counting   =      1233.77656558    -1154.53215920
  entropy T*S    EENTRO =         0.00000000
  eigenvalues    EBANDS =      -638.22768864
  atomic energy  EATOM  =      2857.39865925
  Solvation  Ediel_sol  =         0.00000000
  ---------------------------------------------------
  free energy    TOTEN  =      -117.66155514 eV

  energy without entropy =     -117.66155514  energy(sigma->0) =     -117.66155514


--------------------------------------------------------------------------------------------------------




--------------------------------------- Iteration      1(   7)  ---------------------------------------


    POTLOK:  cpu time   52.6760: real time   52.7408
    SETDIJ:  cpu time    0.0360: real time    0.0381
     EDDAV:  cpu time   25.5240: real time   25.7118
 BZINTS: Fermi energy: -4.033969; 60.000000 electrons
         Band energy:-509.253798;  BLOECHL correction: -0.016879
       DOS:  cpu time    0.0040: real time    0.0072
    CHARGE:  cpu time    2.0120: real time    2.0104
    MIXING:  cpu time    0.0400: real time    0.0405
    --------------------------------------------
      LOOP:  cpu time   80.2920: real time   80.5489

 eigenvalue-minimisations  :  1104
 total energy-change (2. order) : 0.7389382E+02  (-0.9753815E+01)
 number of electron      59.9999997 magnetization       6.6615965
 augmentation part        1.3198108 magnetization       5.1869552

 Broyden mixing:
  rms(total) = 0.13044E+01    rms(broyden)= 0.13040E+01
  rms(prec ) = 0.13462E+01
  weight for this iteration     100.00

 eigenvalues of (default mixing * dielectric matrix)
  average eigenvalue GAMMA=   0.3078
  0.3078  0.3078

 Free energy of the ion-electron system (eV)
  ---------------------------------------------------
  alpha Z        PSCENC =        21.59586747
  Ewald energy   TEWEN  =      6985.74515320
  -Hartree energ DENC   =     -9517.35948855
  -exchange      EXHF   =         0.00000000
  -V(xc)+E(xc)   XCENC  =        46.69657760
  PAW double counting   =      1317.54291290    -1246.13362103
  entropy T*S    EENTRO =         0.00000000
  eigenvalues    EBANDS =      -509.25379824
  atomic energy  EATOM  =      2857.39865925
  Solvation  Ediel_sol  =         0.00000000
  ---------------------------------------------------
  free energy    TOTEN  =       -43.76773740 eV

  energy without entropy =      -43.76773740  energy(sigma->0) =      -43.76773740


--------------------------------------------------------------------------------------------------------




--------------------------------------- Iteration      1(   8)  ---------------------------------------


    POTLOK:  cpu time   52.6200: real time   52.8251
    SETDIJ:  cpu time    0.0400: real time    0.0413
     EDDAV:  cpu time   30.8680: real time   31.0639
 BZINTS: Fermi energy: -3.869892; 60.000000 electrons
         Band energy:-508.453647;  BLOECHL correction: -0.012191
       DOS:  cpu time    0.0040: real time    0.0069
    CHARGE:  cpu time    2.0000: real time    2.0207
    MIXING:  cpu time    0.0440: real time    0.0457
    --------------------------------------------
      LOOP:  cpu time   85.5760: real time   86.0035

 eigenvalue-minimisations  :  1376
 total energy-change (2. order) :-0.1276746E+01  (-0.8315965E+00)
 number of electron      59.9999995 magnetization       6.5928802
 augmentation part       -0.0803087 magnetization       5.1886794

 Broyden mixing:
  rms(total) = 0.10661E+01    rms(broyden)= 0.10661E+01
  rms(prec ) = 0.10808E+01
  weight for this iteration     100.00

 eigenvalues of (default mixing * dielectric matrix)
  average eigenvalue GAMMA=   0.4448
  0.5003  0.5003  0.3340

 Free energy of the ion-electron system (eV)
  ---------------------------------------------------
  alpha Z        PSCENC =        21.59586747
  Ewald energy   TEWEN  =      6985.74515320
  -Hartree energ DENC   =     -9519.58166105
  -exchange      EXHF   =         0.00000000
  -V(xc)+E(xc)   XCENC  =        47.35747882
  PAW double counting   =      1320.27741258    -1249.38374661
  entropy T*S    EENTRO =         0.00000000
  eigenvalues    EBANDS =      -508.45364744
  atomic energy  EATOM  =      2857.39865925
  Solvation  Ediel_sol  =         0.00000000
  ---------------------------------------------------
  free energy    TOTEN  =       -45.04448377 eV

  energy without entropy =      -45.04448377  energy(sigma->0) =      -45.04448377


--------------------------------------------------------------------------------------------------------




--------------------------------------- Iteration      1(   9)  ---------------------------------------


    POTLOK:  cpu time   51.4280: real time   52.9783
    SETDIJ:  cpu time    0.0360: real time    0.0368
     EDDAV:  cpu time   34.1320: real time   35.0000
 BZINTS: Fermi energy: -4.090291; 60.000000 electrons
         Band energy:-513.310040;  BLOECHL correction: -0.011497
       DOS:  cpu time    0.0040: real time    0.0070
    CHARGE:  cpu time    2.0440: real time    2.0471
    MIXING:  cpu time    0.0400: real time    0.0415
    --------------------------------------------
      LOOP:  cpu time   87.6840: real time   90.1107

 eigenvalue-minimisations  :  1552
 total energy-change (2. order) :-0.6832204E+00  (-0.1213684E+00)
 number of electron      59.9999997 magnetization       6.6386426
 augmentation part        0.8744374 magnetization       5.0152366

 Broyden mixing:
  rms(total) = 0.92736E+00    rms(broyden)= 0.92729E+00
  rms(prec ) = 0.94605E+00
  weight for this iteration     100.00

 eigenvalues of (default mixing * dielectric matrix)
  average eigenvalue GAMMA=   0.5867
  0.8491  0.8491  0.3243  0.3243

 Free energy of the ion-electron system (eV)
  ---------------------------------------------------
  alpha Z        PSCENC =        21.59586747
  Ewald energy   TEWEN  =      6985.74515320
  -Hartree energ DENC   =     -9516.31067761
  -exchange      EXHF   =         0.00000000
  -V(xc)+E(xc)   XCENC  =        48.60207959
  PAW double counting   =      1312.70509360    -1242.15383922
  entropy T*S    EENTRO =         0.00000000
  eigenvalues    EBANDS =      -513.31004043
  atomic energy  EATOM  =      2857.39865925
  Solvation  Ediel_sol  =         0.00000000
  ---------------------------------------------------
  free energy    TOTEN  =       -45.72770414 eV

  energy without entropy =      -45.72770414  energy(sigma->0) =      -45.72770414


--------------------------------------------------------------------------------------------------------




--------------------------------------- Iteration      1(  10)  ---------------------------------------


    POTLOK:  cpu time   51.8600: real time   52.2298
    SETDIJ:  cpu time    0.0400: real time    0.0377
     EDDAV:  cpu time   34.1280: real time   34.6762
 BZINTS: Fermi energy: -4.098252; 60.000000 electrons
         Band energy:-513.109192;  BLOECHL correction: -0.017053
       DOS:  cpu time    0.0080: real time    0.0070
    CHARGE:  cpu time    2.0000: real time    2.0016
    MIXING:  cpu time    0.0440: real time    0.0424
    --------------------------------------------
      LOOP:  cpu time   88.0800: real time   88.9947

 eigenvalue-minimisations  :  1552
 total energy-change (2. order) :-0.3285719E+00  (-0.3070472E-01)
 number of electron      59.9999997 magnetization       6.7275114
 augmentation part        0.7939349 magnetization       5.2533539

 Broyden mixing:
  rms(total) = 0.64480E+00    rms(broyden)= 0.64479E+00
  rms(prec ) = 0.66179E+00
  weight for this iteration     100.00

 eigenvalues of (default mixing * dielectric matrix)
  average eigenvalue GAMMA=   0.7821
  1.3194  1.3194  0.5529  0.3594  0.3594

 Free energy of the ion-electron system (eV)
  ---------------------------------------------------
  alpha Z        PSCENC =        21.59586747
  Ewald energy   TEWEN  =      6985.74515320
  -Hartree energ DENC   =     -9517.53778310
  -exchange      EXHF   =         0.00000000
  -V(xc)+E(xc)   XCENC  =        49.89426555
  PAW double counting   =      1313.57733056    -1243.62057691
  entropy T*S    EENTRO =         0.00000000
  eigenvalues    EBANDS =      -513.10919209
  atomic energy  EATOM  =      2857.39865925
  Solvation  Ediel_sol  =         0.00000000
  ---------------------------------------------------
  free energy    TOTEN  =       -46.05627608 eV

  energy without entropy =      -46.05627608  energy(sigma->0) =      -46.05627608


--------------------------------------------------------------------------------------------------------




--------------------------------------- Iteration      1(  11)  ---------------------------------------


    POTLOK:  cpu time   51.8560: real time   51.9757
    SETDIJ:  cpu time    0.0360: real time    0.0370
     EDDAV:  cpu time   34.2760: real time   34.4929
 BZINTS: Fermi energy: -4.130701; 60.000000 electrons
         Band energy:-515.085498;  BLOECHL correction: -0.016515
       DOS:  cpu time    0.0040: real time    0.0330
    CHARGE:  cpu time    1.9880: real time    2.0006
    MIXING:  cpu time    0.0440: real time    0.0455
    --------------------------------------------
      LOOP:  cpu time   88.2040: real time   88.5847

 eigenvalue-minimisations  :  1536
 total energy-change (2. order) :-0.1534358E+00  (-0.2035079E-01)
 number of electron      59.9999996 magnetization       6.7337133
 augmentation part        0.6116929 magnetization       5.7312305

 Broyden mixing:
  rms(total) = 0.20327E+00    rms(broyden)= 0.20325E+00
  rms(prec ) = 0.21617E+00
  weight for this iteration     100.00

 eigenvalues of (default mixing * dielectric matrix)
  average eigenvalue GAMMA=   0.8724
  1.3437  1.3437  0.9195  0.9195  0.3541  0.3541

 Free energy of the ion-electron system (eV)
  ---------------------------------------------------
  alpha Z        PSCENC =        21.59586747
  Ewald energy   TEWEN  =      6985.74515320
  -Hartree energ DENC   =     -9516.99444184
  -exchange      EXHF   =         0.00000000
  -V(xc)+E(xc)   XCENC  =        51.96766937
  PAW double counting   =      1310.06012639    -1240.89724738
  entropy T*S    EENTRO =         0.00000000
  eigenvalues    EBANDS =      -515.08549838
  atomic energy  EATOM  =      2857.39865925
  Solvation  Ediel_sol  =         0.00000000
  ---------------------------------------------------
  free energy    TOTEN  =       -46.20971190 eV

  energy without entropy =      -46.20971190  energy(sigma->0) =      -46.20971190


--------------------------------------------------------------------------------------------------------




--------------------------------------- Iteration      1(  12)  ---------------------------------------


    POTLOK:  cpu time   51.4680: real time   51.8687
    SETDIJ:  cpu time    0.0400: real time    0.0406
     EDDAV:  cpu time   33.1320: real time   33.6970
 BZINTS: Fermi energy: -4.146448; 60.000000 electrons
         Band energy:-517.659404;  BLOECHL correction: -0.017150
       DOS:  cpu time    0.0040: real time    0.0075
    CHARGE:  cpu time    2.0040: real time    2.0019
    MIXING:  cpu time    0.0440: real time    0.0449
    --------------------------------------------
      LOOP:  cpu time   86.6920: real time   87.6606

 eigenvalue-minimisations  :  1504
 total energy-change (2. order) : 0.7018568E-03  (-0.1153267E-01)
 number of electron      59.9999996 magnetization       6.6918246
 augmentation part        0.5081716 magnetization       6.0570323

 Broyden mixing:
  rms(total) = 0.99430E-01    rms(broyden)= 0.99420E-01
  rms(prec ) = 0.10412E+00
  weight for this iteration     100.00

 eigenvalues of (default mixing * dielectric matrix)
  average eigenvalue GAMMA=   0.9612
  1.6695  1.4078  1.4078  0.8576  0.6776  0.3540  0.3540

 Free energy of the ion-electron system (eV)
  ---------------------------------------------------
  alpha Z        PSCENC =        21.59586747
  Ewald energy   TEWEN  =      6985.74515320
  -Hartree energ DENC   =     -9514.99308832
  -exchange      EXHF   =         0.00000000
  -V(xc)+E(xc)   XCENC  =        52.87378309
  PAW double counting   =      1306.08513168    -1237.25511267
  entropy T*S    EENTRO =         0.00000000
  eigenvalues    EBANDS =      -517.65940375
  atomic energy  EATOM  =      2857.39865925
  Solvation  Ediel_sol  =         0.00000000
  ---------------------------------------------------
  free energy    TOTEN  =       -46.20901004 eV

  energy without entropy =      -46.20901004  energy(sigma->0) =      -46.20901004


--------------------------------------------------------------------------------------------------------




--------------------------------------- Iteration      1(  13)  ---------------------------------------


    POTLOK:  cpu time   51.6200: real time   52.0379
    SETDIJ:  cpu time    0.0360: real time    0.0369
     EDDAV:  cpu time   30.3400: real time   30.5951
 BZINTS: Fermi energy: -4.154839; 60.000000 electrons
         Band energy:-518.258124;  BLOECHL correction: -0.017379
       DOS:  cpu time    0.0040: real time    0.0067
    CHARGE:  cpu time    2.0360: real time    2.0387
    MIXING:  cpu time    0.0440: real time    0.0444
    --------------------------------------------
      LOOP:  cpu time   84.0800: real time   84.7597

 eigenvalue-minimisations  :  1344
 total energy-change (2. order) :-0.2619106E-02  (-0.2011897E-02)
 number of electron      59.9999996 magnetization       6.6473841
 augmentation part        0.4571245 magnetization       6.0693550

 Broyden mixing:
  rms(total) = 0.39283E-01    rms(broyden)= 0.39278E-01
  rms(prec ) = 0.41755E-01
  weight for this iteration     100.00

 eigenvalues of (default mixing * dielectric matrix)
  average eigenvalue GAMMA=   1.0119
  2.1844  1.3706  1.3706  0.3539  0.3539  0.8780  0.8780  0.7053

 Free energy of the ion-electron system (eV)
  ---------------------------------------------------
  alpha Z        PSCENC =        21.59586747
  Ewald energy   TEWEN  =      6985.74515320
  -Hartree energ DENC   =     -9514.21400523
  -exchange      EXHF   =         0.00000000
  -V(xc)+E(xc)   XCENC  =        52.61575886
  PAW double counting   =      1306.01822144    -1237.11315987
  entropy T*S    EENTRO =         0.00000000
  eigenvalues    EBANDS =      -518.25812428
  atomic energy  EATOM  =      2857.39865925
  Solvation  Ediel_sol  =         0.00000000
  ---------------------------------------------------
  free energy    TOTEN  =       -46.21162915 eV

  energy without entropy =      -46.21162915  energy(sigma->0) =      -46.21162915


--------------------------------------------------------------------------------------------------------




--------------------------------------- Iteration      1(  14)  ---------------------------------------


    POTLOK:  cpu time   51.7920: real time   51.8401
    SETDIJ:  cpu time    0.0400: real time    0.0399
     EDDAV:  cpu time   29.5920: real time   29.8571
 BZINTS: Fermi energy: -4.157913; 60.000000 electrons
         Band energy:-518.652419;  BLOECHL correction: -0.017484
       DOS:  cpu time    0.0040: real time    0.0080
    CHARGE:  cpu time    1.9800: real time    2.0307
    MIXING:  cpu time    0.0480: real time    0.0453
    --------------------------------------------
      LOOP:  cpu time   83.4560: real time   83.8211

 eigenvalue-minimisations  :  1312
 total energy-change (2. order) :-0.4050711E-02  (-0.1081581E-02)
 number of electron      59.9999996 magnetization       6.5957657
 augmentation part        0.4245856 magnetization       6.0615133

 Broyden mixing:
  rms(total) = 0.42579E-01    rms(broyden)= 0.42577E-01
  rms(prec ) = 0.42993E-01
  weight for this iteration     100.00

 eigenvalues of (default mixing * dielectric matrix)
  average eigenvalue GAMMA=   1.0379
  2.3665  1.4349  1.4349  1.0205  1.0205  0.3539  0.3539  0.6782  0.6782

 Free energy of the ion-electron system (eV)
  ---------------------------------------------------
  alpha Z        PSCENC =        21.59586747
  Ewald energy   TEWEN  =      6985.74515320
  -Hartree energ DENC   =     -9513.86131425
  -exchange      EXHF   =         0.00000000
  -V(xc)+E(xc)   XCENC  =        52.70572443
  PAW double counting   =      1306.63222374    -1237.77957508
  entropy T*S    EENTRO =         0.00000000
  eigenvalues    EBANDS =      -518.65241863
  atomic energy  EATOM  =      2857.39865925
  Solvation  Ediel_sol  =         0.00000000
  ---------------------------------------------------
  free energy    TOTEN  =       -46.21567986 eV

  energy without entropy =      -46.21567986  energy(sigma->0) =      -46.21567986


--------------------------------------------------------------------------------------------------------




--------------------------------------- Iteration      1(  15)  ---------------------------------------


    POTLOK:  cpu time   52.1240: real time   52.2034
    SETDIJ:  cpu time    0.0400: real time    0.0393
     EDDAV:  cpu time   28.5440: real time   28.8121
 BZINTS: Fermi energy: -4.160916; 60.000000 electrons
         Band energy:-518.869063;  BLOECHL correction: -0.017577
       DOS:  cpu time    0.0040: real time    0.0072
    CHARGE:  cpu time    1.9800: real time    1.9994
    MIXING:  cpu time    0.0520: real time    0.0489
    --------------------------------------------
      LOOP:  cpu time   82.7440: real time   83.1104

 eigenvalue-minimisations  :  1264
 total energy-change (2. order) :-0.2108793E-03  (-0.8802437E-03)
 number of electron      59.9999996 magnetization       6.5451823
 augmentation part        0.4168072 magnetization       6.0093949

 Broyden mixing:
  rms(total) = 0.25794E-01    rms(broyden)= 0.25794E-01
  rms(prec ) = 0.26267E-01
  weight for this iteration     100.00

 eigenvalues of (default mixing * dielectric matrix)
  average eigenvalue GAMMA=   1.0797
  2.5262  1.4477  1.4477  1.3566  1.1058  0.3539  0.3539  0.7848  0.7229  0.6977

 Free energy of the ion-electron system (eV)
  ---------------------------------------------------
  alpha Z        PSCENC =        21.59586747
  Ewald energy   TEWEN  =      6985.74515320
  -Hartree energ DENC   =     -9513.57818429
  -exchange      EXHF   =         0.00000000
  -V(xc)+E(xc)   XCENC  =        52.61660796
  PAW double counting   =      1307.22314399    -1238.34807497
  entropy T*S    EENTRO =         0.00000000
  eigenvalues    EBANDS =      -518.86906337
  atomic energy  EATOM  =      2857.39865925
  Solvation  Ediel_sol  =         0.00000000
  ---------------------------------------------------
  free energy    TOTEN  =       -46.21589074 eV

  energy without entropy =      -46.21589074  energy(sigma->0) =      -46.21589074


--------------------------------------------------------------------------------------------------------




--------------------------------------- Iteration      1(  16)  ---------------------------------------


    POTLOK:  cpu time   51.9240: real time   52.0765
    SETDIJ:  cpu time    0.0400: real time    0.0422
     EDDAV:  cpu time   28.9000: real time   29.3223
 BZINTS: Fermi energy: -4.165002; 60.000000 electrons
         Band energy:-519.138260;  BLOECHL correction: -0.017602
       DOS:  cpu time    0.0040: real time    0.0071
    CHARGE:  cpu time    1.9840: real time    1.9980
    MIXING:  cpu time    0.0520: real time    0.0515
    --------------------------------------------
      LOOP:  cpu time   82.9040: real time   83.4976

 eigenvalue-minimisations  :  1280
 total energy-change (2. order) :-0.8993285E-03  (-0.6115528E-04)
 number of electron      59.9999996 magnetization       6.4604067
 augmentation part        0.4153949 magnetization       5.9225549

 Broyden mixing:
  rms(total) = 0.14662E-01    rms(broyden)= 0.14662E-01
  rms(prec ) = 0.15338E-01
  weight for this iteration     100.00

 eigenvalues of (default mixing * dielectric matrix)
  average eigenvalue GAMMA=   1.1412
  2.8542  1.4293  1.4293  1.4686  1.4686  1.0727  0.3539  0.3539  0.7404  0.7404
  0.6418

 Free energy of the ion-electron system (eV)
  ---------------------------------------------------
  alpha Z        PSCENC =        21.59586747
  Ewald energy   TEWEN  =      6985.74515320
  -Hartree energ DENC   =     -9513.26363339
  -exchange      EXHF   =         0.00000000
  -V(xc)+E(xc)   XCENC  =        52.55044348
  PAW double counting   =      1307.58507332    -1238.69009342
  entropy T*S    EENTRO =         0.00000000
  eigenvalues    EBANDS =      -519.13825998
  atomic energy  EATOM  =      2857.39865925
  Solvation  Ediel_sol  =         0.00000000
  ---------------------------------------------------
  free energy    TOTEN  =       -46.21679007 eV

  energy without entropy =      -46.21679007  energy(sigma->0) =      -46.21679007


--------------------------------------------------------------------------------------------------------




--------------------------------------- Iteration      1(  17)  ---------------------------------------


    POTLOK:  cpu time   50.2680: real time   52.0800
    SETDIJ:  cpu time    0.0360: real time    0.0374
     EDDAV:  cpu time   26.3840: real time   26.7225
 BZINTS: Fermi energy: -4.175580; 60.000000 electrons
         Band energy:-519.828024;  BLOECHL correction: -0.017536
       DOS:  cpu time    0.0040: real time    0.0071
    CHARGE:  cpu time    1.9920: real time    1.9951
    MIXING:  cpu time    0.0680: real time    0.0661
    --------------------------------------------
      LOOP:  cpu time   78.7520: real time   80.9082

 eigenvalue-minimisations  :  1152
 total energy-change (2. order) :-0.1526509E-02  (-0.6797206E-04)
 number of electron      59.9999996 magnetization       6.3653417
 augmentation part        0.4213499 magnetization       5.8316408

 Broyden mixing:
  rms(total) = 0.92538E-02    rms(broyden)= 0.92537E-02
  rms(prec ) = 0.99247E-02
  weight for this iteration     100.00

 eigenvalues of (default mixing * dielectric matrix)
  average eigenvalue GAMMA=   1.2578
  3.8691  1.8669  1.8669  1.4044  1.4044  0.3539  0.3539  0.9530  0.9530  0.7121
  0.7121  0.6438

 Free energy of the ion-electron system (eV)
  ---------------------------------------------------
  alpha Z        PSCENC =        21.59586747
  Ewald energy   TEWEN  =      6985.74515320
  -Hartree energ DENC   =     -9512.55843872
  -exchange      EXHF   =         0.00000000
  -V(xc)+E(xc)   XCENC  =        52.52482601
  PAW double counting   =      1307.61079225    -1238.70715218
  entropy T*S    EENTRO =         0.00000000
  eigenvalues    EBANDS =      -519.82802387
  atomic energy  EATOM  =      2857.39865925
  Solvation  Ediel_sol  =         0.00000000
  ---------------------------------------------------
  free energy    TOTEN  =       -46.21831658 eV

  energy without entropy =      -46.21831658  energy(sigma->0) =      -46.21831658


--------------------------------------------------------------------------------------------------------




--------------------------------------- Iteration      1(  18)  ---------------------------------------


    POTLOK:  cpu time   51.7640: real time   52.0823
    SETDIJ:  cpu time    0.0680: real time    0.0745
     EDDAV:  cpu time   27.6400: real time   27.9415
 BZINTS: Fermi energy: -4.189434; 60.000000 electrons
         Band energy:-520.717386;  BLOECHL correction: -0.017499
       DOS:  cpu time    0.0040: real time    0.0068
    CHARGE:  cpu time    2.0400: real time    2.0537
    MIXING:  cpu time    0.0560: real time    0.0559
    --------------------------------------------
      LOOP:  cpu time   81.5720: real time   82.2148

 eigenvalue-minimisations  :  1216
 total energy-change (2. order) :-0.9795541E-03  (-0.7633419E-04)
 number of electron      59.9999996 magnetization       6.3035242
 augmentation part        0.4247740 magnetization       5.7776878

 Broyden mixing:
  rms(total) = 0.56048E-02    rms(broyden)= 0.56046E-02
  rms(prec ) = 0.66291E-02
  weight for this iteration     100.00

 eigenvalues of (default mixing * dielectric matrix)
  average eigenvalue GAMMA=   1.5250
  7.0743  2.3542  1.4149  1.4149  1.7159  1.2275  0.3539  0.3539  1.0156  0.8635
  0.7036  0.7036  0.6292

 Free energy of the ion-electron system (eV)
  ---------------------------------------------------
  alpha Z        PSCENC =        21.59586747
  Ewald energy   TEWEN  =      6985.74515320
  -Hartree energ DENC   =     -9511.63841175
  -exchange      EXHF   =         0.00000000
  -V(xc)+E(xc)   XCENC  =        52.47988987
  PAW double counting   =      1307.52146533    -1238.60453323
  entropy T*S    EENTRO =         0.00000000
  eigenvalues    EBANDS =      -520.71738627
  atomic energy  EATOM  =      2857.39865925
  Solvation  Ediel_sol  =         0.00000000
  ---------------------------------------------------
  free energy    TOTEN  =       -46.21929613 eV

  energy without entropy =      -46.21929613  energy(sigma->0) =      -46.21929613


--------------------------------------------------------------------------------------------------------




--------------------------------------- Iteration      1(  19)  ---------------------------------------


    POTLOK:  cpu time   51.8360: real time   51.9684
    SETDIJ:  cpu time    0.0400: real time    0.0401
     EDDAV:  cpu time   25.4440: real time   25.6308
 BZINTS: Fermi energy: -4.200222; 60.000000 electrons
         Band energy:-521.416649;  BLOECHL correction: -0.017510
       DOS:  cpu time    0.0080: real time    0.0049
    --------------------------------------------
      LOOP:  cpu time   77.3280: real time   77.6442

 eigenvalue-minimisations  :  1104
 total energy-change (2. order) :-0.5876395E-04  (-0.4233480E-04)
 number of electron      59.9999996 magnetization       6.3035242
 augmentation part        0.4247740 magnetization       5.7776878

 Free energy of the ion-electron system (eV)
  ---------------------------------------------------
  alpha Z        PSCENC =        21.59586747
  Ewald energy   TEWEN  =      6985.74515320
  -Hartree energ DENC   =     -9510.92194434
  -exchange      EXHF   =         0.00000000
  -V(xc)+E(xc)   XCENC  =        52.46316126
  PAW double counting   =      1307.43318682    -1238.51678996
  entropy T*S    EENTRO =         0.00000000
  eigenvalues    EBANDS =      -521.41664860
  atomic energy  EATOM  =      2857.39865925
  Solvation  Ediel_sol  =         0.00000000
  ---------------------------------------------------
  free energy    TOTEN  =       -46.21935490 eV

  energy without entropy =      -46.21935490  energy(sigma->0) =      -46.21935490


--------------------------------------------------------------------------------------------------------




 average (electrostatic) potential at core
  the test charge radii are     1.0210  0.9587  0.9698
  (the norm of the test charge is              1.0000)
       1 -54.2478       2 -54.2478       3 -94.0984       4 -94.0984       5 -95.2256
       6 -95.2256       7 -95.2256       8 -95.2256       9 -95.2256      10 -95.2256



 E-fermi :  -4.2002     XC(G=0):  -2.8365     alpha+bet : -2.0726


 spin component 1

 k-point     1 :       0.0000    0.0000    0.0000
  band No.  band energies     occupation 
      1     -16.6635      1.00000
      2     -15.9232      1.00000
      3     -15.3304      1.00000
      4     -15.3304      1.00000
      5     -15.2952      1.00000
      6     -15.2952      1.00000
      7     -14.3059      1.00000
      8     -12.2552      1.00000
      9      -8.0671      1.00000
     10      -8.0671      1.00000
     11      -7.9350      1.00000
     12      -7.5997      1.00000
     13      -7.5020      1.00000
     14      -7.5020      1.00000
     15      -7.1148      1.00000
     16      -7.1147      1.00000
     17      -6.9336      1.00000
     18      -6.9021      1.00000
     19      -6.9021      1.00000
     20      -6.4712      1.00000
     21      -6.4712      1.00000
     22      -6.4604      1.00000
     23      -6.4604      1.00000
     24      -6.4091      1.00000
     25      -6.4001      1.00000
     26      -5.8308      1.00000
     27      -5.4973      1.00000
     28      -5.4973      1.00000
     29      -5.2566      1.00000
     30      -4.7704      1.00000
     31      -4.7703      1.00000
     32      -4.1875      0.96532
     33      -4.1875      0.00000
     34      -4.1007      0.00000
     35      -3.9064      0.00000
     36      -3.8792      0.00000
     37      -3.8792      0.00000
     38      -2.4851      0.00000
     39      -2.4850      0.00000
     40      -1.3701      0.00000
     41      -1.3701      0.00000
     42      -1.0863      0.00000
     43      -0.0477      0.00000
     44       0.1114      0.00000
     45       1.4377      0.00000
     46       1.7369      0.00000
     47       1.9953      0.00000
     48       1.9953      0.00000

 k-point     2 :       0.2000    0.0000    0.0000
  band No.  band energies     occupation 
      1     -16.5966      1.00000
      2     -15.8715      1.00000
      3     -15.4492      1.00000
      4     -15.3743      1.00000
      5     -15.3508      1.00000
      6     -15.3185      1.00000
      7     -14.2109      1.00000
      8     -12.2602      1.00000
      9      -8.0148      1.00000
     10      -8.0066      1.00000
     11      -7.7743      1.00000
     12      -7.7297      1.00000
     13      -7.3631      1.00000
     14      -7.2205      1.00000
     15      -7.1185      1.00000
     16      -7.1026      1.00000
     17      -7.0383      1.00000
     18      -6.9757      1.00000
     19      -6.7973      1.00000
     20      -6.6005      1.00000
     21      -6.5353      1.00000
     22      -6.4745      1.00000
     23      -6.4315      1.00000
     24      -6.3898      1.00000
     25      -6.0532      1.00000
     26      -6.0292      1.00000
     27      -5.6747      1.00000
     28      -5.5113      1.00000
     29      -5.1942      1.00000
     30      -5.1920      1.00000
     31      -4.9420      1.00000
     32      -4.4555      1.00465
     33      -4.1789      0.11050
     34      -4.1527      0.00000
     35      -3.9798      0.00000
     36      -3.6512      0.00000
     37      -3.5997      0.00000
     38      -2.4889      0.00000
     39      -2.4643      0.00000
     40      -1.4747      0.00000
     41      -1.4318      0.00000
     42      -1.1242      0.00000
     43       0.0823      0.00000
     44       0.1458      0.00000
     45       1.5630      0.00000
     46       1.7155      0.00000
     47       2.0367      0.00000
     48       2.1264      0.00000

 k-point     3 :       0.4000    0.0000    0.0000
  band No.  band energies     occupation 
      1     -16.4523      1.00000
      2     -15.7557      1.00000
      3     -15.6899      1.00000
      4     -15.4451      1.00000
      5     -15.4021      1.00000
      6     -15.3900      1.00000
      7     -14.0816      1.00000
      8     -12.2642      1.00000
      9      -7.9157      1.00000
     10      -7.9148      1.00000
     11      -7.5296      1.00000
     12      -7.4858      1.00000
     13      -7.2037      1.00000
     14      -7.1727      1.00000
     15      -7.1703      1.00000
     16      -7.0654      1.00000
     17      -7.0327      1.00000
     18      -6.9882      1.00000
     19      -6.8223      1.00000
     20      -6.7305      1.00000
     21      -6.5843      1.00000
     22      -6.5319      1.00000
     23      -6.4705      1.00000
     24      -6.4296      1.00000
     25      -6.2091      1.00000
     26      -5.8347      1.00000
     27      -5.6899      1.00000
     28      -5.5079      1.00000
     29      -5.3923      1.00000
     30      -5.3903      1.00000
     31      -5.0573      1.00000
     32      -4.4228      1.00000
     33      -4.2339      1.02808
     34      -4.1830      0.28876
     35      -4.1590      0.00000
     36      -3.8523      0.00000
     37      -3.5284      0.00000
     38      -2.5394      0.00000
     39      -2.3345      0.00000
     40      -1.6486      0.00000
     41      -1.5343      0.00000
     42      -1.2000      0.00000
     43       0.1936      0.00000
     44       0.3606      0.00000
     45       1.7338      0.00000
     46       1.9074      0.00000
     47       2.1203      0.00000
     48       2.2704      0.00000

 k-point     4 :       0.4000    0.2000    0.0000
  band No.  band energies     occupation 
      1     -16.4871      1.00000
      2     -15.7856      1.00000
      3     -15.5938      1.00000
      4     -15.4851      1.00000
      5     -15.4069      1.00000
      6     -15.3484      1.00000
      7     -14.1012      1.00000
      8     -12.2627      1.00000
      9      -7.9803      1.00000
     10      -7.8274      1.00000
     11      -7.6651      1.00000
     12      -7.5751      1.00000
     13      -7.2267      1.00000
     14      -7.1661      1.00000
     15      -7.1408      1.00000
     16      -7.0873      1.00000
     17      -7.0698      1.00000
     18      -6.9154      1.00000
     19      -6.8540      1.00000
     20      -6.6431      1.00000
     21      -6.5877      1.00000
     22      -6.4862      1.00000
     23      -6.4764      1.00000
     24      -6.3968      1.00000
     25      -6.2669      1.00000
     26      -5.8376      1.00000
     27      -5.6924      1.00000
     28      -5.5331      1.00000
     29      -5.4673      1.00000
     30      -5.1658      1.00000
     31      -5.0018      1.00000
     32      -4.6071      1.00000
     33      -4.2205      0.94842
     34      -4.1685      0.22374
     35      -3.9498      0.00000
     36      -3.8481      0.00000
     37      -3.5439      0.00000
     38      -2.4904      0.00000
     39      -2.4564      0.00000
     40      -1.6294      0.00000
     41      -1.5500      0.00000
     42      -1.1833      0.00000
     43       0.2240      0.00000
     44       0.2984      0.00000
     45       1.7108      0.00000
     46       1.8467      0.00000
     47       2.1041      0.00000
     48       2.2687      0.00000

 k-point     5 :      -0.4000    0.2000    0.0000
  band No.  band energies     occupation 
      1     -16.3966      1.00000
      2     -15.7097      1.00000
      3     -15.7028      1.00000
      4     -15.5476      1.00000
      5     -15.4489      1.00000
      6     -15.3869      1.00000
      7     -14.0374      1.00000
      8     -12.2616      1.00000
      9      -7.8872      1.00000
     10      -7.6880      1.00000
     11      -7.6074      1.00000
     12      -7.3514      1.00000
     13      -7.3008      1.00000
     14      -7.2137      1.00000
     15      -7.1757      1.00000
     16      -7.1326      1.00000
     17      -7.0476      1.00000
     18      -6.9437      1.00000
     19      -6.8581      1.00000
     20      -6.7088      1.00000
     21      -6.6553      1.00000
     22      -6.5323      1.00000
     23      -6.4792      1.00000
     24      -6.3882      1.00000
     25      -6.3318      1.00000
     26      -5.7026      1.00000
     27      -5.6688      1.00000
     28      -5.5516      1.00000
     29      -5.3969      1.00000
     30      -5.2273      1.00000
     31      -5.0264      1.00000
     32      -4.4146      1.00000
     33      -4.3274      1.00000
     34      -4.3115      1.17883
     35      -4.1051      0.00000
     36      -3.9169      0.00000
     37      -3.5578      0.00000
     38      -2.5690      0.00000
     39      -2.4478      0.00000
     40      -1.7298      0.00000
     41      -1.6580      0.00000
     42      -1.2211      0.00000
     43       0.3082      0.00000
     44       0.4335      0.00000
     45       1.8897      0.00000
     46       2.0168      0.00000
     47       2.1448      0.00000
     48       2.3092      0.00000

 spin component 2

 k-point     1 :       0.0000    0.0000    0.0000
  band No.  band energies     occupation 
      1     -16.8527      1.00000
      2     -16.2171      1.00000
      3     -15.6640      1.00000
      4     -15.6640      1.00000
      5     -15.6235      1.00000
      6     -15.6235      1.00000
      7     -14.4186      1.00000
      8     -12.3528      1.00000
      9      -8.0420      1.00000
     10      -8.0420      1.00000
     11      -7.9399      1.00000
     12      -7.4895      1.00000
     13      -7.4895      1.00000
     14      -7.3374      1.00000
     15      -6.5641      1.00000
     16      -6.1814      1.00000
     17      -5.8176      1.00000
     18      -5.8175      1.00000
     19      -5.6403      1.00000
     20      -5.6402      1.00000
     21      -5.5212      1.00000
     22      -5.5212      1.00000
     23      -5.4415      1.00000
     24      -5.0270      1.00000
     25      -5.0270      1.00000
     26      -4.4523      1.00000
     27      -4.3323      1.07333
     28      -2.9838      0.00000
     29      -2.9837      0.00000
     30      -2.9498      0.00000
     31      -2.9498      0.00000
     32      -2.7347      0.00000
     33      -2.6661      0.00000
[...]
     34      -0.6841      0.00000
     35      -0.2616      0.00000
     36      -0.2380      0.00000
     37       0.3718      0.00000
     38       0.4330      0.00000
     39       0.7340      0.00000
     40       0.8750      0.00000
     41       1.6770      0.00000
     42       1.7962      0.00000
     43       2.2598      0.00000
     44       2.4392      0.00000
     45       2.4697      0.00000
     46       2.9761      0.00000
     47       3.5319      0.00000
     48       3.6386      0.00000

 k-point     5 :      -0.4000    0.2000    0.0000
  band No.  band energies     occupation 
      1     -18.8301      1.00000
      2     -17.6540      1.00000
      3     -16.2714      1.00000
      4     -16.0710      1.00000
      5     -15.8466      1.00000
      6     -15.7656      1.00000
      7     -12.5676      1.00000
      8     -11.0542      1.00000
      9      -8.9957      1.00000
     10      -8.6732      1.00000
     11      -8.5170      1.00000
     12      -8.2166      1.00000
     13      -7.8381      1.00000
     14      -6.7448      1.00000
     15      -6.2923      1.00000
     16      -6.0370      1.00000
     17      -5.8094      1.00000
     18      -5.7113      1.00000
     19      -5.6968      1.00000
     20      -5.6162      1.00000
     21      -5.0102      1.00000
     22      -4.8027      1.00000
     23      -4.6383      1.00000
     24      -4.5289      1.00000
     25      -4.3226      1.00000
     26      -2.4933      0.00000
     27      -1.9088      0.00000
     28      -1.6709      0.00000
     29      -1.2655      0.00000
     30      -1.0244      0.00000
     31      -1.0212      0.00000
     32      -0.9617      0.00000
     33      -0.8085      0.00000
     34      -0.6320      0.00000
     35      -0.3776      0.00000
     36      -0.3528      0.00000
     37       0.2436      0.00000
     38       0.5697      0.00000
     39       0.6493      0.00000
     40       0.9484      0.00000
     41       1.3234      0.00000
     42       1.7779      0.00000
     43       2.5252      0.00000
     44       2.8225      0.00000
     45       3.0137      0.00000
     46       3.1121      0.00000
     47       3.2125      0.00000
     48       3.3376      0.00000


--------------------------------------------------------------------------------------------------------


 soft charge-density along one line, spin component           1
         0         1         2         3         4         5         6         7         8         9
 total charge-density along one line

 soft charge-density along one line, spin component           2
         0         1         2         3         4         5         6         7         8         9
 total charge-density along one line

 pseudopotential strength for first ion, spin component:           1
-11.776   0.025  -0.000   0.000   0.000   0.799  -0.005   0.000
  0.025 -11.734   0.000  -0.000   0.000  -0.005   0.790  -0.000
 -0.000   0.000 -11.761   0.000   0.000   0.000  -0.000   0.796
  0.000  -0.000   0.000 -11.734  -0.025  -0.000   0.000  -0.000
  0.000   0.000   0.000  -0.025 -11.776  -0.000  -0.000  -0.000
  0.799  -0.005   0.000  -0.000  -0.000   0.313   0.001  -0.000
 -0.005   0.790  -0.000   0.000  -0.000   0.001   0.315   0.000
  0.000  -0.000   0.796  -0.000  -0.000  -0.000   0.000   0.314
 -0.000   0.000  -0.000   0.790   0.005   0.000  -0.000   0.000
 -0.000  -0.000  -0.000   0.005   0.799   0.000   0.000   0.000
 -0.000  -0.000  -0.004  -0.000   0.000  -0.000   0.000   0.001
  0.000   0.000   0.001   0.000  -0.000   0.000  -0.000  -0.000
  0.000  -0.000   0.000   0.000  -0.001  -0.000   0.000  -0.000
  0.000  -0.000  -0.000  -0.000  -0.000  -0.000   0.000   0.000
 -0.001   0.000   0.000  -0.000  -0.000   0.000  -0.000  -0.000
 -0.000   0.000  -0.000  -0.000  -0.000   0.000  -0.000   0.000
 -0.000   0.000   0.000   0.000   0.000   0.000  -0.000  -0.000
 -0.000  -0.000  -0.000   0.000   0.000  -0.000   0.000   0.000
 pseudopotential strength for first ion, spin component:           2
 -9.298  -0.032  -0.000  -0.000   0.000   0.208   0.006   0.000
 -0.032  -9.299   0.000   0.000  -0.000   0.006   0.207  -0.000
 -0.000   0.000  -9.241   0.000   0.000   0.000  -0.000   0.196
 -0.000   0.000   0.000  -9.299   0.032   0.000  -0.000  -0.000
  0.000  -0.000   0.000   0.032  -9.298  -0.000   0.000  -0.000
  0.208   0.006   0.000   0.000  -0.000   0.451  -0.001  -0.000
  0.006   0.207  -0.000  -0.000   0.000  -0.001   0.451   0.000
  0.000  -0.000   0.196  -0.000  -0.000  -0.000   0.000   0.453
  0.000  -0.000  -0.000   0.207  -0.006  -0.000   0.000   0.000
 -0.000   0.000  -0.000  -0.006   0.208   0.000  -0.000   0.000
 -0.000  -0.000  -0.004  -0.000   0.000  -0.000   0.000   0.001
  0.000   0.000   0.001   0.000  -0.000  -0.000  -0.000  -0.000
 -0.000  -0.000   0.000  -0.000   0.003   0.000   0.000  -0.000
 -0.000  -0.000  -0.000  -0.000   0.000   0.000   0.000   0.000
  0.003  -0.000   0.000  -0.000   0.000  -0.001   0.000  -0.000
  0.000   0.000  -0.000   0.000  -0.002  -0.000  -0.000   0.000
  0.000   0.000   0.000   0.000  -0.000  -0.000  -0.000  -0.000
 -0.002   0.000  -0.000   0.000  -0.000   0.000  -0.000   0.000
 total augmentation occupancy for first ion, spin component:           1
  1.064   0.077   0.000   0.000  -0.000  -0.159   0.034  -0.000   0.000  -0.000  -0.000  -0.000   0.000  -0.000  -0.002  -0.000
  0.077   1.127   0.000  -0.000   0.000   0.033  -0.134   0.000  -0.000   0.000   0.000  -0.000   0.000   0.000   0.002  -0.000
  0.000   0.000   1.026   0.000  -0.000  -0.000   0.000  -0.187   0.000   0.000  -0.015  -0.018   0.000  -0.000  -0.000  -0.000
  0.000  -0.000   0.000   1.127  -0.077   0.000   0.000   0.000  -0.134  -0.033   0.000   0.000  -0.002   0.000   0.000  -0.000
 -0.000   0.000  -0.000  -0.077   1.064   0.000   0.000   0.000  -0.034  -0.159   0.000   0.000  -0.002   0.000  -0.000   0.001
 -0.159   0.033  -0.000   0.000   0.000   0.208   0.162   0.000   0.000  -0.000   0.000  -0.000   0.000  -0.000  -0.013  -0.000
  0.034  -0.134   0.000   0.000   0.000   0.162   0.358   0.000  -0.000   0.000   0.000  -0.000   0.000  -0.000  -0.000  -0.000
 -0.000   0.000  -0.187   0.000   0.000   0.000   0.000   0.128   0.000  -0.000   0.014  -0.002   0.000  -0.000  -0.000   0.000
  0.000  -0.000   0.000  -0.134  -0.034   0.000  -0.000   0.000   0.358  -0.162  -0.000   0.000   0.000  -0.000   0.000  -0.000
 -0.000   0.000   0.000  -0.033  -0.159  -0.000   0.000  -0.000  -0.162   0.208  -0.000   0.000  -0.013   0.000  -0.000  -0.000
 -0.000   0.000  -0.015  -0.000   0.000   0.000   0.000   0.014   0.000  -0.000   0.869  -0.148   0.000   0.000   0.000   0.000
 -0.000  -0.000  -0.018   0.000   0.000  -0.000  -0.000  -0.002   0.000   0.000  -0.148   0.069  -0.000  -0.000  -0.000   0.000
  0.000   0.000   0.000  -0.002  -0.002   0.000   0.000   0.000   0.000  -0.013   0.000   0.000   0.111  -0.000  -0.000  -0.004
 -0.000   0.000  -0.000   0.000   0.000  -0.000  -0.000  -0.000  -0.000   0.000   0.000  -0.000  -0.000   0.116  -0.000   0.000
 -0.002   0.002  -0.000   0.000  -0.000  -0.013  -0.000  -0.000   0.000  -0.000   0.000  -0.000  -0.000  -0.000   0.111   0.000
 -0.000  -0.000  -0.000  -0.000   0.001  -0.000  -0.000   0.000  -0.000  -0.000   0.000  -0.000  -0.004   0.000   0.000   0.000
  0.000   0.000   0.000   0.000  -0.000   0.000   0.000   0.000   0.000  -0.000  -0.000   0.000   0.000  -0.004   0.000  -0.000
  0.001   0.000   0.000  -0.000   0.000  -0.000   0.000  -0.000  -0.000   0.000  -0.000   0.000  -0.000   0.000  -0.004  -0.000
 total augmentation occupancy for first ion, spin component:           2
  0.909  -0.068   0.000  -0.000  -0.000  -0.288  -0.086  -0.000  -0.000  -0.000  -0.000  -0.000  -0.000   0.000   0.015  -0.000
 -0.068   0.853  -0.000  -0.000  -0.000  -0.086  -0.365  -0.000  -0.000  -0.000  -0.000  -0.000  -0.000   0.000  -0.000   0.000
  0.000  -0.000   0.951  -0.000  -0.000  -0.000  -0.000  -0.254  -0.000   0.000  -0.014  -0.014  -0.000   0.000   0.000  -0.000
 -0.000  -0.000  -0.000   0.853   0.068  -0.000   0.000  -0.000  -0.365   0.086  -0.000   0.000   0.000   0.000  -0.000   0.000
 -0.000  -0.000  -0.000   0.068   0.909   0.000  -0.000   0.000   0.086  -0.288   0.000   0.000   0.015  -0.000   0.000   0.001
 -0.288  -0.086  -0.000  -0.000   0.000   0.090   0.054   0.000   0.000  -0.000   0.000   0.000   0.000  -0.000  -0.005   0.000
 -0.086  -0.365  -0.000   0.000  -0.000   0.054   0.146   0.000  -0.000   0.000   0.000   0.000   0.000   0.000  -0.001   0.000
 -0.000  -0.000  -0.254  -0.000   0.000   0.000   0.000   0.066   0.000  -0.000   0.007   0.005   0.000  -0.000  -0.000   0.000
 -0.000  -0.000  -0.000  -0.365   0.086   0.000  -0.000   0.000   0.146  -0.054  -0.000  -0.000   0.001  -0.000   0.000   0.000
 -0.000  -0.000   0.000   0.086  -0.288  -0.000   0.000  -0.000  -0.054   0.090  -0.000  -0.000  -0.005   0.000  -0.000  -0.000
 -0.000   0.000  -0.014   0.000   0.000   0.000   0.000   0.007   0.000  -0.000   0.165   0.094   0.000   0.000  -0.000   0.000
 -0.000  -0.000  -0.014   0.000   0.000   0.000   0.000   0.005  -0.000  -0.000   0.094  -0.034   0.000   0.000  -0.000   0.000
 -0.000  -0.000  -0.000   0.000   0.015   0.000   0.000   0.000   0.001  -0.005   0.000   0.000   0.014  -0.000  -0.000   0.000
  0.000   0.000   0.000   0.000  -0.000  -0.000   0.000  -0.000  -0.000   0.000   0.000   0.000  -0.000   0.014  -0.000  -0.000
  0.015  -0.000   0.000  -0.000   0.000  -0.005  -0.001  -0.000   0.000  -0.000   0.000  -0.000  -0.000  -0.000   0.014   0.000
 -0.000   0.000  -0.000   0.000   0.001   0.000   0.000   0.000   0.000  -0.000   0.000  -0.000   0.000  -0.000   0.000  -0.000
  0.000   0.000   0.000  -0.000  -0.000  -0.000   0.000  -0.000  -0.000   0.000   0.000  -0.000  -0.000   0.000  -0.000   0.000
  0.001  -0.000   0.000   0.000   0.000  -0.000  -0.000  -0.000   0.000  -0.000  -0.000   0.000  -0.000  -0.000   0.000   0.000


------------------------ aborting loop because EDIFF is reached ----------------------------------------





 total charge     

# of ion       s       p       d       tot
------------------------------------------
    1        0.222   0.221   4.932   5.375
    2        0.222   0.221   4.932   5.375
    3        0.993   1.410   0.000   2.403
    4        0.993   1.410   0.000   2.403
    5        1.367   2.384   0.000   3.751
    6        1.354   2.344   0.000   3.698
    7        1.364   2.373   0.000   3.738
    8        1.367   2.384   0.000   3.751
    9        1.354   2.344   0.000   3.698
   10        1.364   2.373   0.000   3.738
--------------------------------------------------
tot         10.601  17.465   9.863  37.930



 magnetization (x)

# of ion       s       p       d       tot
------------------------------------------
    1        0.031   0.025   4.217   4.273
    2        0.031   0.025   4.217   4.273
    3        0.003   0.025   0.000   0.028
    4        0.003   0.025   0.000   0.028
    5        0.011   0.065   0.000   0.076
    6        0.009   0.052   0.000   0.060
    7        0.010   0.063   0.000   0.073
    8        0.011   0.065   0.000   0.076
    9        0.009   0.052   0.000   0.060
   10        0.010   0.063   0.000   0.073
--------------------------------------------------
tot          0.128   0.460   8.435   9.023

    CHARGE:  cpu time    2.0040: real time    2.0172
    FORLOC:  cpu time    0.0560: real time    0.0557
    FORNL :  cpu time    6.7040: real time    6.7486
    STRESS:  cpu time   20.1280: real time   20.2411
    FORCOR:  cpu time   51.7000: real time   51.8859
    FORHAR:  cpu time    0.3200: real time    0.3209
    MIXING:  cpu time    0.0400: real time    0.0404
    OFIELD:  cpu time    0.0000: real time    0.0000

  FORCE on cell =-STRESS in cart. coord.  units (eV):
  Direction    XX          YY          ZZ          XY          YZ          ZX
  --------------------------------------------------------------------------------------
  Alpha Z    29.76734    29.76734    29.76734
  Ewald   10769.25048 10769.24666-12623.47168    -0.00092    -0.00055    -0.00099
  Hartree 11206.92892 11206.92913-10944.23553     0.00010     0.00004     0.00007
  E(xc)    -234.74377  -234.74377  -234.47162     0.00001    -0.00000     0.00001
  Local  -22919.56829-22919.56642 22584.71737     0.00038     0.00028     0.00052
  n-local   499.38857   502.86028   498.35165     1.53380    -0.03533    -0.15441
  augment   -60.29706   -60.29703   -62.84530     0.00001     0.00000     0.00002
  Kinetic   709.30457   705.38236   752.19166    -3.05434     0.14350     0.08863
  Fock        0.00000     0.00000     0.00000     0.00000     0.00000     0.00000
  -------------------------------------------------------------------------------------
  Total      -0.19535    -0.19535     0.00389    -0.00000     0.00000     0.00000
  in kB      -0.44528    -0.44528     0.00886    -0.00000     0.00000     0.00000
  external pressure =       -0.29 kB  Pullay stress =        0.00 kB


 VOLUME and BASIS-vectors are now :
 -----------------------------------------------------------------------------
  energy-cutoff  :      520.00
  volume of cell :      702.88
      direct lattice vectors                 reciprocal lattice vectors
     6.058264520  0.000000448 -0.000000000     0.165063780 -0.095299596  0.000000000
     3.029131579  5.246610987 -0.000000000    -0.000000014  0.190599235 -0.000000000
    -0.000000000  0.000000000 22.113289077     0.000000000  0.000000000  0.045221676

  length of vectors
     6.058264520  6.058264188 22.113289077     0.190599225  0.190599235  0.045221676


 FORCES acting on ions
    electron-ion (+dipol)            ewald-force                    non-local-force                 convergence-correction
 -----------------------------------------------------------------------------------------------
   -.153E-04 -.996E-05 -.595E+00   0.528E-03 0.303E-03 0.599E+00   -.426E-18 -.347E-17 -.583E-02   0.191E-07 0.197E-08 0.296E-05
   0.153E-04 0.996E-05 0.595E+00   -.528E-03 -.303E-03 -.599E+00   0.426E-18 0.174E-17 0.583E-02   -.191E-07 -.197E-08 -.296E-05
   -.486E-04 -.244E-04 0.270E+03   -.282E-03 -.157E-03 -.266E+03   0.598E-17 -.693E-17 -.339E+01   0.663E-07 0.322E-07 -.248E-02
   0.486E-04 0.244E-04 -.270E+03   0.282E-03 0.157E-03 0.266E+03   -.337E-16 0.693E-17 0.339E+01   -.663E-07 -.322E-07 0.248E-02
   0.419E+02 0.436E-01 -.493E+03   -.447E+02 -.509E-01 0.496E+03   0.291E+01 0.761E-02 -.311E+01   0.726E-02 -.316E-03 0.247E-01
   -.209E+02 -.363E+02 -.493E+03   0.223E+02 0.388E+02 0.496E+03   -.145E+01 -.253E+01 -.311E+01   -.390E-02 -.613E-02 0.247E-01
   -.210E+02 0.362E+02 -.493E+03   0.224E+02 -.387E+02 0.496E+03   -.146E+01 0.252E+01 -.311E+01   -.336E-02 0.645E-02 0.247E-01
   -.419E+02 -.436E-01 0.493E+03   0.447E+02 0.509E-01 -.496E+03   -.291E+01 -.761E-02 0.311E+01   -.726E-02 0.316E-03 -.247E-01
   0.209E+02 0.363E+02 0.493E+03   -.223E+02 -.388E+02 -.496E+03   0.145E+01 0.253E+01 0.311E+01   0.390E-02 0.613E-02 -.247E-01
   0.210E+02 -.362E+02 0.493E+03   -.224E+02 0.387E+02 -.496E+03   0.146E+01 -.252E+01 0.311E+01   0.336E-02 -.645E-02 -.247E-01
 -----------------------------------------------------------------------------------------------
   0.283E-10 -.678E-10 0.171E-09   0.213E-13 -.711E-14 0.114E-12   0.222E-15 -.444E-15 -.444E-15   0.132E-12 0.401E-12 -.177E-10


 POSITION                                       TOTAL-FORCE (eV/Angst)
 -----------------------------------------------------------------------------------
      3.02913      1.74887     11.05828        -0.000000     -0.000000     -0.002166
      6.05827      3.49774     11.05501        -0.000000     -0.000000      0.002166
     -0.00000      0.00000      9.94744        -0.000000     -0.000000      0.005358
     -0.00000      0.00000     12.16585        -0.000000     -0.000000     -0.005358
      4.07149     -0.00095     12.68362         0.046540      0.000929     -0.007989
      0.99257      1.72107     12.68362        -0.022465     -0.040770     -0.007989
      4.02334      3.52649     12.68362        -0.024075      0.039840     -0.007989
      1.98677      0.00095      9.42966        -0.046540     -0.000929      0.007989
      2.03656      3.52554      9.42966         0.022465      0.040770      0.007989
      5.06405      1.72012      9.42966         0.024075     -0.039840      0.007989
 -----------------------------------------------------------------------------------
    total drift:                                0.000000     -0.000000      0.000000


--------------------------------------------------------------------------------------------------------



  FREE ENERGIE OF THE ION-ELECTRON SYSTEM (eV)
  ---------------------------------------------------
  free  energy   TOTEN  =       -53.56396074 eV

  energy  without entropy=      -53.56396074  energy(sigma->0) =      -53.56396074

 d Force =-0.1008907E-03[-0.985E-04,-0.103E-03]  d Energy = 0.1215390E-03-0.222E-03
 d Force = 0.1395122E+01[ 0.140E+01, 0.139E+01]  d Ewald  =-0.1259554E+02 0.140E+02


--------------------------------------------------------------------------------------------------------


    POTLOK:  cpu time   51.7280: real time   51.9826


--------------------------------------------------------------------------------------------------------




--------------------------------------------------------------------------------------------------------


  
 reached required accuracy - stopping structural energy minimisation
     LOOP+:  cpu time  363.8440: real time  365.9573
    4ORBIT:  cpu time    0.0000: real time    0.0000



 total charge     

# of ion       s       p       d       tot
------------------------------------------
    1        0.222   0.221   4.932   5.375
    2        0.222   0.221   4.932   5.375
    3        0.993   1.410   0.000   2.403
    4        0.993   1.410   0.000   2.403
    5        1.367   2.384   0.000   3.751
    6        1.354   2.344   0.000   3.698
    7        1.364   2.373   0.000   3.738
    8        1.367   2.384   0.000   3.751
    9        1.354   2.344   0.000   3.698
   10        1.364   2.373   0.000   3.738
--------------------------------------------------
tot         10.601  17.465   9.863  37.930



 magnetization (x)

# of ion       s       p       d       tot
------------------------------------------
    1        0.031   0.025   4.217   4.273
    2        0.031   0.025   4.217   4.273
    3        0.003   0.025   0.000   0.028
    4        0.003   0.025   0.000   0.028
    5        0.011   0.065   0.000   0.076
    6        0.009   0.052   0.000   0.060
    7        0.010   0.063   0.000   0.073
    8        0.011   0.065   0.000   0.076
    9        0.009   0.052   0.000   0.060
   10        0.010   0.063   0.000   0.073
--------------------------------------------------
tot          0.128   0.460   8.435   9.023

 BZINTS: Fermi energy: -2.689070; 60.000000 electrons
         Band energy:-515.383061;  BLOECHL correction:  0.000000

 total amount of memory used by VASP MPI-rank0   132362. kBytes
=======================================================================

   base      :      30000. kBytes
   nonlr-proj:      12067. kBytes
   fftplans  :      11247. kBytes
   grid      :      66142. kBytes
   one-center:        311. kBytes
   wavefun   :      12595. kBytes

  
  
 General timing and accounting informations for this job:
 ========================================================
  
                  Total CPU time used (sec):    39564.875
                            User time (sec):    38418.840
                          System time (sec):     1146.036
                         Elapsed time (sec):    39953.288
  
                   Maximum memory used (kb):      398304.
                   Average memory used (kb):           0.
  
                          Minor page faults:     37586726
                          Major page faults:            8
                 Voluntary context switches:         1136
