 vasp.5.4.4.18Apr17-6-g9f103f2a35 (build May  1 2020 15:48:39) complex           
 executed on             LinuxGNU date 2020.06.23  16:17:52
 running on   24 total cores
 distrk:  each k-point on   24 cores,    1 groups
 distr:  one band on NCORES_PER_BAND=   1 cores,   24 groups


--------------------------------------------------------------------------------------------------------


 INCAR:
 POTCAR:   PAW_PBE Co 06Sep2000                   
 POTCAR:   PAW_PBE Si 05Jan2001                   
 POTCAR:    PAW_PBE P 17Jan2003                   
 POTCAR:   PAW_PBE Se 06Sep2000                   

 ----------------------------------------------------------------------------- 
|                                                                             |
|           W    W    AA    RRRRR   N    N  II  N    N   GGGG   !!!           |
|           W    W   A  A   R    R  NN   N  II  NN   N  G    G  !!!           |
|           W    W  A    A  R    R  N N  N  II  N N  N  G       !!!           |
|           W WW W  AAAAAA  RRRRR   N  N N  II  N  N N  G  GGG   !            |
|           WW  WW  A    A  R   R   N   NN  II  N   NN  G    G                |
|           W    W  A    A  R    R  N    N  II  N    N   GGGG   !!!           |
|                                                                             |
|      For optimal performance we recommend to set                            |
|        NCORE= 4 - approx SQRT( number of cores)                             |
|      NCORE specifies how many cores store one orbital (NPAR=cpu/NCORE).     |
|      This setting can  greatly improve the performance of VASP for DFT.     |
|      The default,   NCORE=1            might be grossly inefficient         |
|      on modern multi-core architectures or massively parallel machines.     |
|      Do your own testing !!!!                                               |
|      Unfortunately you need to use the default for GW and RPA calculations. |
|      (for HF NCORE is supported but not extensively tested yet)             |
|                                                                             |
 ----------------------------------------------------------------------------- 


 ----------------------------------------------------------------------------- 
|                                                                             |
|  ADVICE TO THIS USER RUNNING 'VASP/VAMP'   (HEAR YOUR MASTER'S VOICE ...):  |
|                                                                             |
|      You have switched on vdW-DFT.                                          |
|      This routine was written and supplied by Jiri Klimes.                  |
|      We recommed that you carefully read and cite the following             |
|      publication                                                            |
|      J. Klimes, D.R. Bowler, A. Michelides                                  |
|        J. Phys.: Cond Matt. 22 022201 (2010)                                |
|      J. Klimes, D.R. Bowler, A. Michelides                                  |
|        Phys. Rev. B. 83, 195131 (2011)                                      |
|      and references therein.                                                |
|                                                                             |
 ----------------------------------------------------------------------------- 

 POTCAR:   PAW_PBE Co 06Sep2000                   
   VRHFIN =Co: d8 s1                                                            
   LEXCH  = PE                                                                  
   EATOM  =   813.5563 eV,   59.7947 Ry                                         
                                                                                
   TITEL  = PAW_PBE Co 06Sep2000                                                
   LULTRA =        F    use ultrasoft PP ?                                      
   IUNSCR =        1    unscreen: 0-lin 1-nonlin 2-no                           
   RPACOR =    2.000    partial core radius                                     
   POMASS =   58.933; ZVAL   =    9.000    mass and valenz                      
   RCORE  =    2.300    outmost cutoff radius                                   
   RWIGS  =    2.460; RWIGS  =    1.302    wigner-seitz radius (au A)           
   ENMAX  =  267.969; ENMIN  =  200.977 eV                                      
   RCLOC  =    1.697    cutoff for local pot                                    
   LCOR   =        T    correct aug charges                                     
   LPAW   =        T    paw PP                                                  
   EAUG   =  477.818                                                            
   DEXC   =    -.016                                                            
   RMAX   =    2.817    core radius for proj-oper                               
   RAUG   =    1.300    factor for augmentation sphere                          
   RDEP   =    2.393    radius for radial grids                                 
   QCUT   =   -4.438; QGAM   =    8.876    optimization parameters              
                                                                                
   Description                                                                  
     l     E      TYP  RCUT    TYP  RCUT                                        
     2   .000     23  2.300                                                     
     2   .000     23  2.300                                                     
     0   .000     23  2.300                                                     
     0   .000     23  2.300                                                     
     1  -.200     23  2.300                                                     
     1   .000     23  2.300                                                     
     3   .000      7   .000                                                     
  local pseudopotential read in
  partial core-charges read in
  atomic valenz-charges read in
  non local Contribution for L=           2  read in
    real space projection operators read in
  non local Contribution for L=           2  read in
    real space projection operators read in
  non local Contribution for L=           0  read in
    real space projection operators read in
  non local Contribution for L=           0  read in
    real space projection operators read in
  non local Contribution for L=           1  read in
    real space projection operators read in
  non local Contribution for L=           1  read in
    real space projection operators read in
    PAW grid and wavefunctions read in

   number of l-projection  operators is LMAX  =           6
   number of lm-projection operators is LMMAX =          18

 POTCAR:   PAW_PBE Si 05Jan2001                   
   VRHFIN =Si: s2p2                                                             
   LEXCH  = PE                                                                  
   EATOM  =   103.0669 eV,    7.5752 Ry                                         
                                                                                
   TITEL  = PAW_PBE Si 05Jan2001                                                
   LULTRA =        F    use ultrasoft PP ?                                      
   IUNSCR =        1    unscreen: 0-lin 1-nonlin 2-no                           
   RPACOR =    1.500    partial core radius                                     
   POMASS =   28.085; ZVAL   =    4.000    mass and valenz                      
   RCORE  =    1.900    outmost cutoff radius                                   
   RWIGS  =    2.480; RWIGS  =    1.312    wigner-seitz radius (au A)           
   ENMAX  =  245.345; ENMIN  =  184.009 eV                                      
   ICORE  =        2    local potential                                         
   LCOR   =        T    correct aug charges                                     
   LPAW   =        T    paw PP                                                  
   EAUG   =  322.069                                                            
   DEXC   =    -.007                                                            
   RMAX   =    2.944    core radius for proj-oper                               
   RAUG   =    1.300    factor for augmentation sphere                          
   RDEP   =    1.993    radius for radial grids                                 
   QCUT   =   -4.246; QGAM   =    8.493    optimization parameters              
                                                                                
   Description                                                                  
     l     E      TYP  RCUT    TYP  RCUT                                        
     0   .000     23  1.900                                                     
     0   .000     23  1.900                                                     
     1   .000     23  1.900                                                     
     1   .000     23  1.900                                                     
     2   .000      7  1.900                                                     
  local pseudopotential read in
  partial core-charges read in
  atomic valenz-charges read in
  non local Contribution for L=           0  read in
    real space projection operators read in
  non local Contribution for L=           0  read in
    real space projection operators read in
  non local Contribution for L=           1  read in
    real space projection operators read in
  non local Contribution for L=           1  read in
    real space projection operators read in
    PAW grid and wavefunctions read in

   number of l-projection  operators is LMAX  =           4
   number of lm-projection operators is LMMAX =           8

 POTCAR:    PAW_PBE P 17Jan2003                   
   VRHFIN =P : s2p3                                                             
   LEXCH  = PE                                                                  
   EATOM  =   176.0430 eV,   12.9388 Ry                                         
                                                                                
   TITEL  = PAW_PBE P 17Jan2003                                                 
   LULTRA =        F    use ultrasoft PP ?                                      
   IUNSCR =        1    unscreen: 0-lin 1-nonlin 2-no                           
   RPACOR =    1.500    partial core radius                                     
   POMASS =   30.974; ZVAL   =    5.000    mass and valenz                      
   RCORE  =    1.900    outmost cutoff radius                                   
   RWIGS  =    2.330; RWIGS  =    1.233    wigner-seitz radius (au A)           
   ENMAX  =  270.000; ENMIN  =  191.280 eV                                      
   ICORE  =        2    local potential                                         
   LCOR   =        T    correct aug charges                                     
   LPAW   =        T    paw PP                                                  
   EAUG   =  342.924                                                            
   DEXC   =    -.002                                                            
   RMAX   =    2.887    core radius for proj-oper                               
   RAUG   =    1.300    factor for augmentation sphere                          
   RDEP   =    1.931    radius for radial grids                                 
   QCUT   =   -4.330; QGAM   =    8.659    optimization parameters              
                                                                                
   Description                                                                  
     l     E      TYP  RCUT    TYP  RCUT                                        
     0   .000     23  1.900                                                     
     0   .000     23  1.900                                                     
     1   .000     23  1.900                                                     
     1   .000     23  1.900                                                     
     2   .000     23  1.900                                                     
  local pseudopotential read in
  partial core-charges read in
  atomic valenz-charges read in
  non local Contribution for L=           0  read in
    real space projection operators read in
  non local Contribution for L=           0  read in
    real space projection operators read in
  non local Contribution for L=           1  read in
    real space projection operators read in
  non local Contribution for L=           1  read in
    real space projection operators read in
    PAW grid and wavefunctions read in

   number of l-projection  operators is LMAX  =           4
   number of lm-projection operators is LMMAX =           8

 POTCAR:   PAW_PBE Se 06Sep2000                   
   VRHFIN =Se: s2p4                                                             
   LEXCH  = PE                                                                  
   EATOM  =   256.9644 eV,   18.8864 Ry                                         
                                                                                
   TITEL  = PAW_PBE Se 06Sep2000                                                
   LULTRA =        F    use ultrasoft PP ?                                      
   IUNSCR =        1    unscreen: 0-lin 1-nonlin 2-no                           
   RPACOR =    1.900    partial core radius                                     
   POMASS =   78.960; ZVAL   =    6.000    mass and valenz                      
   RCORE  =    2.100    outmost cutoff radius                                   
   RWIGS  =    2.200; RWIGS  =    1.164    wigner-seitz radius (au A)           
   ENMAX  =  211.534; ENMIN  =  158.651 eV                                      
   ICORE  =        3    local potential                                         
   LCOR   =        T    correct aug charges                                     
   LPAW   =        T    paw PP                                                  
   EAUG   =  446.842                                                            
   DEXC   =    -.031                                                            
   RMAX   =    3.170    core radius for proj-oper                               
   RAUG   =    1.300    factor for augmentation sphere                          
   RDEP   =    2.177    radius for radial grids                                 
   QCUT   =   -3.943; QGAM   =    7.886    optimization parameters              
                                                                                
   Description                                                                  
     l     E      TYP  RCUT    TYP  RCUT                                        
     0   .000     23  2.100                                                     
     0   .000     23  2.100                                                     
     1   .000     23  2.100                                                     
     1   .000     23  2.100                                                     
     2   .000     23  2.100                                                     
     3  -.100      7  2.100                                                     
  local pseudopotential read in
  partial core-charges read in
  atomic valenz-charges read in
  non local Contribution for L=           0  read in
    real space projection operators read in
  non local Contribution for L=           0  read in
    real space projection operators read in
  non local Contribution for L=           1  read in
    real space projection operators read in
  non local Contribution for L=           1  read in
    real space projection operators read in
  non local Contribution for L=           2  read in
    real space projection operators read in
    PAW grid and wavefunctions read in

   number of l-projection  operators is LMAX  =           5
   number of lm-projection operators is LMMAX =          13

 Optimization of the real space projectors (new method)

 maximal supplied QI-value         = 16.25
 optimisation between [QCUT,QGAM] = [ 11.54, 23.24] = [ 37.28,151.24] Ry 
 Optimized for a Real-space Cutoff    1.53 Angstroem

   l    n(q)    QCUT    max X(q) W(low)/X(q) W(high)/X(q)  e(spline) 
   2     10    11.539     4.599    0.83E-05    0.15E-04    0.45E-07
   2     10    11.539    18.158    0.10E-03    0.14E-03    0.24E-06
   0     11    11.539    15.740    0.19E-04    0.12E-05    0.17E-07
   0     11    11.539    47.662    0.48E-04    0.15E-04    0.31E-06
   1     10    11.539     5.777    0.11E-04    0.46E-05    0.25E-07
   1     10    11.539     8.007    0.46E-04    0.29E-04    0.11E-06
 Optimization of the real space projectors (new method)

 maximal supplied QI-value         = 19.84
 optimisation between [QCUT,QGAM] = [ 11.51, 23.22] = [ 37.09,150.92] Ry 
 Optimized for a Real-space Cutoff    1.21 Angstroem

   l    n(q)    QCUT    max X(q) W(low)/X(q) W(high)/X(q)  e(spline) 
   0      8    11.508     8.708    0.18E-04    0.44E-05    0.47E-08
   0      8    11.508   106.241    0.70E-04    0.15E-03    0.51E-07
   1      8    11.508     5.901    0.63E-05    0.23E-04    0.21E-07
   1      8    11.508    73.241    0.15E-03    0.36E-04    0.79E-07
 Optimization of the real space projectors (new method)

 maximal supplied QI-value         = 19.84
 optimisation between [QCUT,QGAM] = [ 11.51, 23.22] = [ 37.09,150.92] Ry 
 Optimized for a Real-space Cutoff    1.21 Angstroem

   l    n(q)    QCUT    max X(q) W(low)/X(q) W(high)/X(q)  e(spline) 
   0      8    11.508     6.651    0.19E-04    0.31E-05    0.49E-08
   0      8    11.508    90.285    0.95E-04    0.17E-03    0.51E-07
   1      8    11.508     4.328    0.14E-04    0.32E-04    0.22E-07
   1      8    11.508    54.583    0.16E-03    0.71E-04    0.89E-07
 Optimization of the real space projectors (new method)

 maximal supplied QI-value         = 17.95
 optimisation between [QCUT,QGAM] = [ 11.67, 23.34] = [ 38.13,152.52] Ry 
 Optimized for a Real-space Cutoff    1.25 Angstroem

   l    n(q)    QCUT    max X(q) W(low)/X(q) W(high)/X(q)  e(spline) 
   0      9    11.669     6.499    0.13E-04    0.81E-05    0.11E-07
   0      9    11.669    52.623    0.18E-03    0.46E-04    0.72E-07
   1      8    11.669     4.229    0.40E-04    0.45E-04    0.31E-07
   1      8    11.669    29.991    0.22E-03    0.36E-03    0.10E-06
   2      8    11.669     3.719    0.19E-03    0.46E-04    0.50E-07

 ----------------------------------------------------------------------------- 
|                                                                             |
|  ADVICE TO THIS USER RUNNING 'VASP/VAMP'   (HEAR YOUR MASTER'S VOICE ...):  |
|                                                                             |
|      You enforced a specific xc-type in the INCAR file,                     |
|      a different type was found on the POTCAR file                          |
|          I HOPE YOU KNOW, WHAT YOU ARE  DOING                               |
|                                                                             |
 ----------------------------------------------------------------------------- 

 PAW_PBE Co 06Sep2000                   :
 energy of atom  1       EATOM= -813.5563
 kinetic energy error for atom=    0.0028 (will be added to EATOM!!)
 PAW_PBE Si 05Jan2001                   :
 energy of atom  2       EATOM= -103.0669
 kinetic energy error for atom=    0.0005 (will be added to EATOM!!)
  PAW_PBE P 17Jan2003                   :
 energy of atom  3       EATOM= -176.0430
 kinetic energy error for atom=    0.0011 (will be added to EATOM!!)
 PAW_PBE Se 06Sep2000                   :
 energy of atom  4       EATOM= -256.9644
 kinetic energy error for atom=    0.0007 (will be added to EATOM!!)


 POSCAR: Co2 Si P Se6                            
  positions in direct lattice
  velocities in cartesian coordinates
  No initial velocities read in
 exchange correlation table for  LEXCH =       42
   RHO(1)=    0.500       N(1)  =     2000
   RHO(2)=  100.500       N(2)  =     4000



--------------------------------------------------------------------------------------------------------


 ion  position               nearest neighbor table
   1  0.333  0.333  0.500-   6 2.78   5 2.78   7 2.78   8 2.78  10 2.78   9 2.78
   2  0.667  0.667  0.500-   9 2.78   8 2.78  10 2.78   5 2.78   7 2.78   6 2.78
   3  0.000  0.000  0.448-   4 2.43   8 2.63  10 2.63   9 2.63
   4  0.000  0.000  0.552-   3 2.43   5 2.63   7 2.63   6 2.63
   5  0.626  0.000  0.574-   4 2.63   1 2.78   2 2.78
   6  0.000  0.373  0.574-   4 2.63   1 2.78   2 2.78
   7  0.373  0.626  0.574-   4 2.63   1 2.78   2 2.78
   8  0.374  1.000  0.426-   3 2.63   2 2.78   1 2.78
   9  1.000  0.627  0.426-   3 2.63   2 2.78   1 2.78
  10  0.627  0.374  0.426-   3 2.63   2 2.78   1 2.78

  LATTYP: Found a hexagonal cell.
 ALAT       =     6.9077769333
 C/A-ratio  =     3.3939410937
  
  Lattice vectors:
  
 A1 = (   3.4538890000,  -5.9823100000,   0.0000000000)
 A2 = (  -6.9077770000,   0.0000000000,   0.0000000000)
 A3 = (   0.0000000000,   0.0000000000, -23.4445880000)


Analysis of symmetry for initial positions (statically):
=====================================================================
 Subroutine PRICEL returns:
 Original cell was already a primitive cell.
 

 Routine SETGRP: Setting up the symmetry group for a 
 hexagonal supercell.


 Subroutine GETGRP returns: Found  3 space group operations
 (whereof  3 operations were pure point group operations)
 out of a pool of 24 trial point group operations.


The static configuration has the point symmetry C_3 .


Analysis of symmetry for dynamics (positions and initial velocities):
=====================================================================
 Subroutine PRICEL returns:
 Original cell was already a primitive cell.
 

 Routine SETGRP: Setting up the symmetry group for a 
 hexagonal supercell.


 Subroutine GETGRP returns: Found  3 space group operations
 (whereof  3 operations were pure point group operations)
 out of a pool of 24 trial point group operations.


The dynamic configuration has the point symmetry C_3 .


Analysis of constrained symmetry for selective dynamics:
=====================================================================
 Subroutine PRICEL returns:
 Original cell was already a primitive cell.
 

 Routine SETGRP: Setting up the symmetry group for a 
 hexagonal supercell.


 Subroutine GETGRP returns: Found  3 space group operations
 (whereof  3 operations were pure point group operations)
 out of a pool of 24 trial point group operations.


The constrained configuration has the point symmetry C_3 .


Analysis of structural, dynamic, and magnetic symmetry:
=====================================================================
 Subroutine PRICEL returns:
 Original cell was already a primitive cell.
 

 Routine SETGRP: Setting up the symmetry group for a 
 hexagonal supercell.


 Subroutine GETGRP returns: Found  3 space group operations
 (whereof  3 operations were pure point group operations)
 out of a pool of 24 trial point group operations.


The magnetic configuration has the point symmetry C_3 .


 Subroutine INISYM returns: Found  3 space group operations
 (whereof  3 operations are pure point group operations),
 and found     1 'primitive' translations



 KPOINTS: Kpoints from vasprun.xml                

Automatic generation of k-mesh.
Space group operators:
 irot       det(A)        alpha          n_x          n_y          n_z        tau_x        tau_y        tau_z
    1     1.000000     0.000000     1.000000     0.000000     0.000000     0.000000     0.000000     0.000000
    2     1.000000   120.000000     0.000000     0.000000     1.000000     0.000000     0.000000     0.000000
    3     1.000000   120.000000     0.000000     0.000000    -1.000000     0.000000     0.000000     0.000000
 
 Subroutine IBZKPT returns following result:
 ===========================================
 
 Found      5 irreducible k-points:
 
 Following reciprocal coordinates:
            Coordinates               Weight
  0.000000  0.000000  0.000000      1.000000
  0.200000  0.000000  0.000000      6.000000
  0.400000  0.000000  0.000000      6.000000
  0.400000  0.200000  0.000000      6.000000
 -0.400000  0.200000  0.000000      6.000000
 
 Following cartesian coordinates:
            Coordinates               Weight
  0.000000  0.000000  0.000000      1.000000
  0.028953 -0.016716  0.000000      6.000000
  0.057906 -0.033432  0.000000      6.000000
  0.057906  0.000000  0.000000      6.000000
 -0.057906  0.066864  0.000000      6.000000
 
 TETIRR: Found     15 inequivalent tetrahedra from      150


--------------------------------------------------------------------------------------------------------




 Dimension of arrays:
   k-points           NKPTS =      5   k-points in BZ     NKDIM =      5   number of bands    NBANDS=     48
   number of dos      NEDOS =    301   number of ions     NIONS =     10
   non local maximal  LDIM  =      6   non local SUM 2l+1 LMDIM =     18
   total plane-waves  NPLWV = 524880
   max r-space proj   IRMAX =   8238   max aug-charges    IRDMAX=  23823
   dimension x,y,z NGX =    54 NGY =   54 NGZ =  180
   dimension x,y,z NGXF=   108 NGYF=  108 NGZF=  360
   support grid    NGXF=   108 NGYF=  108 NGZF=  360
   ions per type =               2   1   1   6
   NGX,Y,Z   is equivalent  to a cutoff of  13.00, 13.00, 12.76 a.u.
   NGXF,Y,Z  is equivalent  to a cutoff of  25.99, 25.99, 25.53 a.u.

 SYSTEM =  unknown system                          
 POSCAR =  Co2 Si P Se6                            

 Startparameter for this run:
   NWRITE =      2    write-flag & timer
   PREC   = accura    normal or accurate (medium, high low for compatibility)
   ISTART =      0    job   : 0-new  1-cont  2-samecut
   ICHARG =      2    charge: 1-file 2-atom 10-const
   ISPIN  =      2    spin polarized calculation?
   LNONCOLLINEAR =      F non collinear calculations
   LSORBIT =      F    spin-orbit coupling
   INIWAV =      1    electr: 0-lowe 1-rand  2-diag
   LASPH  =      F    aspherical Exc in radial PAW
   METAGGA=      F    non-selfconsistent MetaGGA calc.

 Electronic Relaxation 1
   ENCUT  =  520.0 eV  38.22 Ry    6.18 a.u.  12.84 12.84 43.59*2*pi/ulx,y,z
   ENINI  =  520.0     initial cutoff
   ENAUG  =  477.8 eV  augmentation charge cutoff
   NELM   =    400;   NELMIN=  2; NELMDL=  0     # of ELM steps 
   EDIFF  = 0.1E-03   stopping-criterion for ELM
   LREAL  =      T    real-space projection
   NLSPLINE    = F    spline interpolate recip. space projectors
   LCOMPAT=      F    compatible to vasp.4.4
   GGA_COMPAT  = T    GGA compatible to vasp.4.4-vasp.4.6
   LMAXPAW     = -100 max onsite density
   LMAXMIX     =    2 max onsite mixed and CHGCAR
   VOSKOWN=      0    Vosko Wilk Nusair interpolation
   ROPT   =   -0.00025  -0.00025  -0.00025  -0.00025
 Ionic relaxation
   EDIFFG = 0.1E-02   stopping-criterion for IOM
   NSW    =     99    number of steps for IOM
   NBLOCK =      1;   KBLOCK =     99    inner block; outer block 
   IBRION =      2    ionic relax: 0-MD 1-quasi-New 2-CG
   NFREE  =      1    steps in history (QN), initial steepest desc. (CG)
   ISIF   =      3    stress and relaxation
   IWAVPR =     11    prediction:  0-non 1-charg 2-wave 3-comb
   ISYM   =      2    0-nonsym 1-usesym 2-fastsym
   LCORR  =      T    Harris-Foulkes like correction to forces

   POTIM  = 0.5000    time-step for ionic-motion
   TEIN   =    0.0    initial temperature
   TEBEG  =    0.0;   TEEND  =   0.0 temperature during run
   SMASS  =  -3.00    Nose mass-parameter (am)
   estimated Nose-frequenzy (Omega)   =  0.10E-29 period in steps =****** mass=  -0.109E-26a.u.
   SCALEE = 1.0000    scale energy and forces
   NPACO  =    256;   APACO  = 16.0  distance and # of slots for P.C.
   PSTRESS=    0.0 pullay stress

  Mass of Ions in am
   POMASS =  58.93 28.09 30.97 78.96
  Ionic Valenz
   ZVAL   =   9.00  4.00  5.00  6.00
  Atomic Wigner-Seitz radii
   RWIGS  =  -1.00 -1.00 -1.00 -1.00
  virtual crystal weights 
   VCA    =   1.00  1.00  1.00  1.00
   NELECT =      63.0000    total number of electrons
   NUPDOWN=      -1.0000    fix difference up-down

 DOS related values:
   EMIN   =  10.00;   EMAX   =-10.00  energy-range for DOS
   EFERMI =   0.00
   ISMEAR =    -5;   SIGMA  =   0.05  broadening in eV -4-tet -1-fermi 0-gaus

 Electronic relaxation 2 (details)
   IALGO  =     38    algorithm
   LDIAG  =      T    sub-space diagonalisation (order eigenvalues)
   LSUBROT=      F    optimize rotation matrix (better conditioning)
   TURBO    =      0    0=normal 1=particle mesh
   IRESTART =      0    0=no restart 2=restart with 2 vectors
   NREBOOT  =      0    no. of reboots
   NMIN     =      0    reboot dimension
   EREF     =   0.00    reference energy to select bands
   IMIX   =      4    mixing-type and parameters
     AMIX     =   0.40;   BMIX     =  1.00
     AMIX_MAG =   1.60;   BMIX_MAG =  1.00
     AMIN     =   0.01
     WC   =   100.;   INIMIX=   1;  MIXPRE=   1;  MAXMIX= -45

 Intra band minimization:
   WEIMIN = 0.0010     energy-eigenvalue tresh-hold
   EBREAK =  0.52E-06  absolut break condition
   DEPER  =   0.30     relativ break condition  

   TIME   =   0.40     timestep for ELM

  volume/ion in A,a.u.               =      96.88       653.80
  Fermi-wavevector in a.u.,A,eV,Ry     =   0.658322  1.244048  5.896601  0.433388
  Thomas-Fermi vector in A             =   1.730108

 Write flags
   LWAVE        =      F    write WAVECAR
   LDOWNSAMPLE  =      F    k-point downsampling of WAVECAR
   LCHARG       =      T    write CHGCAR
   LVTOT        =      F    write LOCPOT, total local potential
   LVHAR        =      F    write LOCPOT, Hartree potential only
   LELF         =      F    write electronic localiz. function (ELF)
   LORBIT       =     11    0 simple, 1 ext, 2 COOP (PROOUT), +10 PAW based schemes


 Dipole corrections
   LMONO  =      F    monopole corrections only (constant potential shift)
   LDIPOL =      F    correct potential (dipole corrections)
   IDIPOL =      0    1-x, 2-y, 3-z, 4-all directions 
   EPSILON=  1.0000000 bulk dielectric constant

 Exchange correlation treatment:
   GGA     =    BO    GGA type
   LEXCH   =    42    internal setting for exchange type
   VOSKOWN=      0    Vosko Wilk Nusair interpolation
   LHFCALC =     F    Hartree Fock is set to
   LHFONE  =     F    Hartree Fock one center treatment
   AEXX    =    0.0000 exact exchange contribution

 vdW DFT:
   LUSE_VDW   =     T    switch on vdW DFT
   Zab_VDW    =-.8491    correlation parameter
   PARAM1     =0.1833
   PARAM2     =0.2200
   PARAM3     =0.0000
   -- rVV10 --
   BPARAM     = 6.3000
   CPARAM     = 0.0093

 Linear response parameters
   LEPSILON=     F    determine dielectric tensor
   LRPA    =     F    only Hartree local field effects (RPA)
   LNABLA  =     F    use nabla operator in PAW spheres
   LVEL    =     F    velocity operator in full k-point grid
   LINTERFAST=   F  fast interpolation
   KINTER  =     0    interpolate to denser k-point grid
   CSHIFT  =0.1000    complex shift for real part using Kramers Kronig
   OMEGAMAX=  -1.0    maximum frequency
   DEG_THRESHOLD= 0.2000000E-02 threshold for treating states as degnerate
   RTIME   =   -0.100 relaxation time in fs
  (WPLASMAI=    0.000 imaginary part of plasma frequency in eV, 0.658/RTIME)
   DFIELD  = 0.0000000 0.0000000 0.0000000 field for delta impulse in time

 Orbital magnetization related:
   ORBITALMAG=     F  switch on orbital magnetization
   LCHIMAG   =     F  perturbation theory with respect to B field
   DQ        =  0.001000  dq finite difference perturbation B field
   LLRAUG    =     F  two centre corrections for induced B field



--------------------------------------------------------------------------------------------------------


 conjugate gradient relaxation of ions
   using selective dynamics as specified on POSCAR
 charge density and potential will be updated during run
 spin polarized calculation
 Variant of blocked Davidson
 Davidson routine will perform the subspace rotation
 perform sub-space diagonalisation
    after iterative eigenvector-optimisation
 modified Broyden-mixing scheme, WC =      100.0
 initial mixing is a Kerker type mixing with AMIX =  0.4000 and BMIX =      1.0000
 Hartree-type preconditioning will be used
 using additional bands           16
 real space projection scheme for non local part
 use partial core corrections
 calculate Harris-corrections to forces   (improved forces if not selfconsistent)
 use gradient corrections 
 use of overlap-Matrix (Vanderbilt PP)
 Fermi weights with tetrahedron method with Bloechl corrections


--------------------------------------------------------------------------------------------------------


  energy-cutoff  :      520.00
  volume of cell :      968.84
      direct lattice vectors                 reciprocal lattice vectors
     6.907777000 -0.000000000  0.000000000     0.144764372 -0.083579742  0.000000000
     3.453888000  5.982310000  0.000000000     0.000000000  0.167159509 -0.000000000
     0.000000000  0.000000000 23.444588000    -0.000000000  0.000000000  0.042653767

  length of vectors
     6.907777000  6.907776433 23.444588000     0.167159495  0.167159509  0.042653767



 k-points in units of 2pi/SCALE and weight: Kpoints from vasprun.xml                
   0.00000000  0.00000000  0.00000000       0.040
   0.02895287 -0.01671595  0.00000000       0.240
   0.05790575 -0.03343190  0.00000000       0.240
   0.05790575  0.00000000  0.00000000       0.240
  -0.05790575  0.06686380  0.00000000       0.240

 k-points in reciprocal lattice and weights: Kpoints from vasprun.xml                
   0.00000000  0.00000000  0.00000000       0.040
   0.20000000  0.00000000  0.00000000       0.240
   0.40000000  0.00000000  0.00000000       0.240
   0.40000000  0.20000000  0.00000000       0.240
  -0.40000000  0.20000000  0.00000000       0.240

 position of ions in fractional coordinates (direct lattice) 
   0.33333300  0.33333300  0.49992500
   0.66666700  0.66666700  0.50007500
   0.00000000  0.00000000  0.44821600
   0.00000000  0.00000000  0.55178400
   0.62635700  0.00042000  0.57375200
   0.00042000  0.37322400  0.57375200
   0.37322400  0.62635700  0.57375200
   0.37364300  0.99958000  0.42624800
   0.99958000  0.62677600  0.42624800
   0.62677600  0.37364300  0.42624800

 position of ions in cartesian coordinates  (Angst):
   3.45388488  1.99410134 11.72053566
   6.90778012  3.98820866 11.72405234
   0.00000000  0.00000000 10.50823946
   0.00000000  0.00000000 12.93634854
   4.32818511  0.00251257 13.45137925
   1.29197516  2.23274167 13.45137925
   4.74151509  3.74706174 13.45137925
   6.03347989  5.97979743  9.99320875
   9.06968984  3.74956833  9.99320875
   5.62014991  2.23524826  9.99320875



--------------------------------------------------------------------------------------------------------


 k-point  1 :   0.0000 0.0000 0.0000  plane waves:   26073
 k-point  2 :   0.2000 0.0000 0.0000  plane waves:   26070
 k-point  3 :   0.4000 0.0000 0.0000  plane waves:   26086
 k-point  4 :   0.4000 0.2000 0.0000  plane waves:   26085
 k-point  5 :  -0.4000 0.2000 0.0000  plane waves:   26115

 maximum and minimum number of plane-waves per node :     26115    26070

 maximum number of plane-waves:     26115
 maximum index in each direction: 
   IXMAX=   13   IYMAX=   12   IZMAX=   43
   IXMIN=  -13   IYMIN=  -13   IZMIN=  -43


 serial   3D FFT for wavefunctions
 parallel 3D FFT for charge:
    minimum data exchange during FFTs selected (reduces bandwidth)


 total amount of memory used by VASP MPI-rank0   115496. kBytes
=======================================================================

   base      :      30000. kBytes
   nonlr-proj:       7386. kBytes
   fftplans  :       8558. kBytes
   grid      :      60832. kBytes
   one-center:        311. kBytes
   wavefun   :       8409. kBytes

     INWAV:  cpu time    0.0000: real time    0.0049
 Broyden mixing: mesh for mixing (old mesh)
   NGX = 25   NGY = 25   NGZ = 87
  (NGX  =108   NGY  =108   NGZ  =360)
  gives a total of  54375 points

 initial charge density was supplied:
 charge density of overlapping atoms calculated
 number of electron      63.0000000 magnetization       9.7800000
 keeping initial charge density in first step


--------------------------------------------------------------------------------------------------------


 Maximum index for non-local projection operator         7925
 Maximum index for augmentation-charges         1427 (set IRDMAX)


--------------------------------------------------------------------------------------------------------


 First call to EWALD:  gamma=   0.179
 Maximum number of real-space cells 4x 4x 1
 Maximum number of reciprocal cells 2x 2x 6

    FEWALD:  cpu time    0.0000: real time    0.0016


--------------------------------------- Iteration      1(   1)  ---------------------------------------


vdW kernel read from vdw_kernel.bindat
  0.0000  0.2424  0.5071  0.7962  1.1119  1.4567  1.8333  2.2446  2.6937  3.1842
  3.7199  4.3049  4.9438  5.6415  6.4036  7.2358  8.1446  9.1372 10.2212 11.4050
 12.6979 14.1099 15.6519 17.3360 19.1751 21.1837 23.3773 25.7729 28.3892 31.2465
 34.3669 37.7748 41.4965 45.5611 50.0000

    POTLOK:  cpu time   39.1440: real time   60.1290
    SETDIJ:  cpu time    0.0240: real time    0.0477
     EDDAV:  cpu time   21.3440: real time   31.3698
 BZINTS: Fermi energy:  4.601486; 63.000000 electrons
         Band energy: -47.017430;  BLOECHL correction: -0.029666
       DOS:  cpu time    0.0120: real time    0.0142
    --------------------------------------------
      LOOP:  cpu time   60.5240: real time   91.5608

 eigenvalue-minimisations  :   960
 total energy-change (2. order) : 0.4028209E+03  (-0.1937133E+04)
 number of electron      63.0000000 magnetization       9.7800000
 augmentation part       63.0000000 magnetization       9.7800000

 Free energy of the ion-electron system (eV)
  ---------------------------------------------------
  alpha Z        PSCENC =        37.45734350
  Ewald energy   TEWEN  =      7794.22900203
  -Hartree energ DENC   =    -10869.07672349
  -exchange      EXHF   =         0.00000000
  -V(xc)+E(xc)   XCENC  =        13.66820457
  PAW double counting   =      1983.40793448    -1973.68827238
  entropy T*S    EENTRO =         0.00000000
  eigenvalues    EBANDS =       -47.01743025
  atomic energy  EATOM  =      3463.84081127
  Solvation  Ediel_sol  =         0.00000000
  ---------------------------------------------------
  free energy    TOTEN  =       402.82086973 eV

  energy without entropy =      402.82086973  energy(sigma->0) =      402.82086973


--------------------------------------------------------------------------------------------------------




--------------------------------------- Iteration      1(   2)  ---------------------------------------


     EDDAV:  cpu time   24.9480: real time   37.5705
 BZINTS: Fermi energy: -1.769296; 63.000000 electrons
         Band energy:-429.693593;  BLOECHL correction: -0.021899
       DOS:  cpu time    0.0080: real time    0.0190
    --------------------------------------------
      LOOP:  cpu time   24.9560: real time   37.5895

 eigenvalue-minimisations  :  1272
 total energy-change (2. order) :-0.3826762E+03  (-0.3605194E+03)
 number of electron      63.0000000 magnetization       9.7800000
 augmentation part       63.0000000 magnetization       9.7800000

 Free energy of the ion-electron system (eV)
  ---------------------------------------------------
  alpha Z        PSCENC =        37.45734350
  Ewald energy   TEWEN  =      7794.22900203
  -Hartree energ DENC   =    -10869.07672349
  -exchange      EXHF   =         0.00000000
  -V(xc)+E(xc)   XCENC  =        13.66820457
  PAW double counting   =      1983.40793448    -1973.68827238
  entropy T*S    EENTRO =         0.00000000
  eigenvalues    EBANDS =      -429.69359289
  atomic energy  EATOM  =      3463.84081127
  Solvation  Ediel_sol  =         0.00000000
  ---------------------------------------------------
  free energy    TOTEN  =        20.14470709 eV

  energy without entropy =       20.14470709  energy(sigma->0) =       20.14470709


--------------------------------------------------------------------------------------------------------




--------------------------------------- Iteration      1(   3)  ---------------------------------------


     EDDAV:  cpu time   25.5160: real time   38.6576
 BZINTS: Fermi energy: -2.519554; 63.000000 electrons
         Band energy:-491.895343;  BLOECHL correction: -0.011339
       DOS:  cpu time    0.0080: real time    0.0083
    --------------------------------------------
      LOOP:  cpu time   25.5240: real time   38.6659

 eigenvalue-minimisations  :  1296
 total energy-change (2. order) :-0.6220175E+02  (-0.6060119E+02)
 number of electron      63.0000000 magnetization       9.7800000
 augmentation part       63.0000000 magnetization       9.7800000

 Free energy of the ion-electron system (eV)
  ---------------------------------------------------
  alpha Z        PSCENC =        37.45734350
  Ewald energy   TEWEN  =      7794.22900203
  -Hartree energ DENC   =    -10869.07672349
  -exchange      EXHF   =         0.00000000
  -V(xc)+E(xc)   XCENC  =        13.66820457
  PAW double counting   =      1983.40793448    -1973.68827238
  entropy T*S    EENTRO =         0.00000000
  eigenvalues    EBANDS =      -491.89534260
  atomic energy  EATOM  =      3463.84081127
  Solvation  Ediel_sol  =         0.00000000
  ---------------------------------------------------
  free energy    TOTEN  =       -42.05704262 eV

  energy without entropy =      -42.05704262  energy(sigma->0) =      -42.05704262


--------------------------------------------------------------------------------------------------------




--------------------------------------- Iteration      1(   4)  ---------------------------------------


     EDDAV:  cpu time   25.3280: real time   37.7583
 BZINTS: Fermi energy: -2.565164; 63.000000 electrons
         Band energy:-493.825688;  BLOECHL correction: -0.010249
       DOS:  cpu time    0.0040: real time    0.0053
    --------------------------------------------
      LOOP:  cpu time   25.3320: real time   37.7636

 eigenvalue-minimisations  :  1272
 total energy-change (2. order) :-0.1930345E+01  (-0.1924234E+01)
 number of electron      63.0000000 magnetization       9.7800000
 augmentation part       63.0000000 magnetization       9.7800000

 Free energy of the ion-electron system (eV)
  ---------------------------------------------------
  alpha Z        PSCENC =        37.45734350
  Ewald energy   TEWEN  =      7794.22900203
  -Hartree energ DENC   =    -10869.07672349
  -exchange      EXHF   =         0.00000000
  -V(xc)+E(xc)   XCENC  =        13.66820457
  PAW double counting   =      1983.40793448    -1973.68827238
  entropy T*S    EENTRO =         0.00000000
  eigenvalues    EBANDS =      -493.82568775
  atomic energy  EATOM  =      3463.84081127
  Solvation  Ediel_sol  =         0.00000000
  ---------------------------------------------------
  free energy    TOTEN  =       -43.98738777 eV

  energy without entropy =      -43.98738777  energy(sigma->0) =      -43.98738777


--------------------------------------------------------------------------------------------------------




--------------------------------------- Iteration      1(   5)  ---------------------------------------


     EDDAV:  cpu time   24.6200: real time   37.3541
 BZINTS: Fermi energy: -2.566008; 63.000000 electrons
         Band energy:-493.865924;  BLOECHL correction: -0.010236
       DOS:  cpu time    0.0120: real time    0.0227
    CHARGE:  cpu time    1.4320: real time    2.4202
    MIXING:  cpu time    0.0240: real time    0.0547
    --------------------------------------------
      LOOP:  cpu time   26.0880: real time   39.8517

 eigenvalue-minimisations  :  1224
 total energy-change (2. order) :-0.4023587E-01  (-0.4020368E-01)
 number of electron      62.9999989 magnetization       9.7213379
 augmentation part       -1.1593290 magnetization       6.4587751

 Broyden mixing:
  rms(total) = 0.32881E+01    rms(broyden)= 0.32881E+01
  rms(prec ) = 0.35256E+01
  weight for this iteration     100.00

 Free energy of the ion-electron system (eV)
  ---------------------------------------------------
  alpha Z        PSCENC =        37.45734350
  Ewald energy   TEWEN  =      7794.22900203
  -Hartree energ DENC   =    -10869.07672349
  -exchange      EXHF   =         0.00000000
  -V(xc)+E(xc)   XCENC  =        13.66820457
  PAW double counting   =      1983.40793448    -1973.68827238
  entropy T*S    EENTRO =         0.00000000
  eigenvalues    EBANDS =      -493.86592362
  atomic energy  EATOM  =      3463.84081127
  Solvation  Ediel_sol  =         0.00000000
  ---------------------------------------------------
  free energy    TOTEN  =       -44.02762364 eV

  energy without entropy =      -44.02762364  energy(sigma->0) =      -44.02762364


--------------------------------------------------------------------------------------------------------




--------------------------------------- Iteration      1(   6)  ---------------------------------------


    POTLOK:  cpu time   39.7800: real time   59.3374
    SETDIJ:  cpu time    0.0240: real time    0.0532
     EDDAV:  cpu time   24.7120: real time   37.1972
 BZINTS: Fermi energy: -4.276573; 63.000000 electrons
         Band energy:-724.778500;  BLOECHL correction: -0.038247
       DOS:  cpu time    0.0040: real time    0.0053
    CHARGE:  cpu time    1.5400: real time    2.4704
    MIXING:  cpu time    0.0200: real time    0.0497
    --------------------------------------------
      LOOP:  cpu time   66.0800: real time   99.1133

 eigenvalue-minimisations  :  1224
 total energy-change (2. order) :-0.5907771E+02  (-0.4788539E+02)
 number of electron      62.9999982 magnetization       9.3720770
 augmentation part        8.8143927 magnetization       9.3542644

 Broyden mixing:
  rms(total) = 0.63560E+01    rms(broyden)= 0.63560E+01
  rms(prec ) = 0.66856E+01
  weight for this iteration     100.00

 eigenvalues of (default mixing * dielectric matrix)
  average eigenvalue GAMMA=   0.3184
  0.3184

 Free energy of the ion-electron system (eV)
  ---------------------------------------------------
  alpha Z        PSCENC =        37.45734350
  Ewald energy   TEWEN  =      7794.22900203
  -Hartree energ DENC   =    -10731.33199820
  -exchange      EXHF   =         0.00000000
  -V(xc)+E(xc)   XCENC  =        16.74943569
  PAW double counting   =      1752.82931192    -1712.10074011
  entropy T*S    EENTRO =         0.00000000
  eigenvalues    EBANDS =      -724.77850014
  atomic energy  EATOM  =      3463.84081127
  Solvation  Ediel_sol  =         0.00000000
  ---------------------------------------------------
  free energy    TOTEN  =      -103.10533404 eV

  energy without entropy =     -103.10533404  energy(sigma->0) =     -103.10533404


--------------------------------------------------------------------------------------------------------




--------------------------------------- Iteration      1(   7)  ---------------------------------------


    POTLOK:  cpu time   38.3920: real time   59.8952
    SETDIJ:  cpu time    0.0280: real time    0.0812
     EDDAV:  cpu time   23.9960: real time   35.7471
 BZINTS: Fermi energy: -4.401215; 63.000000 electrons
         Band energy:-562.631941;  BLOECHL correction: -0.024477
       DOS:  cpu time    0.0120: real time    0.0168
    CHARGE:  cpu time    1.5120: real time    2.4531
    MIXING:  cpu time    0.0280: real time    0.0534
    --------------------------------------------
      LOOP:  cpu time   63.9680: real time   98.2469

 eigenvalue-minimisations  :  1176
 total energy-change (2. order) : 0.5647277E+02  (-0.7099754E+01)
 number of electron      62.9999983 magnetization       9.0876167
 augmentation part        6.9882680 magnetization       8.3770756

 Broyden mixing:
  rms(total) = 0.34786E+01    rms(broyden)= 0.34786E+01
  rms(prec ) = 0.37175E+01
  weight for this iteration     100.00

 eigenvalues of (default mixing * dielectric matrix)
  average eigenvalue GAMMA=   0.4428
  0.4428  0.4428

 Free energy of the ion-electron system (eV)
  ---------------------------------------------------
  alpha Z        PSCENC =        37.45734350
  Ewald energy   TEWEN  =      7794.22900203
  -Hartree energ DENC   =    -10808.74594129
  -exchange      EXHF   =         0.00000000
  -V(xc)+E(xc)   XCENC  =        13.25981896
  PAW double counting   =      1896.74879967    -1880.79045240
  entropy T*S    EENTRO =         0.00000000
  eigenvalues    EBANDS =      -562.63194122
  atomic energy  EATOM  =      3463.84081127
  Solvation  Ediel_sol  =         0.00000000
  ---------------------------------------------------
  free energy    TOTEN  =       -46.63255948 eV

  energy without entropy =      -46.63255948  energy(sigma->0) =      -46.63255948


--------------------------------------------------------------------------------------------------------




--------------------------------------- Iteration      1(   8)  ---------------------------------------


    POTLOK:  cpu time   38.8080: real time   58.7724
    SETDIJ:  cpu time    0.0400: real time    0.0786
     EDDAV:  cpu time   27.8440: real time   42.2776
 BZINTS: Fermi energy: -3.871960; 63.000000 electrons
         Band energy:-523.247897;  BLOECHL correction: -0.014264
       DOS:  cpu time    0.0080: real time    0.0179
    CHARGE:  cpu time    1.4360: real time    2.3835
    MIXING:  cpu time    0.0280: real time    0.0550
    --------------------------------------------
      LOOP:  cpu time   68.1640: real time  103.5850

 eigenvalue-minimisations  :  1440
 total energy-change (2. order) :-0.1215507E+01  (-0.1213574E+02)
 number of electron      62.9999986 magnetization       9.0791502
 augmentation part        2.3241569 magnetization       7.9271528

 Broyden mixing:
  rms(total) = 0.18211E+01    rms(broyden)= 0.18115E+01
  rms(prec ) = 0.18979E+01
  weight for this iteration     100.00

 eigenvalues of (default mixing * dielectric matrix)
  average eigenvalue GAMMA=   0.2998
  0.4427  0.4427  0.0141

 Free energy of the ion-electron system (eV)
  ---------------------------------------------------
  alpha Z        PSCENC =        37.45734350
  Ewald energy   TEWEN  =      7794.22900203
  -Hartree energ DENC   =    -10843.36797662
  -exchange      EXHF   =         0.00000000
  -V(xc)+E(xc)   XCENC  =        13.47117194
  PAW double counting   =      1959.46014748    -1949.69066868
  entropy T*S    EENTRO =         0.00000000
  eigenvalues    EBANDS =      -523.24789717
  atomic energy  EATOM  =      3463.84081127
  Solvation  Ediel_sol  =         0.00000000
  ---------------------------------------------------
  free energy    TOTEN  =       -47.84806625 eV

  energy without entropy =      -47.84806625  energy(sigma->0) =      -47.84806625


--------------------------------------------------------------------------------------------------------




--------------------------------------- Iteration      1(   9)  ---------------------------------------


    POTLOK:  cpu time   41.2560: real time   59.9354
    SETDIJ:  cpu time    0.0280: real time    0.0618
     EDDAV:  cpu time   28.0080: real time   41.8849
 BZINTS: Fermi energy: -3.896324; 62.968229 electrons
         Band energy:-787.587684;  BLOECHL correction: -0.012027
       DOS:  cpu time    0.0200: real time    0.0352
    CHARGE:  cpu time    1.3640: real time    2.4429
    MIXING:  cpu time    0.0280: real time    0.0558
    --------------------------------------------
      LOOP:  cpu time   70.7040: real time  104.4160

 eigenvalue-minimisations  :  1440
 total energy-change (2. order) :-0.2636545E+03  (-0.3471633E+03)
 number of electron      62.9682280 magnetization       9.0756725
 augmentation part        2.2297429 magnetization       7.9666374

 Broyden mixing:
  rms(total) = 0.32584E+01    rms(broyden)= 0.31767E+01
  rms(prec ) = 0.32471E+01
  weight for this iteration     100.00

 eigenvalues of (default mixing * dielectric matrix)
  average eigenvalue GAMMA=   0.2262
  0.4426  0.4426  0.0116  0.0078

 Free energy of the ion-electron system (eV)
  ---------------------------------------------------
  alpha Z        PSCENC =        37.45734350
  Ewald energy   TEWEN  =      7794.22900203
  -Hartree energ DENC   =    -10842.91063394
  -exchange      EXHF   =         0.00000000
  -V(xc)+E(xc)   XCENC  =        13.66374034
  PAW double counting   =      1959.03843796    -1949.23360160
  entropy T*S    EENTRO =         0.00000000
  eigenvalues    EBANDS =      -787.58768350
  atomic energy  EATOM  =      3463.84081127
  Solvation  Ediel_sol  =         0.00000000
  ---------------------------------------------------
  free energy    TOTEN  =      -311.50258395 eV

  energy without entropy =     -311.50258395  energy(sigma->0) =     -311.50258395


--------------------------------------------------------------------------------------------------------




--------------------------------------- Iteration      1(  10)  ---------------------------------------


    POTLOK:  cpu time   38.7560: real time   59.5898
    SETDIJ:  cpu time    0.0280: real time    0.0579
     EDDAV:  cpu time   26.3960: real time   41.4201
 BZINTS: Fermi energy: -3.903773; 63.004711 electrons
         Band energy:-519.471649;  BLOECHL correction: -0.012067
       DOS:  cpu time    0.0080: real time    0.0242
    CHARGE:  cpu time    1.4440: real time    2.5144
    MIXING:  cpu time    0.0280: real time    0.0555
    --------------------------------------------
      LOOP:  cpu time   66.6600: real time  103.6618

 eigenvalue-minimisations  :  1416
 total energy-change (2. order) : 0.2696303E+03  (-0.3414425E+03)
 number of electron      63.0047092 magnetization       9.0620554
 augmentation part        2.3051135 magnetization       7.9341066

 Broyden mixing:
  rms(total) = 0.15320E+01    rms(broyden)= 0.14124E+01
  rms(prec ) = 0.14708E+01
  weight for this iteration     100.00

 eigenvalues of (default mixing * dielectric matrix)
  average eigenvalue GAMMA=   0.1863
  0.4426  0.4426  0.0191  0.0191  0.0078

 Free energy of the ion-electron system (eV)
  ---------------------------------------------------
  alpha Z        PSCENC =        37.45734350
  Ewald energy   TEWEN  =      7794.22900203
  -Hartree energ DENC   =    -10842.69711904
  -exchange      EXHF   =         0.00000000
  -V(xc)+E(xc)   XCENC  =        14.94292292
  PAW double counting   =      1958.78695986    -1948.96056999
  entropy T*S    EENTRO =         0.00000000
  eigenvalues    EBANDS =      -519.47164868
  atomic energy  EATOM  =      3463.84081127
  Solvation  Ediel_sol  =         0.00000000
  ---------------------------------------------------
  free energy    TOTEN  =       -41.87229813 eV

  energy without entropy =      -41.87229813  energy(sigma->0) =      -41.87229813


--------------------------------------------------------------------------------------------------------




--------------------------------------- Iteration      1(  11)  ---------------------------------------


    POTLOK:  cpu time   40.0720: real time   60.0621
    SETDIJ:  cpu time    0.0640: real time    0.0651
     EDDAV:  cpu time   24.4360: real time   36.3120
 BZINTS: Fermi energy: -3.922610; 63.000000 electrons
         Band energy:-515.478111;  BLOECHL correction: -0.012212
       DOS:  cpu time    0.0160: real time    0.0166
    CHARGE:  cpu time    1.7640: real time    2.4746
    MIXING:  cpu time    0.0320: real time    0.0599
    --------------------------------------------
      LOOP:  cpu time   66.3840: real time   98.9903

 eigenvalue-minimisations  :  1224
 total energy-change (2. order) : 0.3660282E+01  (-0.6092710E+02)
 number of electron      62.9999985 magnetization       9.0331692
 augmentation part        2.6315170 magnetization       7.6065550

 Broyden mixing:
  rms(total) = 0.84124E+00    rms(broyden)= 0.81794E+00
  rms(prec ) = 0.85690E+00
  weight for this iteration     100.00

 eigenvalues of (default mixing * dielectric matrix)
  average eigenvalue GAMMA=   0.1647
  0.4426  0.4426  0.0401  0.0401  0.0148  0.0079

 Free energy of the ion-electron system (eV)
  ---------------------------------------------------
  alpha Z        PSCENC =        37.45734350
  Ewald energy   TEWEN  =      7794.22900203
  -Hartree energ DENC   =    -10841.98751972
  -exchange      EXHF   =         0.00000000
  -V(xc)+E(xc)   XCENC  =        13.85059040
  PAW double counting   =      1958.19162897    -1948.31576150
  entropy T*S    EENTRO =         0.00000000
  eigenvalues    EBANDS =      -515.47811136
  atomic energy  EATOM  =      3463.84081127
  Solvation  Ediel_sol  =         0.00000000
  ---------------------------------------------------
  free energy    TOTEN  =       -38.21201640 eV

  energy without entropy =      -38.21201640  energy(sigma->0) =      -38.21201640


--------------------------------------------------------------------------------------------------------




--------------------------------------- Iteration      1(  12)  ---------------------------------------


    POTLOK:  cpu time   38.0480: real time   58.1225
    SETDIJ:  cpu time    0.0960: real time    0.0974
     EDDAV:  cpu time   25.8520: real time   38.8896
 BZINTS: Fermi energy: -3.952709; 63.000000 electrons
         Band energy:***********;  BLOECHL correction: -0.006645
       DOS:  cpu time    0.0080: real time    0.0082
    CHARGE:  cpu time    1.6040: real time    2.3547
    MIXING:  cpu time    0.0600: real time    0.0596
    --------------------------------------------
      LOOP:  cpu time   65.6680: real time   99.5320

 eigenvalue-minimisations  :  1320
 total energy-change (2. order) :-0.7118589E+03  (-0.7462767E+03)
 number of electron      62.9999985 magnetization       9.0310855
 augmentation part        2.6898673 magnetization       7.5942385

 Broyden mixing:
  rms(total) = 0.22810E+01    rms(broyden)= 0.22020E+01
  rms(prec ) = 0.22513E+01
  weight for this iteration     100.00

 eigenvalues of (default mixing * dielectric matrix)
  average eigenvalue GAMMA=   0.1421
  0.4425  0.4425  0.0403  0.0403  0.0144  0.0074  0.0074

 Free energy of the ion-electron system (eV)
  ---------------------------------------------------
  alpha Z        PSCENC =        37.45734350
  Ewald energy   TEWEN  =      7794.22900203
  -Hartree energ DENC   =    -10841.30128526
  -exchange      EXHF   =         0.00000000
  -V(xc)+E(xc)   XCENC  =        13.59143048
  PAW double counting   =      1957.85987697    -1947.92375365
  entropy T*S    EENTRO =         0.00000000
  eigenvalues    EBANDS =     -1227.82432553
  atomic energy  EATOM  =      3463.84081127
  Solvation  Ediel_sol  =         0.00000000
  ---------------------------------------------------
  free energy    TOTEN  =      -750.07090018 eV

  energy without entropy =     -750.07090018  energy(sigma->0) =     -750.07090018


--------------------------------------------------------------------------------------------------------




--------------------------------------- Iteration      1(  13)  ---------------------------------------


    POTLOK:  cpu time   39.9640: real time   59.7516
    SETDIJ:  cpu time    0.0680: real time    0.0675
     EDDAV:  cpu time   28.4520: real time   43.8310
 BZINTS: Fermi energy: -3.966162; 63.000000 electrons
         Band energy:-798.774149;  BLOECHL correction: -0.006604
       DOS:  cpu time    0.0080: real time    0.0150
    CHARGE:  cpu time    1.5720: real time    2.3735
    MIXING:  cpu time    0.0280: real time    0.0638
    --------------------------------------------
      LOOP:  cpu time   70.0920: real time  106.1025

 eigenvalue-minimisations  :  1512
 total energy-change (2. order) : 0.4300108E+03  (-0.4792019E+03)
 number of electron      62.9999986 magnetization       9.0265064
 augmentation part        2.3722783 magnetization       7.9236193

 Broyden mixing:
  rms(total) = 0.20109E+01    rms(broyden)= 0.19190E+01
  rms(prec ) = 0.19752E+01
  weight for this iteration     100.00

 eigenvalues of (default mixing * dielectric matrix)
  average eigenvalue GAMMA=   0.1258
  0.4425  0.4425  0.0410  0.0410  0.0138  0.0091  0.0091  0.0076

 Free energy of the ion-electron system (eV)
  ---------------------------------------------------
  alpha Z        PSCENC =        37.45734350
  Ewald energy   TEWEN  =      7794.22900203
  -Hartree energ DENC   =    -10841.24833470
  -exchange      EXHF   =         0.00000000
  -V(xc)+E(xc)   XCENC  =        14.49128028
  PAW double counting   =      1957.80080133    -1947.85687445
  entropy T*S    EENTRO =         0.00000000
  eigenvalues    EBANDS =      -798.77414876
  atomic energy  EATOM  =      3463.84081127
  Solvation  Ediel_sol  =         0.00000000
  ---------------------------------------------------
  free energy    TOTEN  =      -320.06011951 eV

  energy without entropy =     -320.06011951  energy(sigma->0) =     -320.06011951


--------------------------------------------------------------------------------------------------------




--------------------------------------- Iteration      1(  14)  ---------------------------------------


    POTLOK:  cpu time   39.6280: real time   59.3533
    SETDIJ:  cpu time    0.0240: real time    0.0482
     EDDAV:  cpu time   22.6280: real time   34.0065
 BZINTS: Fermi energy: -3.913799; 63.000000 electrons
         Band energy:-514.823724;  BLOECHL correction: -0.014288
       DOS:  cpu time    0.0200: real time    0.0408
    CHARGE:  cpu time    1.6600: real time    2.3541
    MIXING:  cpu time    0.0320: real time    0.0622
    --------------------------------------------
      LOOP:  cpu time   63.9920: real time   95.8652

 eigenvalue-minimisations  :  1128
 total energy-change (2. order) : 0.2839051E+03  (-0.1221697E+03)
 number of electron      62.9999985 magnetization       8.9789425
 augmentation part        2.9482762 magnetization       7.1635628

 Broyden mixing:
  rms(total) = 0.60716E+00    rms(broyden)= 0.52249E+00
  rms(prec ) = 0.53676E+00
  weight for this iteration     100.00
  WARNING: grid for Broyden might be to small

 eigenvalues of (default mixing * dielectric matrix)
  average eigenvalue GAMMA=   0.1256
  0.4419  0.4419  0.0875  0.0875  0.0283  0.0156  0.0112  0.0084  0.0077

 Free energy of the ion-electron system (eV)
  ---------------------------------------------------
  alpha Z        PSCENC =        37.45734350
  Ewald energy   TEWEN  =      7794.22900203
  -Hartree energ DENC   =    -10840.97843044
  -exchange      EXHF   =         0.00000000
  -V(xc)+E(xc)   XCENC  =        14.15989254
  PAW double counting   =      1957.59419844    -1947.63410574
  entropy T*S    EENTRO =         0.00000000
  eigenvalues    EBANDS =      -514.82372359
  atomic energy  EATOM  =      3463.84081127
  Solvation  Ediel_sol  =         0.00000000
  ---------------------------------------------------
  free energy    TOTEN  =       -36.15501199 eV

  energy without entropy =      -36.15501199  energy(sigma->0) =      -36.15501199


--------------------------------------------------------------------------------------------------------




--------------------------------------- Iteration      1(  15)  ---------------------------------------


    POTLOK:  cpu time   39.0040: real time   58.3658
    SETDIJ:  cpu time    0.0480: real time    0.0547
     EDDAV:  cpu time   24.2240: real time   36.7403
 BZINTS: Fermi energy: -3.911845; 63.000000 electrons
         Band energy:-514.383344;  BLOECHL correction: -0.014518
       DOS:  cpu time    0.0040: real time    0.0040
    CHARGE:  cpu time    1.5880: real time    2.4091
    MIXING:  cpu time    0.0280: real time    0.0568
    --------------------------------------------
      LOOP:  cpu time   64.8960: real time   97.6307

 eigenvalue-minimisations  :  1224
 total energy-change (2. order) :-0.6573810E+00  (-0.1216279E-01)
 number of electron      62.9999984 magnetization       8.7769540
 augmentation part        2.9490012 magnetization       6.9546158

 Broyden mixing:
  rms(total) = 0.49592E+00    rms(broyden)= 0.49205E+00
  rms(prec ) = 0.50578E+00
  weight for this iteration     100.00

 eigenvalues of (default mixing * dielectric matrix)
  average eigenvalue GAMMA=   0.2278
  0.6300  0.6300  0.4358  0.4358  0.0707  0.0332  0.0150  0.0108  0.0087  0.0077

 Free energy of the ion-electron system (eV)
  ---------------------------------------------------
  alpha Z        PSCENC =        37.45734350
  Ewald energy   TEWEN  =      7794.22900203
  -Hartree energ DENC   =    -10841.50239654
  -exchange      EXHF   =         0.00000000
  -V(xc)+E(xc)   XCENC  =        13.52218612
  PAW double counting   =      1958.76714234    -1948.74313813
  entropy T*S    EENTRO =         0.00000000
  eigenvalues    EBANDS =      -514.38334359
  atomic energy  EATOM  =      3463.84081127
  Solvation  Ediel_sol  =         0.00000000
  ---------------------------------------------------
  free energy    TOTEN  =       -36.81239300 eV

  energy without entropy =      -36.81239300  energy(sigma->0) =      -36.81239300


--------------------------------------------------------------------------------------------------------




--------------------------------------- Iteration      1(  16)  ---------------------------------------


    POTLOK:  cpu time   39.4760: real time   58.4747
    SETDIJ:  cpu time    0.0240: real time    0.0484
     EDDAV:  cpu time   23.6440: real time   35.7238
 BZINTS: Fermi energy: -3.891224; 63.000000 electrons
         Band energy:-513.414072;  BLOECHL correction: -0.011455
       DOS:  cpu time    0.0040: real time    0.0185
    CHARGE:  cpu time    1.6440: real time    2.3693
    MIXING:  cpu time    0.0320: real time    0.0549
    --------------------------------------------
      LOOP:  cpu time   64.8240: real time   96.6895

 eigenvalue-minimisations  :  1200
 total energy-change (2. order) :-0.3473167E+00  (-0.1907369E+00)
 number of electron      62.9999986 magnetization       8.7060511
 augmentation part        3.1180950 magnetization       6.8851692

 Broyden mixing:
  rms(total) = 0.13247E+01    rms(broyden)= 0.13244E+01
  rms(prec ) = 0.14152E+01
  weight for this iteration     100.00

 eigenvalues of (default mixing * dielectric matrix)
  average eigenvalue GAMMA=   0.2165
  0.6603  0.6603  0.4372  0.4372  0.0700  0.0415  0.0327  0.0150  0.0108  0.0087
  0.0077

 Free energy of the ion-electron system (eV)
  ---------------------------------------------------
  alpha Z        PSCENC =        37.45734350
  Ewald energy   TEWEN  =      7794.22900203
  -Hartree energ DENC   =    -10843.11660586
  -exchange      EXHF   =         0.00000000
  -V(xc)+E(xc)   XCENC  =        13.55083829
  PAW double counting   =      1959.97452383    -1949.68155066
  entropy T*S    EENTRO =         0.00000000
  eigenvalues    EBANDS =      -513.41407206
  atomic energy  EATOM  =      3463.84081127
  Solvation  Ediel_sol  =         0.00000000
  ---------------------------------------------------
  free energy    TOTEN  =       -37.15970966 eV

  energy without entropy =      -37.15970966  energy(sigma->0) =      -37.15970966


--------------------------------------------------------------------------------------------------------




--------------------------------------- Iteration      1(  17)  ---------------------------------------


    POTLOK:  cpu time   39.7320: real time   59.7359
    SETDIJ:  cpu time    0.0320: real time    0.0581
     EDDAV:  cpu time   31.9000: real time   47.3917
 BZINTS: Fermi energy: -4.004205; 63.000000 electrons
         Band energy:-548.240393;  BLOECHL correction: -0.009933
       DOS:  cpu time    0.0040: real time    0.0198
    CHARGE:  cpu time    1.7240: real time    2.4025
    MIXING:  cpu time    0.0320: real time    0.0661
    --------------------------------------------
      LOOP:  cpu time   73.4240: real time  109.6741

 eigenvalue-minimisations  :  1656
 total energy-change (2. order) :-0.3522131E+02  (-0.3511966E+02)
 number of electron      62.9999985 magnetization       8.7011241
 augmentation part        2.9940719 magnetization       8.5245584

 Broyden mixing:
  rms(total) = 0.20707E+01    rms(broyden)= 0.20334E+01
  rms(prec ) = 0.20714E+01
  weight for this iteration     100.00

 eigenvalues of (default mixing * dielectric matrix)
  average eigenvalue GAMMA=   0.1990
  0.6609  0.6609  0.4372  0.4372  0.0698  0.0408  0.0326  0.0150  0.0108  0.0087
  0.0077  0.0068

 Free energy of the ion-electron system (eV)
  ---------------------------------------------------
  alpha Z        PSCENC =        37.45734350
  Ewald energy   TEWEN  =      7794.22900203
  -Hartree energ DENC   =    -10843.58203286
  -exchange      EXHF   =         0.00000000
  -V(xc)+E(xc)   XCENC  =        13.56296955
  PAW double counting   =      1960.63048296    -1950.27920380
  entropy T*S    EENTRO =         0.00000000
  eigenvalues    EBANDS =      -548.24039268
  atomic energy  EATOM  =      3463.84081127
  Solvation  Ediel_sol  =         0.00000000
  ---------------------------------------------------
  free energy    TOTEN  =       -72.38102004 eV

  energy without entropy =      -72.38102004  energy(sigma->0) =      -72.38102004


--------------------------------------------------------------------------------------------------------




--------------------------------------- Iteration      1(  18)  ---------------------------------------


    POTLOK:  cpu time   38.3080: real time   58.6708
    SETDIJ:  cpu time    0.0200: real time    0.0426
     EDDAV:  cpu time   26.8680: real time   39.9466
 BZINTS: Fermi energy: -3.989589; 63.000000 electrons
         Band energy:-516.505041;  BLOECHL correction: -0.010189
       DOS:  cpu time    0.0200: real time    0.0398
    CHARGE:  cpu time    1.5600: real time    2.3832
    MIXING:  cpu time    0.0640: real time    0.0643
    --------------------------------------------
      LOOP:  cpu time   66.8400: real time  101.1474

 eigenvalue-minimisations  :  1368
 total energy-change (2. order) : 0.3225761E+02  (-0.1266453E+03)
 number of electron      62.9999985 magnetization       8.6853283
 augmentation part        3.0150343 magnetization       8.6212611

 Broyden mixing:
  rms(total) = 0.12928E+01    rms(broyden)= 0.12465E+01
  rms(prec ) = 0.13141E+01
  weight for this iteration     100.00

 eigenvalues of (default mixing * dielectric matrix)
  average eigenvalue GAMMA=   0.1850
  0.6625  0.6625  0.4375  0.4375  0.0693  0.0382  0.0314  0.0172  0.0149  0.0108
  0.0087  0.0077  0.0073

 Free energy of the ion-electron system (eV)
  ---------------------------------------------------
  alpha Z        PSCENC =        37.45734350
  Ewald energy   TEWEN  =      7794.22900203
  -Hartree energ DENC   =    -10843.58055338
  -exchange      EXHF   =         0.00000000
  -V(xc)+E(xc)   XCENC  =        14.10085648
  PAW double counting   =      1960.63906629    -1950.30489257
  entropy T*S    EENTRO =         0.00000000
  eigenvalues    EBANDS =      -516.50504081
  atomic energy  EATOM  =      3463.84081127
  Solvation  Ediel_sol  =         0.00000000
  ---------------------------------------------------
  free energy    TOTEN  =       -40.12340720 eV

  energy without entropy =      -40.12340720  energy(sigma->0) =      -40.12340720


--------------------------------------------------------------------------------------------------------




--------------------------------------- Iteration      1(  19)  ---------------------------------------


    POTLOK:  cpu time   40.3000: real time   58.8454
    SETDIJ:  cpu time    0.0560: real time    0.0538
     EDDAV:  cpu time   20.0760: real time   30.8612
 BZINTS: Fermi energy: -3.904626; 63.000000 electrons
         Band energy:-512.893950;  BLOECHL correction: -0.011930
       DOS:  cpu time    0.0040: real time    0.0043
    CHARGE:  cpu time    1.7000: real time    2.4713
    MIXING:  cpu time    0.0280: real time    0.0621
    --------------------------------------------
      LOOP:  cpu time   62.1640: real time   92.2982

 eigenvalue-minimisations  :  1008
 total energy-change (2. order) : 0.3416222E+01  (-0.5034251E+02)
 number of electron      62.9999985 magnetization       8.0225504
 augmentation part        3.1783926 magnetization       6.2489638

 Broyden mixing:
  rms(total) = 0.46031E+00    rms(broyden)= 0.44197E+00
  rms(prec ) = 0.46185E+00
  weight for this iteration     100.00

 eigenvalues of (default mixing * dielectric matrix)
  average eigenvalue GAMMA=   0.2719
  1.0080  1.0080  0.6631  0.4535  0.4535  0.0722  0.0462  0.0330  0.0150  0.0200
  0.0108  0.0087  0.0077  0.0073

 Free energy of the ion-electron system (eV)
  ---------------------------------------------------
  alpha Z        PSCENC =        37.45734350
  Ewald energy   TEWEN  =      7794.22900203
  -Hartree energ DENC   =    -10843.46277745
  -exchange      EXHF   =         0.00000000
  -V(xc)+E(xc)   XCENC  =        13.77889348
  PAW double counting   =      1960.73395653    -1950.39046427
  entropy T*S    EENTRO =         0.00000000
  eigenvalues    EBANDS =      -512.89394981
  atomic energy  EATOM  =      3463.84081127
  Solvation  Ediel_sol  =         0.00000000
  ---------------------------------------------------
  free energy    TOTEN  =       -36.70718474 eV

  energy without entropy =      -36.70718474  energy(sigma->0) =      -36.70718474


--------------------------------------------------------------------------------------------------------




--------------------------------------- Iteration      1(  20)  ---------------------------------------


    POTLOK:  cpu time   38.4680: real time   58.6170
    SETDIJ:  cpu time    0.0200: real time    0.0542
     EDDAV:  cpu time   25.3240: real time   39.3346
 BZINTS: Fermi energy: -3.847687; 63.000000 electrons
         Band energy:-523.080076;  BLOECHL correction: -0.002730
       DOS:  cpu time    0.0080: real time    0.0079
    CHARGE:  cpu time    2.0840: real time    2.5087
    MIXING:  cpu time    0.0680: real time    0.0671
    --------------------------------------------
      LOOP:  cpu time   65.9720: real time  100.5894

 eigenvalue-minimisations  :  1344
 total energy-change (2. order) :-0.1632850E+02  (-0.1591825E+02)
 number of electron      62.9999986 magnetization       8.0214487
 augmentation part        2.4553981 magnetization       5.1115444

 Broyden mixing:
  rms(total) = 0.15310E+01    rms(broyden)= 0.15171E+01
  rms(prec ) = 0.15875E+01
  weight for this iteration     100.00

 eigenvalues of (default mixing * dielectric matrix)
  average eigenvalue GAMMA=   0.2542
  1.0074  1.0074  0.6637  0.4535  0.4535  0.0722  0.0462  0.0330  0.0150  0.0198
  0.0108  0.0087  0.0077  0.0074  0.0065

 Free energy of the ion-electron system (eV)
  ---------------------------------------------------
  alpha Z        PSCENC =        37.45734350
  Ewald energy   TEWEN  =      7794.22900203
  -Hartree energ DENC   =    -10849.66490394
  -exchange      EXHF   =         0.00000000
  -V(xc)+E(xc)   XCENC  =        13.70257686
  PAW double counting   =      1970.19320743    -1959.71364499
  entropy T*S    EENTRO =         0.00000000
  eigenvalues    EBANDS =      -523.08007614
  atomic energy  EATOM  =      3463.84081127
  Solvation  Ediel_sol  =         0.00000000
  ---------------------------------------------------
  free energy    TOTEN  =       -53.03568398 eV

  energy without entropy =      -53.03568398  energy(sigma->0) =      -53.03568398


--------------------------------------------------------------------------------------------------------




--------------------------------------- Iteration      1(  21)  ---------------------------------------


    POTLOK:  cpu time   39.6680: real time   59.7042
    SETDIJ:  cpu time    0.0280: real time    0.0461
     EDDAV:  cpu time   23.8680: real time   34.9129
 BZINTS: Fermi energy: -3.786105; 63.000000 electrons
         Band energy:-507.302304;  BLOECHL correction: -0.010277
       DOS:  cpu time    0.0040: real time    0.0051
    CHARGE:  cpu time    1.6240: real time    2.5198
    MIXING:  cpu time    0.0680: real time    0.0686
    --------------------------------------------
      LOOP:  cpu time   65.2600: real time   97.2567

 eigenvalue-minimisations  :  1176
 total energy-change (2. order) : 0.1621165E+02  (-0.7344301E+02)
 number of electron      62.9999985 magnetization       7.4122534
 augmentation part        2.9830444 magnetization       5.7544149

 Broyden mixing:
  rms(total) = 0.28780E+00    rms(broyden)= 0.23693E+00
  rms(prec ) = 0.24067E+00
  weight for this iteration     100.00
  WARNING: grid for Broyden might be to small

 eigenvalues of (default mixing * dielectric matrix)
  average eigenvalue GAMMA=   0.3402
  1.9458  0.8390  0.8390  0.6826  0.4529  0.4529  0.0722  0.0464  0.0330  0.0203
  0.0150  0.0108  0.0077  0.0087  0.0073  0.0092

 Free energy of the ion-electron system (eV)
  ---------------------------------------------------
  alpha Z        PSCENC =        37.45734350
  Ewald energy   TEWEN  =      7794.22900203
  -Hartree energ DENC   =    -10849.49373397
  -exchange      EXHF   =         0.00000000
  -V(xc)+E(xc)   XCENC  =        13.96130536
  PAW double counting   =      1970.00177048    -1959.51822851
  entropy T*S    EENTRO =         0.00000000
  eigenvalues    EBANDS =      -507.30230385
  atomic energy  EATOM  =      3463.84081127
  Solvation  Ediel_sol  =         0.00000000
  ---------------------------------------------------
  free energy    TOTEN  =       -36.82403370 eV

  energy without entropy =      -36.82403370  energy(sigma->0) =      -36.82403370


--------------------------------------------------------------------------------------------------------




--------------------------------------- Iteration      1(  22)  ---------------------------------------


    POTLOK:  cpu time   38.9080: real time   57.7750
    SETDIJ:  cpu time    0.0280: real time    0.0510
     EDDAV:  cpu time   22.7280: real time   33.7288
 BZINTS: Fermi energy: -3.734639; 63.000000 electrons
         Band energy:-505.125162;  BLOECHL correction: -0.010181
       DOS:  cpu time    0.0160: real time    0.0249
    CHARGE:  cpu time    1.8520: real time    2.4413
    MIXING:  cpu time    0.0280: real time    0.0680
    --------------------------------------------
      LOOP:  cpu time   63.5600: real time   94.0890

 eigenvalue-minimisations  :  1104
 total energy-change (2. order) :-0.3608814E+00  (-0.1626179E-01)
 number of electron      62.9999985 magnetization       6.9636391
 augmentation part        2.9964795 magnetization       5.3230973

 Broyden mixing:
  rms(total) = 0.26910E+00    rms(broyden)= 0.26709E+00
  rms(prec ) = 0.27815E+00
  weight for this iteration     100.00

 eigenvalues of (default mixing * dielectric matrix)
  average eigenvalue GAMMA=   0.3937
  2.2341  0.9323  0.9323  0.7277  0.7277  0.4538  0.4538  0.0722  0.0463  0.0330
  0.0203  0.0150  0.0108  0.0077  0.0087  0.0073  0.0092

 Free energy of the ion-electron system (eV)
  ---------------------------------------------------
  alpha Z        PSCENC =        37.45734350
  Ewald energy   TEWEN  =      7794.22900203
  -Hartree energ DENC   =    -10851.90819704
  -exchange      EXHF   =         0.00000000
  -V(xc)+E(xc)   XCENC  =        13.82483929
  PAW double counting   =      1972.02335340    -1961.52690585
  entropy T*S    EENTRO =         0.00000000
  eigenvalues    EBANDS =      -505.12516166
[...]
     34      -1.3626      0.00000
     35      -1.1670      0.00000
     36      -1.0747      0.00000
     37      -0.0185      0.00000
     38       0.3722      0.00000
     39       0.6616      0.00000
     40       1.5325      0.00000
     41       1.6718      0.00000
     42       1.9748      0.00000
     43       2.4683      0.00000
     44       2.7326      0.00000
     45       3.1705      0.00000
     46       3.4305      0.00000
     47       3.5501      0.00000
     48       3.7366      0.00000

 k-point     5 :      -0.4000    0.2000    0.0000
  band No.  band energies     occupation 
      1     -16.6123      1.00000
      2     -16.4030      1.00000
      3     -15.9488      1.00000
      4     -15.7115      1.00000
      5     -15.4834      1.00000
      6     -15.3398      1.00000
      7     -12.5602      1.00000
      8      -9.6901      1.00000
      9      -8.0731      1.00000
     10      -7.4980      1.00000
     11      -7.4044      1.00000
     12      -6.8893      1.00000
     13      -6.6823      1.00000
     14      -6.3300      1.00000
     15      -6.3214      1.00000
     16      -5.8965      1.00000
     17      -5.7542      1.00000
     18      -5.5944      1.00000
     19      -5.4154      1.00000
     20      -5.2736      1.00000
     21      -5.1606      1.00000
     22      -4.5275      1.00000
     23      -4.2200      1.00000
     24      -4.0783      1.00000
     25      -3.8770      1.00000
     26      -3.8659      1.00000
     27      -3.4368      1.00000
     28      -3.2842      1.00000
     29      -3.2553      1.00000
     30      -3.1576      1.00000
     31      -3.1364      1.00000
     32      -2.2708     -0.02426
     33      -1.6882      0.00000
     34      -1.5665      0.00000
     35      -1.2272      0.00000
     36      -0.9867      0.00000
     37      -0.2000      0.00000
     38       0.0666      0.00000
     39       0.3684      0.00000
     40       1.2888      0.00000
     41       1.6352      0.00000
     42       1.7533      0.00000
     43       2.9730      0.00000
     44       3.0519      0.00000
     45       3.1178      0.00000
     46       3.2955      0.00000
     47       3.5314      0.00000
     48       3.9906      0.00000


--------------------------------------------------------------------------------------------------------


 soft charge-density along one line, spin component           1
         0         1         2         3         4         5         6         7         8         9
 total charge-density along one line

 soft charge-density along one line, spin component           2
         0         1         2         3         4         5         6         7         8         9
 total charge-density along one line

 pseudopotential strength for first ion, spin component:           1
-10.270  -0.091  -0.000   0.009   0.000   0.959   0.032   0.000
 -0.091 -10.358   0.000   0.000   0.009   0.032   0.990  -0.000
 -0.000   0.000 -10.172   0.000   0.000   0.000  -0.000   0.924
  0.009   0.000   0.000 -10.358   0.091  -0.003  -0.000  -0.000
  0.000   0.009   0.000   0.091 -10.270  -0.000  -0.003  -0.000
  0.959   0.032   0.000  -0.003  -0.000   0.683  -0.012  -0.000
  0.032   0.990  -0.000  -0.000  -0.003  -0.012   0.672   0.000
  0.000  -0.000   0.924  -0.000  -0.000  -0.000   0.000   0.696
 -0.003  -0.000  -0.000   0.990  -0.032   0.001   0.000   0.000
 -0.000  -0.003  -0.000  -0.032   0.959   0.000   0.001   0.000
 -0.000  -0.000  -0.001  -0.000   0.000  -0.000  -0.000   0.001
  0.000   0.000   0.000   0.000  -0.000  -0.000  -0.000  -0.000
  0.000   0.009   0.000  -0.000   0.002  -0.000  -0.003  -0.000
 -0.000  -0.000   0.010  -0.000  -0.000  -0.000   0.000  -0.003
  0.002  -0.000   0.000   0.009  -0.000  -0.000  -0.000  -0.000
 -0.001  -0.005  -0.000   0.000  -0.002   0.000   0.001   0.000
  0.000   0.000  -0.005   0.000   0.000  -0.000  -0.000   0.001
 -0.002   0.000  -0.000  -0.005   0.001   0.000  -0.000   0.000
 pseudopotential strength for first ion, spin component:           2
-10.120  -0.075  -0.000  -0.040  -0.000   0.904   0.026   0.000
 -0.075 -10.190   0.000   0.000  -0.040   0.026   0.928  -0.000
 -0.000   0.000 -10.071   0.000   0.000   0.000  -0.000   0.887
 -0.040   0.000   0.000 -10.190   0.075   0.014  -0.000  -0.000
 -0.000  -0.040   0.000   0.075 -10.120   0.000   0.014  -0.000
  0.904   0.026   0.000   0.014   0.000   0.703  -0.010  -0.000
  0.026   0.928  -0.000  -0.000   0.014  -0.010   0.694   0.000
  0.000  -0.000   0.887  -0.000  -0.000  -0.000   0.000   0.710
  0.014  -0.000  -0.000   0.928  -0.026  -0.005   0.000   0.000
  0.000   0.014  -0.000  -0.026   0.904  -0.000  -0.005   0.000
 -0.000  -0.000   0.002  -0.000   0.000  -0.000  -0.000  -0.000
  0.000   0.000  -0.000   0.000  -0.000  -0.000  -0.000   0.000
  0.001   0.010   0.000  -0.000   0.001  -0.000  -0.003  -0.000
 -0.000  -0.000   0.010  -0.000  -0.000  -0.000   0.000  -0.003
  0.001  -0.000   0.000   0.010  -0.001   0.000  -0.000  -0.000
 -0.001  -0.005  -0.000   0.000  -0.002   0.000   0.001   0.000
  0.000   0.000  -0.004   0.000   0.000  -0.000  -0.000   0.001
 -0.002   0.000  -0.000  -0.005   0.001   0.000  -0.000   0.000
 total augmentation occupancy for first ion, spin component:           1
  1.682  -0.262   0.000  -0.039  -0.000   0.108   0.153   0.000   0.036   0.000  -0.000  -0.000   0.010   0.000   0.017  -0.000
 -0.262   1.445  -0.000  -0.000  -0.039   0.153   0.252   0.000   0.000   0.036  -0.000  -0.000   0.026   0.000   0.007  -0.001
  0.000  -0.000   1.918  -0.000  -0.000   0.000   0.000  -0.030   0.000  -0.000  -0.005  -0.003  -0.000   0.013   0.000   0.000
 -0.039  -0.000  -0.000   1.445   0.262   0.036  -0.000   0.000   0.252  -0.153   0.000  -0.000  -0.007   0.000   0.026   0.000
 -0.000  -0.039  -0.000   0.262   1.682  -0.000   0.036  -0.000  -0.153   0.108   0.000   0.000   0.017  -0.000  -0.010  -0.001
  0.108   0.153   0.000   0.036  -0.000   0.106   0.054   0.000   0.007  -0.000   0.000  -0.000  -0.002   0.000   0.023  -0.000
  0.153   0.252   0.000  -0.000   0.036   0.054   0.161   0.000  -0.000   0.007   0.000   0.000   0.017   0.000  -0.006  -0.002
  0.000   0.000  -0.030   0.000  -0.000   0.000   0.000   0.087   0.000  -0.000   0.017  -0.009  -0.000   0.008   0.000   0.000
  0.036   0.000   0.000   0.252  -0.153   0.007  -0.000   0.000   0.161  -0.054   0.000   0.000   0.006  -0.000   0.017  -0.000
  0.000   0.036  -0.000  -0.153   0.108  -0.000   0.007  -0.000  -0.054   0.106  -0.000   0.000   0.023  -0.000   0.002  -0.003
 -0.000  -0.000  -0.005  -0.000   0.000   0.000   0.000   0.017   0.000  -0.000   1.097  -0.324  -0.000   0.034   0.000   0.000
 -0.000  -0.000  -0.003  -0.000   0.000  -0.000   0.000  -0.009   0.000   0.000  -0.324   0.170   0.000  -0.015   0.000  -0.000
  0.010   0.026  -0.000  -0.007   0.017  -0.002   0.017  -0.000   0.006   0.023   0.000   0.000   0.216  -0.000  -0.000  -0.016
  0.000   0.000   0.013   0.000  -0.000   0.000   0.000   0.008  -0.000  -0.000   0.034  -0.015  -0.000   0.219  -0.000   0.000
  0.017   0.007   0.000   0.026  -0.010   0.023  -0.006   0.000   0.017   0.002   0.000   0.000  -0.000  -0.000   0.216  -0.000
 -0.000  -0.001   0.000   0.000  -0.001  -0.000  -0.002   0.000  -0.000  -0.003   0.000  -0.000  -0.016   0.000  -0.000   0.002
  0.000  -0.000   0.001   0.000  -0.000  -0.000   0.000  -0.001   0.000   0.000  -0.003   0.003   0.000  -0.017   0.000  -0.000
 -0.001  -0.000  -0.000  -0.001   0.000  -0.003   0.000  -0.000  -0.002   0.000   0.000  -0.000   0.000   0.000  -0.016  -0.000
 total augmentation occupancy for first ion, spin component:           2
  0.037   0.011   0.000  -0.036  -0.000  -0.021  -0.001  -0.000   0.017  -0.004  -0.000  -0.000   0.004  -0.000  -0.003   0.000
  0.011   0.049   0.000  -0.000  -0.036  -0.002  -0.023  -0.000  -0.004   0.013   0.000   0.000   0.002   0.000   0.002   0.000
  0.000   0.000   0.001  -0.000  -0.000  -0.000  -0.000  -0.008   0.000   0.000  -0.000  -0.001   0.000  -0.001  -0.000   0.000
 -0.036  -0.000  -0.000   0.049  -0.011   0.013   0.004   0.000  -0.023   0.002  -0.000  -0.000  -0.002  -0.000   0.002  -0.000
 -0.000  -0.036  -0.000  -0.011   0.037   0.004   0.017   0.000   0.001  -0.021   0.000   0.000  -0.003   0.000  -0.004  -0.000
 -0.021  -0.002  -0.000   0.013   0.004   0.002  -0.002   0.000  -0.004  -0.000  -0.000   0.000  -0.002   0.000   0.001   0.000
 -0.001  -0.023  -0.000   0.004   0.017  -0.002   0.000   0.000  -0.000  -0.004   0.000  -0.000  -0.002   0.000  -0.001   0.000
 -0.000  -0.000  -0.008   0.000   0.000   0.000   0.000   0.001  -0.000  -0.000  -0.000   0.000  -0.000   0.000  -0.000   0.000
  0.017  -0.004   0.000  -0.023   0.001  -0.004  -0.000  -0.000   0.000   0.002   0.000   0.000   0.001   0.000  -0.002   0.000
 -0.004   0.013   0.000   0.002  -0.021  -0.000  -0.004  -0.000   0.002   0.002   0.000  -0.000   0.001  -0.000   0.002   0.000
 -0.000   0.000  -0.000  -0.000   0.000  -0.000   0.000  -0.000   0.000   0.000   0.003   0.006  -0.000  -0.000  -0.000   0.000
 -0.000   0.000  -0.001  -0.000   0.000   0.000   0.000   0.000   0.000  -0.000   0.006  -0.004  -0.000   0.000   0.000   0.000
  0.004   0.002   0.000  -0.002  -0.003  -0.002  -0.002  -0.000   0.001   0.001   0.000  -0.000   0.001  -0.000  -0.000   0.000
 -0.000   0.000  -0.001  -0.000   0.000   0.000  -0.000   0.000   0.000  -0.000  -0.000   0.000  -0.000   0.002  -0.000  -0.000
 -0.003   0.002  -0.000   0.002  -0.004   0.001  -0.001  -0.000  -0.002   0.002  -0.000   0.000  -0.000  -0.000   0.001   0.000
  0.000   0.000   0.000  -0.000  -0.000   0.000   0.000   0.000   0.000   0.000   0.000   0.000   0.000  -0.000   0.000  -0.000
 -0.000   0.000  -0.000   0.000   0.000   0.000   0.000   0.000  -0.000  -0.000   0.000  -0.000  -0.000   0.000   0.000   0.000
 -0.000   0.000   0.000   0.000  -0.000   0.000  -0.000   0.000   0.000  -0.000   0.000   0.000  -0.000  -0.000   0.000   0.000


------------------------ aborting loop because EDIFF is reached ----------------------------------------





 total charge     

# of ion       s       p       d       tot
------------------------------------------
    1        0.394   0.493   7.403   8.289
    2        0.393   0.493   7.403   8.289
    3        0.756   0.849   0.000   1.604
    4        1.106   1.322   0.000   2.427
    5        1.503   2.240   0.058   3.801
    6        1.493   2.225   0.058   3.776
    7        1.500   2.229   0.058   3.787
    8        1.483   2.301   0.049   3.832
    9        1.476   2.329   0.050   3.854
   10        1.480   2.307   0.049   3.836
--------------------------------------------------
tot         11.582  16.787  15.127  43.496



 magnetization (x)

# of ion       s       p       d       tot
------------------------------------------
    1        0.000   0.003   0.194   0.197
    2        0.000   0.003   0.194   0.196
    3        0.001   0.005   0.000   0.006
    4        0.031   0.003   0.000   0.034
    5        0.004   0.073   0.000   0.077
    6        0.002   0.047   0.000   0.050
    7        0.004   0.068   0.000   0.072
    8        0.003   0.006   0.001   0.010
    9        0.002   0.005   0.001   0.008
   10        0.002   0.006   0.001   0.009
--------------------------------------------------
tot          0.051   0.218   0.391   0.659

    CHARGE:  cpu time    1.8480: real time    2.4358
    FORLOC:  cpu time    0.0360: real time    0.0563
    FORNL :  cpu time    4.7160: real time    7.2539
    STRESS:  cpu time   14.1520: real time   21.7263
    FORCOR:  cpu time   40.1000: real time   60.4656
    FORHAR:  cpu time    0.1600: real time    0.2981
    MIXING:  cpu time    0.0240: real time    0.0532
    OFIELD:  cpu time    0.0000: real time    0.0000

  FORCE on cell =-STRESS in cart. coord.  units (eV):
  Direction    XX          YY          ZZ          XY          YZ          ZX
  --------------------------------------------------------------------------------------
  Alpha Z    51.93061    51.93061    51.93061
  Ewald   11165.32528 11165.32279-13254.39140    -0.00224    -0.00059    -0.00107
  Hartree 11752.52968 11752.53067-11322.89234    -0.00037     0.00008     0.00012
  E(xc)    -259.08257  -259.08257  -258.91926     0.00002     0.00001     0.00001
  Local  -23689.72981-23689.72956 23768.44020     0.00216     0.00032     0.00059
  n-local   279.03560   279.60710   286.21087     0.11009     0.33234     0.36209
  augment    53.60456    53.60471    50.00362     0.00002     0.00003     0.00006
  Kinetic   650.61471   642.13823   679.79800    -4.88814     0.73001     0.29359
  Fock        0.00000     0.00000     0.00000     0.00000     0.00000     0.00000
  -------------------------------------------------------------------------------------
  Total       0.27502     0.27502     0.18029     0.00000    -0.00000     0.00000
  in kB       0.63053     0.63053     0.41335     0.00000    -0.00000     0.00000
  external pressure =        0.56 kB  Pullay stress =        0.00 kB


 VOLUME and BASIS-vectors are now :
 -----------------------------------------------------------------------------
  energy-cutoff  :      520.00
  volume of cell :      698.82
      direct lattice vectors                 reciprocal lattice vectors
     6.184236497 -0.000000088 -0.000000000     0.161701447 -0.093358371 -0.000000000
     3.092117987  5.355705618 -0.000000000     0.000000003  0.186716758  0.000000000
     0.000000000 -0.000000000 21.098936611     0.000000000  0.000000000  0.047395754

  length of vectors
     6.184236497  6.184236114 21.098936611     0.186716747  0.186716758  0.047395754


 FORCES acting on ions
    electron-ion (+dipol)            ewald-force                    non-local-force                 convergence-correction
 -----------------------------------------------------------------------------------------------
   -.892E-04 -.569E-04 0.478E+02   0.730E-03 0.437E-03 -.485E+02   0.694E-17 0.272E-16 0.640E+00   -.237E-06 0.691E-06 -.185E-02
   0.817E-04 0.650E-04 0.492E+02   -.764E-03 -.456E-03 -.500E+02   0.139E-16 -.559E-18 0.666E+00   -.944E-06 0.477E-06 0.781E-03
   -.319E-04 -.278E-04 0.195E+03   -.147E-03 -.816E-04 -.192E+03   -.139E-16 0.210E-17 -.250E+01   0.597E-07 0.215E-07 0.153E-01
   0.527E-04 0.192E-04 -.366E+03   0.237E-03 0.133E-03 0.368E+03   0.277E-16 0.293E-16 -.189E+01   0.148E-06 0.103E-06 -.265E-01
   -.238E+02 -.742E-02 -.495E+03   0.221E+02 0.563E-02 0.497E+03   0.174E+01 0.326E-02 -.234E+01   -.788E-02 -.201E-04 -.429E-01
   0.119E+02 0.206E+02 -.495E+03   -.110E+02 -.191E+02 0.497E+03   -.867E+00 -.151E+01 -.234E+01   0.392E-02 0.683E-02 -.429E-01
   0.119E+02 -.206E+02 -.495E+03   -.110E+02 0.191E+02 0.497E+03   -.872E+00 0.150E+01 -.234E+01   0.396E-02 -.681E-02 -.429E-01
   0.305E+02 0.300E-01 0.520E+03   -.290E+02 -.282E-01 -.523E+03   -.152E+01 -.569E-02 0.263E+01   0.901E-02 0.178E-03 0.484E-01
   -.152E+02 -.264E+02 0.520E+03   0.145E+02 0.251E+02 -.523E+03   0.755E+00 0.132E+01 0.263E+01   -.435E-02 -.789E-02 0.484E-01
   -.153E+02 0.264E+02 0.520E+03   0.145E+02 -.251E+02 -.523E+03   0.765E+00 -.131E+01 0.263E+01   -.466E-02 0.771E-02 0.484E-01
 -----------------------------------------------------------------------------------------------
   0.149E-03 -.406E-04 0.218E+01   -.213E-13 0.142E-13 0.114E-12   0.444E-15 0.222E-15 -.219E+01   -.110E-05 0.122E-05 0.407E-02


 POSITION                                       TOTAL-FORCE (eV/Angst)
 -----------------------------------------------------------------------------------
      3.09212      1.78523     10.48976         0.000000      0.000000     -0.062977
      6.18424      3.57047     10.48753         0.000000      0.000000     -0.055166
      0.00000     -0.00000      9.67871         0.000000      0.000000     -0.037415
      0.00000     -0.00000     11.93065         0.000000      0.000000      0.088858
      3.71842     -0.00079     11.92565         0.056242      0.002052      0.047212
      1.23223      2.13586     11.92565        -0.026344     -0.049733      0.047212
      4.32571      3.22064     11.92565        -0.029899      0.047681      0.047212
      2.22592      0.00099      9.04370        -0.019668     -0.004373     -0.024979
      1.98001      3.42750      9.04370         0.006047      0.019220     -0.024979
      5.07041      1.92721      9.04370         0.013621     -0.014847     -0.024979
 -----------------------------------------------------------------------------------
    total drift:                                0.000148     -0.000039     -0.011787


--------------------------------------------------------------------------------------------------------



  FREE ENERGIE OF THE ION-ELECTRON SYSTEM (eV)
  ---------------------------------------------------
  free  energy   TOTEN  =       -42.88703709 eV

  energy  without entropy=      -42.88703709  energy(sigma->0) =      -42.88703709

 d Force = 0.2162514E-03[-0.134E-04, 0.446E-03]  d Energy =-0.6225565E-03 0.839E-03
 d Force =-0.2575726E+00[-0.256E+00,-0.259E+00]  d Ewald  = 0.5080775E+00-0.766E+00


--------------------------------------------------------------------------------------------------------


    POTLOK:  cpu time   39.6480: real time   60.4542


--------------------------------------------------------------------------------------------------------




--------------------------------------------------------------------------------------------------------


  
 reached required accuracy - stopping structural energy minimisation
     LOOP+:  cpu time  481.9160: real time  721.9033
    4ORBIT:  cpu time    0.0000: real time    0.0000



 total charge     

# of ion       s       p       d       tot
------------------------------------------
    1        0.394   0.493   7.403   8.289
    2        0.393   0.493   7.403   8.289
    3        0.756   0.849   0.000   1.604
    4        1.106   1.322   0.000   2.427
    5        1.503   2.240   0.058   3.801
    6        1.493   2.225   0.058   3.776
    7        1.500   2.229   0.058   3.787
    8        1.483   2.301   0.049   3.832
    9        1.476   2.329   0.050   3.854
   10        1.480   2.307   0.049   3.836
--------------------------------------------------
tot         11.582  16.787  15.127  43.496



 magnetization (x)

# of ion       s       p       d       tot
------------------------------------------
    1        0.000   0.003   0.194   0.197
    2        0.000   0.003   0.194   0.196
    3        0.001   0.005   0.000   0.006
    4        0.031   0.003   0.000   0.034
    5        0.004   0.073   0.000   0.077
    6        0.002   0.047   0.000   0.050
    7        0.004   0.068   0.000   0.072
    8        0.003   0.006   0.001   0.010
    9        0.002   0.005   0.001   0.008
   10        0.002   0.006   0.001   0.009
--------------------------------------------------
tot          0.051   0.218   0.391   0.659

 BZINTS: Fermi energy: -2.344313; 63.000000 electrons
         Band energy:-478.632133;  BLOECHL correction: -0.008820

 total amount of memory used by VASP MPI-rank0   118235. kBytes
=======================================================================

   base      :      30000. kBytes
   nonlr-proj:      10125. kBytes
   fftplans  :       8558. kBytes
   grid      :      60832. kBytes
   one-center:        311. kBytes
   wavefun   :       8409. kBytes

  
  
 General timing and accounting informations for this job:
 ========================================================
  
                  Total CPU time used (sec):    20592.385
                            User time (sec):    18706.056
                          System time (sec):     1886.328
                         Elapsed time (sec):    30986.639
  
                   Maximum memory used (kb):      338652.
                   Average memory used (kb):           0.
  
                          Minor page faults:     16577205
                          Major page faults:            7
                 Voluntary context switches:         1363
