 vasp.5.4.4.18Apr17-6-g9f103f2a35 (build May  1 2020 15:48:39) complex           
 executed on             LinuxGNU date 2020.07.04  05:10:56
 running on   16 total cores
 distrk:  each k-point on   16 cores,    1 groups
 distr:  one band on NCORES_PER_BAND=   1 cores,   16 groups


--------------------------------------------------------------------------------------------------------


 INCAR:
 POTCAR:   PAW_PBE Fe 06Sep2000                   
 POTCAR:   PAW_PBE Ge 05Jan2001                   
 POTCAR:    PAW_PBE P 17Jan2003                   
 POTCAR:   PAW_PBE Te 08Apr2002                   

 ----------------------------------------------------------------------------- 
|                                                                             |
|           W    W    AA    RRRRR   N    N  II  N    N   GGGG   !!!           |
|           W    W   A  A   R    R  NN   N  II  NN   N  G    G  !!!           |
|           W    W  A    A  R    R  N N  N  II  N N  N  G       !!!           |
|           W WW W  AAAAAA  RRRRR   N  N N  II  N  N N  G  GGG   !            |
|           WW  WW  A    A  R   R   N   NN  II  N   NN  G    G                |
|           W    W  A    A  R    R  N    N  II  N    N   GGGG   !!!           |
|                                                                             |
|      For optimal performance we recommend to set                            |
|        NCORE= 4 - approx SQRT( number of cores)                             |
|      NCORE specifies how many cores store one orbital (NPAR=cpu/NCORE).     |
|      This setting can  greatly improve the performance of VASP for DFT.     |
|      The default,   NCORE=1            might be grossly inefficient         |
|      on modern multi-core architectures or massively parallel machines.     |
|      Do your own testing !!!!                                               |
|      Unfortunately you need to use the default for GW and RPA calculations. |
|      (for HF NCORE is supported but not extensively tested yet)             |
|                                                                             |
 ----------------------------------------------------------------------------- 


 ----------------------------------------------------------------------------- 
|                                                                             |
|  ADVICE TO THIS USER RUNNING 'VASP/VAMP'   (HEAR YOUR MASTER'S VOICE ...):  |
|                                                                             |
|      You have switched on vdW-DFT.                                          |
|      This routine was written and supplied by Jiri Klimes.                  |
|      We recommed that you carefully read and cite the following             |
|      publication                                                            |
|      J. Klimes, D.R. Bowler, A. Michelides                                  |
|        J. Phys.: Cond Matt. 22 022201 (2010)                                |
|      J. Klimes, D.R. Bowler, A. Michelides                                  |
|        Phys. Rev. B. 83, 195131 (2011)                                      |
|      and references therein.                                                |
|                                                                             |
 ----------------------------------------------------------------------------- 

 POTCAR:   PAW_PBE Fe 06Sep2000                   
   VRHFIN =Fe:  d7 s1                                                           
   LEXCH  = PE                                                                  
   EATOM  =   594.4687 eV,   43.6922 Ry                                         
                                                                                
   TITEL  = PAW_PBE Fe 06Sep2000                                                
   LULTRA =        F    use ultrasoft PP ?                                      
   IUNSCR =        1    unscreen: 0-lin 1-nonlin 2-no                           
   RPACOR =    2.000    partial core radius                                     
   POMASS =   55.847; ZVAL   =    8.000    mass and valenz                      
   RCORE  =    2.300    outmost cutoff radius                                   
   RWIGS  =    2.460; RWIGS  =    1.302    wigner-seitz radius (au A)           
   ENMAX  =  267.883; ENMIN  =  200.912 eV                                      
   RCLOC  =    1.701    cutoff for local pot                                    
   LCOR   =        T    correct aug charges                                     
   LPAW   =        T    paw PP                                                  
   EAUG   =  511.368                                                            
   DEXC   =    -.022                                                            
   RMAX   =    2.817    core radius for proj-oper                               
   RAUG   =    1.300    factor for augmentation sphere                          
   RDEP   =    2.442    radius for radial grids                                 
   QCUT   =   -4.437; QGAM   =    8.874    optimization parameters              
                                                                                
   Description                                                                  
     l     E      TYP  RCUT    TYP  RCUT                                        
     2   .000     23  2.300                                                     
     2   .000     23  2.300                                                     
     0   .000     23  2.300                                                     
     0   .000     23  2.300                                                     
     1  -.200     23  2.300                                                     
     1   .000     23  2.300                                                     
     3   .000      7   .000                                                     
  local pseudopotential read in
  partial core-charges read in
  atomic valenz-charges read in
  non local Contribution for L=           2  read in
    real space projection operators read in
  non local Contribution for L=           2  read in
    real space projection operators read in
  non local Contribution for L=           0  read in
    real space projection operators read in
  non local Contribution for L=           0  read in
    real space projection operators read in
  non local Contribution for L=           1  read in
    real space projection operators read in
  non local Contribution for L=           1  read in
    real space projection operators read in
    PAW grid and wavefunctions read in

   number of l-projection  operators is LMAX  =           6
   number of lm-projection operators is LMMAX =          18

 POTCAR:   PAW_PBE Ge 05Jan2001                   
   VRHFIN =Ge: s2p2                                                             
   LEXCH  = PE                                                                  
   EATOM  =   104.9960 eV,    7.7170 Ry                                         
                                                                                
   TITEL  = PAW_PBE Ge 05Jan2001                                                
   LULTRA =        F    use ultrasoft PP ?                                      
   IUNSCR =        1    unscreen: 0-lin 1-nonlin 2-no                           
   RPACOR =    2.170    partial core radius                                     
   POMASS =   72.610; ZVAL   =    4.000    mass and valenz                      
   RCORE  =    2.300    outmost cutoff radius                                   
   RWIGS  =    2.300; RWIGS  =    1.217    wigner-seitz radius (au A)           
   ENMAX  =  173.807; ENMIN  =  130.355 eV                                      
   ICORE  =        3    local potential                                         
   LCOR   =        T    correct aug charges                                     
   LPAW   =        T    paw PP                                                  
   EAUG   =  385.843                                                            
   DEXC   =    -.138                                                            
   RMAX   =    3.497    core radius for proj-oper                               
   RAUG   =    1.300    factor for augmentation sphere                          
   RDEP   =    2.318    radius for radial grids                                 
   QCUT   =   -3.574; QGAM   =    7.148    optimization parameters              
                                                                                
   Description                                                                  
     l     E      TYP  RCUT    TYP  RCUT                                        
     0   .000     23  2.300                                                     
     0   .000     23  2.300                                                     
     1   .000     23  2.300                                                     
     1   .000     23  2.300                                                     
     2   .000     23  2.300                                                     
     3  -.100      7  2.300                                                     
  local pseudopotential read in
  partial core-charges read in
  atomic valenz-charges read in
  non local Contribution for L=           0  read in
    real space projection operators read in
  non local Contribution for L=           0  read in
    real space projection operators read in
  non local Contribution for L=           1  read in
    real space projection operators read in
  non local Contribution for L=           1  read in
    real space projection operators read in
  non local Contribution for L=           2  read in
    real space projection operators read in
    PAW grid and wavefunctions read in

   number of l-projection  operators is LMAX  =           5
   number of lm-projection operators is LMMAX =          13

 POTCAR:    PAW_PBE P 17Jan2003                   
   VRHFIN =P : s2p3                                                             
   LEXCH  = PE                                                                  
   EATOM  =   176.0430 eV,   12.9388 Ry                                         
                                                                                
   TITEL  = PAW_PBE P 17Jan2003                                                 
   LULTRA =        F    use ultrasoft PP ?                                      
   IUNSCR =        1    unscreen: 0-lin 1-nonlin 2-no                           
   RPACOR =    1.500    partial core radius                                     
   POMASS =   30.974; ZVAL   =    5.000    mass and valenz                      
   RCORE  =    1.900    outmost cutoff radius                                   
   RWIGS  =    2.330; RWIGS  =    1.233    wigner-seitz radius (au A)           
   ENMAX  =  270.000; ENMIN  =  191.280 eV                                      
   ICORE  =        2    local potential                                         
   LCOR   =        T    correct aug charges                                     
   LPAW   =        T    paw PP                                                  
   EAUG   =  342.924                                                            
   DEXC   =    -.002                                                            
   RMAX   =    2.887    core radius for proj-oper                               
   RAUG   =    1.300    factor for augmentation sphere                          
   RDEP   =    1.931    radius for radial grids                                 
   QCUT   =   -4.330; QGAM   =    8.659    optimization parameters              
                                                                                
   Description                                                                  
     l     E      TYP  RCUT    TYP  RCUT                                        
     0   .000     23  1.900                                                     
     0   .000     23  1.900                                                     
     1   .000     23  1.900                                                     
     1   .000     23  1.900                                                     
     2   .000     23  1.900                                                     
  local pseudopotential read in
  partial core-charges read in
  atomic valenz-charges read in
  non local Contribution for L=           0  read in
    real space projection operators read in
  non local Contribution for L=           0  read in
    real space projection operators read in
  non local Contribution for L=           1  read in
    real space projection operators read in
  non local Contribution for L=           1  read in
    real space projection operators read in
    PAW grid and wavefunctions read in

   number of l-projection  operators is LMAX  =           4
   number of lm-projection operators is LMMAX =           8

 POTCAR:   PAW_PBE Te 08Apr2002                   
   VRHFIN =Te: s2p4                                                             
   LEXCH  = PE                                                                  
   EATOM  =   223.2721 eV,   16.4100 Ry                                         
                                                                                
   TITEL  = PAW_PBE Te 08Apr2002                                                
   LULTRA =        F    use ultrasoft PP ?                                      
   IUNSCR =        1    unscreen: 0-lin 1-nonlin 2-no                           
   RPACOR =    2.200    partial core radius                                     
   POMASS =  127.600; ZVAL   =    6.000    mass and valenz                      
   RCORE  =    2.300    outmost cutoff radius                                   
   RWIGS  =    2.900; RWIGS  =    1.535    wigner-seitz radius (au A)           
   ENMAX  =  174.982; ENMIN  =  131.236 eV                                      
   ICORE  =        3    local potential                                         
   LCOR   =        T    correct aug charges                                     
   LPAW   =        T    paw PP                                                  
   EAUG   =  368.792                                                            
   DEXC   =    -.169                                                            
   RMAX   =    3.486    core radius for proj-oper                               
   RAUG   =    1.300    factor for augmentation sphere                          
   RDEP   =    2.397    radius for radial grids                                 
   QCUT   =   -3.586; QGAM   =    7.172    optimization parameters              
                                                                                
   Description                                                                  
     l     E      TYP  RCUT    TYP  RCUT                                        
     0   .000     23  2.300                                                     
     0   .000     23  2.300                                                     
     1   .000     23  2.300                                                     
     1   .000     23  2.300                                                     
     2   .000     23  2.300                                                     
     3  -.100     23  2.300                                                     
  local pseudopotential read in
  partial core-charges read in
  atomic valenz-charges read in
  non local Contribution for L=           0  read in
    real space projection operators read in
  non local Contribution for L=           0  read in
    real space projection operators read in
  non local Contribution for L=           1  read in
    real space projection operators read in
  non local Contribution for L=           1  read in
    real space projection operators read in
  non local Contribution for L=           2  read in
    real space projection operators read in
    PAW grid and wavefunctions read in

   number of l-projection  operators is LMAX  =           5
   number of lm-projection operators is LMMAX =          13

 Optimization of the real space projectors (new method)

 maximal supplied QI-value         = 16.25
 optimisation between [QCUT,QGAM] = [ 11.54, 23.24] = [ 37.28,151.24] Ry 
 Optimized for a Real-space Cutoff    1.53 Angstroem

   l    n(q)    QCUT    max X(q) W(low)/X(q) W(high)/X(q)  e(spline) 
   2     10    11.539     4.378    0.86E-05    0.15E-04    0.46E-07
   2     10    11.539    23.237    0.11E-03    0.14E-03    0.22E-06
   0     11    11.539    17.641    0.19E-04    0.14E-05    0.18E-07
   0     11    11.539    50.908    0.43E-04    0.16E-04    0.30E-06
   1     10    11.539     6.148    0.11E-04    0.38E-05    0.26E-07
   1     10    11.539     8.345    0.44E-04    0.25E-04    0.11E-06
 Optimization of the real space projectors (new method)

 maximal supplied QI-value         = 16.25
 optimisation between [QCUT,QGAM] = [ 11.54, 23.24] = [ 37.28,151.24] Ry 
 Optimized for a Real-space Cutoff    1.28 Angstroem

   l    n(q)    QCUT    max X(q) W(low)/X(q) W(high)/X(q)  e(spline) 
   0      9    11.539     8.651    0.22E-04    0.16E-04    0.10E-07
   0      9    11.539    33.192    0.11E-03    0.16E-03    0.65E-07
   1      8    11.539     5.899    0.37E-04    0.28E-04    0.43E-07
   1      8    11.539    27.289    0.22E-03    0.28E-04    0.14E-06
   2      8    11.539     4.673    0.11E-03    0.18E-03    0.58E-07
 Optimization of the real space projectors (new method)

 maximal supplied QI-value         = 19.84
 optimisation between [QCUT,QGAM] = [ 11.51, 23.22] = [ 37.09,150.92] Ry 
 Optimized for a Real-space Cutoff    1.21 Angstroem

   l    n(q)    QCUT    max X(q) W(low)/X(q) W(high)/X(q)  e(spline) 
   0      8    11.508     6.651    0.19E-04    0.31E-05    0.49E-08
   0      8    11.508    90.285    0.95E-04    0.17E-03    0.51E-07
   1      8    11.508     4.328    0.14E-04    0.32E-04    0.22E-07
   1      8    11.508    54.583    0.16E-03    0.71E-04    0.89E-07
 Optimization of the real space projectors (new method)

 maximal supplied QI-value         = 16.25
 optimisation between [QCUT,QGAM] = [ 11.54, 23.24] = [ 37.28,151.24] Ry 
 Optimized for a Real-space Cutoff    1.36 Angstroem

   l    n(q)    QCUT    max X(q) W(low)/X(q) W(high)/X(q)  e(spline) 
   0      9    11.539     7.090    0.13E-04    0.25E-05    0.51E-08
   0      9    11.539   101.654    0.53E-04    0.69E-04    0.12E-06
   1      9    11.539     5.276    0.20E-04    0.98E-05    0.24E-07
   1      9    11.539    81.891    0.24E-03    0.13E-04    0.15E-06
   2      9    11.539     5.599    0.30E-04    0.97E-04    0.54E-07

 ----------------------------------------------------------------------------- 
|                                                                             |
|  ADVICE TO THIS USER RUNNING 'VASP/VAMP'   (HEAR YOUR MASTER'S VOICE ...):  |
|                                                                             |
|      You enforced a specific xc-type in the INCAR file,                     |
|      a different type was found on the POTCAR file                          |
|          I HOPE YOU KNOW, WHAT YOU ARE  DOING                               |
|                                                                             |
 ----------------------------------------------------------------------------- 

 PAW_PBE Fe 06Sep2000                   :
 energy of atom  1       EATOM= -594.4687
 kinetic energy error for atom=    0.0026 (will be added to EATOM!!)
 PAW_PBE Ge 05Jan2001                   :
 energy of atom  2       EATOM= -104.9960
 kinetic energy error for atom=    0.0002 (will be added to EATOM!!)
  PAW_PBE P 17Jan2003                   :
 energy of atom  3       EATOM= -176.0430
 kinetic energy error for atom=    0.0011 (will be added to EATOM!!)
 PAW_PBE Te 08Apr2002                   :
 energy of atom  4       EATOM= -223.2721
 kinetic energy error for atom=    0.0007 (will be added to EATOM!!)


 POSCAR: Fe2 Ge P Te6                            
  positions in direct lattice
  velocities in cartesian coordinates
  No initial velocities read in
 exchange correlation table for  LEXCH =       42
   RHO(1)=    0.500       N(1)  =     2000
   RHO(2)=  100.500       N(2)  =     4000



--------------------------------------------------------------------------------------------------------


 ion  position               nearest neighbor table
   1  0.333  0.333  0.500-   6 2.78   5 2.78   7 2.78   8 2.78  10 2.78   9 2.78
   2  0.667  0.667  0.500-   9 2.78   8 2.78  10 2.78   5 2.78   7 2.78   6 2.78
   3  0.000  0.000  0.448-   4 2.43   8 2.63  10 2.63   9 2.63
   4  0.000  0.000  0.552-   3 2.43   5 2.63   7 2.63   6 2.63
   5  0.626  0.000  0.574-   4 2.63   1 2.78   2 2.78
   6  0.000  0.373  0.574-   4 2.63   1 2.78   2 2.78
   7  0.373  0.626  0.574-   4 2.63   1 2.78   2 2.78
   8  0.374  1.000  0.426-   3 2.63   2 2.78   1 2.78
   9  1.000  0.627  0.426-   3 2.63   2 2.78   1 2.78
  10  0.627  0.374  0.426-   3 2.63   2 2.78   1 2.78

  LATTYP: Found a hexagonal cell.
 ALAT       =     6.9077769333
 C/A-ratio  =     3.3939410937
  
  Lattice vectors:
  
 A1 = (   3.4538890000,  -5.9823100000,   0.0000000000)
 A2 = (  -6.9077770000,   0.0000000000,   0.0000000000)
 A3 = (   0.0000000000,   0.0000000000, -23.4445880000)


Analysis of symmetry for initial positions (statically):
=====================================================================
 Subroutine PRICEL returns:
 Original cell was already a primitive cell.
 

 Routine SETGRP: Setting up the symmetry group for a 
 hexagonal supercell.


 Subroutine GETGRP returns: Found  3 space group operations
 (whereof  3 operations were pure point group operations)
 out of a pool of 24 trial point group operations.


The static configuration has the point symmetry C_3 .


Analysis of symmetry for dynamics (positions and initial velocities):
=====================================================================
 Subroutine PRICEL returns:
 Original cell was already a primitive cell.
 

 Routine SETGRP: Setting up the symmetry group for a 
 hexagonal supercell.


 Subroutine GETGRP returns: Found  3 space group operations
 (whereof  3 operations were pure point group operations)
 out of a pool of 24 trial point group operations.


The dynamic configuration has the point symmetry C_3 .


Analysis of constrained symmetry for selective dynamics:
=====================================================================
 Subroutine PRICEL returns:
 Original cell was already a primitive cell.
 

 Routine SETGRP: Setting up the symmetry group for a 
 hexagonal supercell.


 Subroutine GETGRP returns: Found  3 space group operations
 (whereof  3 operations were pure point group operations)
 out of a pool of 24 trial point group operations.


The constrained configuration has the point symmetry C_3 .


Analysis of structural, dynamic, and magnetic symmetry:
=====================================================================
 Subroutine PRICEL returns:
 Original cell was already a primitive cell.
 

 Routine SETGRP: Setting up the symmetry group for a 
 hexagonal supercell.


 Subroutine GETGRP returns: Found  3 space group operations
 (whereof  3 operations were pure point group operations)
 out of a pool of 24 trial point group operations.


The magnetic configuration has the point symmetry C_3 .


 Subroutine INISYM returns: Found  3 space group operations
 (whereof  3 operations are pure point group operations),
 and found     1 'primitive' translations



 KPOINTS: Kpoints from vasprun.xml                

Automatic generation of k-mesh.
Space group operators:
 irot       det(A)        alpha          n_x          n_y          n_z        tau_x        tau_y        tau_z
    1     1.000000     0.000000     1.000000     0.000000     0.000000     0.000000     0.000000     0.000000
    2     1.000000   120.000000     0.000000     0.000000     1.000000     0.000000     0.000000     0.000000
    3     1.000000   120.000000     0.000000     0.000000    -1.000000     0.000000     0.000000     0.000000
 
 Subroutine IBZKPT returns following result:
 ===========================================
 
 Found      5 irreducible k-points:
 
 Following reciprocal coordinates:
            Coordinates               Weight
  0.000000  0.000000  0.000000      1.000000
  0.200000  0.000000  0.000000      6.000000
  0.400000  0.000000  0.000000      6.000000
  0.400000  0.200000  0.000000      6.000000
 -0.400000  0.200000  0.000000      6.000000
 
 Following cartesian coordinates:
            Coordinates               Weight
  0.000000  0.000000  0.000000      1.000000
  0.028953 -0.016716  0.000000      6.000000
  0.057906 -0.033432  0.000000      6.000000
  0.057906  0.000000  0.000000      6.000000
 -0.057906  0.066864  0.000000      6.000000
 
 TETIRR: Found     15 inequivalent tetrahedra from      150


--------------------------------------------------------------------------------------------------------




 Dimension of arrays:
   k-points           NKPTS =      5   k-points in BZ     NKDIM =      5   number of bands    NBANDS=     48
   number of dos      NEDOS =    301   number of ions     NIONS =     10
   non local maximal  LDIM  =      6   non local SUM 2l+1 LMDIM =     18
   total plane-waves  NPLWV = 524880
   max r-space proj   IRMAX =   8238   max aug-charges    IRDMAX=  31706
   dimension x,y,z NGX =    54 NGY =   54 NGZ =  180
   dimension x,y,z NGXF=   108 NGYF=  108 NGZF=  360
   support grid    NGXF=   108 NGYF=  108 NGZF=  360
   ions per type =               2   1   1   6
   NGX,Y,Z   is equivalent  to a cutoff of  13.00, 13.00, 12.76 a.u.
   NGXF,Y,Z  is equivalent  to a cutoff of  25.99, 25.99, 25.53 a.u.

 SYSTEM =  unknown system                          
 POSCAR =  Fe2 Ge P Te6                            

 Startparameter for this run:
   NWRITE =      2    write-flag & timer
   PREC   = accura    normal or accurate (medium, high low for compatibility)
   ISTART =      0    job   : 0-new  1-cont  2-samecut
   ICHARG =      2    charge: 1-file 2-atom 10-const
   ISPIN  =      2    spin polarized calculation?
   LNONCOLLINEAR =      F non collinear calculations
   LSORBIT =      F    spin-orbit coupling
   INIWAV =      1    electr: 0-lowe 1-rand  2-diag
   LASPH  =      F    aspherical Exc in radial PAW
   METAGGA=      F    non-selfconsistent MetaGGA calc.

 Electronic Relaxation 1
   ENCUT  =  520.0 eV  38.22 Ry    6.18 a.u.  12.84 12.84 43.59*2*pi/ulx,y,z
   ENINI  =  520.0     initial cutoff
   ENAUG  =  511.4 eV  augmentation charge cutoff
   NELM   =    400;   NELMIN=  2; NELMDL=  0     # of ELM steps 
   EDIFF  = 0.1E-03   stopping-criterion for ELM
   LREAL  =      T    real-space projection
   NLSPLINE    = F    spline interpolate recip. space projectors
   LCOMPAT=      F    compatible to vasp.4.4
   GGA_COMPAT  = T    GGA compatible to vasp.4.4-vasp.4.6
   LMAXPAW     = -100 max onsite density
   LMAXMIX     =    2 max onsite mixed and CHGCAR
   VOSKOWN=      0    Vosko Wilk Nusair interpolation
   ROPT   =   -0.00025  -0.00025  -0.00025  -0.00025
 Ionic relaxation
   EDIFFG = 0.1E-02   stopping-criterion for IOM
   NSW    =     99    number of steps for IOM
   NBLOCK =      1;   KBLOCK =     99    inner block; outer block 
   IBRION =      2    ionic relax: 0-MD 1-quasi-New 2-CG
   NFREE  =      1    steps in history (QN), initial steepest desc. (CG)
   ISIF   =      3    stress and relaxation
   IWAVPR =     11    prediction:  0-non 1-charg 2-wave 3-comb
   ISYM   =      2    0-nonsym 1-usesym 2-fastsym
   LCORR  =      T    Harris-Foulkes like correction to forces

   POTIM  = 0.5000    time-step for ionic-motion
   TEIN   =    0.0    initial temperature
   TEBEG  =    0.0;   TEEND  =   0.0 temperature during run
   SMASS  =  -3.00    Nose mass-parameter (am)
   estimated Nose-frequenzy (Omega)   =  0.10E-29 period in steps =****** mass=  -0.109E-26a.u.
   SCALEE = 1.0000    scale energy and forces
   NPACO  =    256;   APACO  = 16.0  distance and # of slots for P.C.
   PSTRESS=    0.0 pullay stress

  Mass of Ions in am
   POMASS =  55.85 72.61 30.97127.60
  Ionic Valenz
   ZVAL   =   8.00  4.00  5.00  6.00
  Atomic Wigner-Seitz radii
   RWIGS  =  -1.00 -1.00 -1.00 -1.00
  virtual crystal weights 
   VCA    =   1.00  1.00  1.00  1.00
   NELECT =      61.0000    total number of electrons
   NUPDOWN=      -1.0000    fix difference up-down

 DOS related values:
   EMIN   =  10.00;   EMAX   =-10.00  energy-range for DOS
   EFERMI =   0.00
   ISMEAR =    -5;   SIGMA  =   0.05  broadening in eV -4-tet -1-fermi 0-gaus

 Electronic relaxation 2 (details)
   IALGO  =     38    algorithm
   LDIAG  =      T    sub-space diagonalisation (order eigenvalues)
   LSUBROT=      F    optimize rotation matrix (better conditioning)
   TURBO    =      0    0=normal 1=particle mesh
   IRESTART =      0    0=no restart 2=restart with 2 vectors
   NREBOOT  =      0    no. of reboots
   NMIN     =      0    reboot dimension
   EREF     =   0.00    reference energy to select bands
   IMIX   =      4    mixing-type and parameters
     AMIX     =   0.40;   BMIX     =  1.00
     AMIX_MAG =   1.60;   BMIX_MAG =  1.00
     AMIN     =   0.01
     WC   =   100.;   INIMIX=   1;  MIXPRE=   1;  MAXMIX= -45

 Intra band minimization:
   WEIMIN = 0.0010     energy-eigenvalue tresh-hold
   EBREAK =  0.52E-06  absolut break condition
   DEPER  =   0.30     relativ break condition  

   TIME   =   0.40     timestep for ELM

  volume/ion in A,a.u.               =      96.88       653.80
  Fermi-wavevector in a.u.,A,eV,Ry     =   0.651281  1.230742  5.771135  0.424166
  Thomas-Fermi vector in A             =   1.720830

 Write flags
   LWAVE        =      F    write WAVECAR
   LDOWNSAMPLE  =      F    k-point downsampling of WAVECAR
   LCHARG       =      T    write CHGCAR
   LVTOT        =      F    write LOCPOT, total local potential
   LVHAR        =      F    write LOCPOT, Hartree potential only
   LELF         =      F    write electronic localiz. function (ELF)
   LORBIT       =     11    0 simple, 1 ext, 2 COOP (PROOUT), +10 PAW based schemes


 Dipole corrections
   LMONO  =      F    monopole corrections only (constant potential shift)
   LDIPOL =      F    correct potential (dipole corrections)
   IDIPOL =      0    1-x, 2-y, 3-z, 4-all directions 
   EPSILON=  1.0000000 bulk dielectric constant

 Exchange correlation treatment:
   GGA     =    BO    GGA type
   LEXCH   =    42    internal setting for exchange type
   VOSKOWN=      0    Vosko Wilk Nusair interpolation
   LHFCALC =     F    Hartree Fock is set to
   LHFONE  =     F    Hartree Fock one center treatment
   AEXX    =    0.0000 exact exchange contribution

 vdW DFT:
   LUSE_VDW   =     T    switch on vdW DFT
   Zab_VDW    =-.8491    correlation parameter
   PARAM1     =0.1833
   PARAM2     =0.2200
   PARAM3     =0.0000
   -- rVV10 --
   BPARAM     = 6.3000
   CPARAM     = 0.0093

 Linear response parameters
   LEPSILON=     F    determine dielectric tensor
   LRPA    =     F    only Hartree local field effects (RPA)
   LNABLA  =     F    use nabla operator in PAW spheres
   LVEL    =     F    velocity operator in full k-point grid
   LINTERFAST=   F  fast interpolation
   KINTER  =     0    interpolate to denser k-point grid
   CSHIFT  =0.1000    complex shift for real part using Kramers Kronig
   OMEGAMAX=  -1.0    maximum frequency
   DEG_THRESHOLD= 0.2000000E-02 threshold for treating states as degnerate
   RTIME   =   -0.100 relaxation time in fs
  (WPLASMAI=    0.000 imaginary part of plasma frequency in eV, 0.658/RTIME)
   DFIELD  = 0.0000000 0.0000000 0.0000000 field for delta impulse in time

 Orbital magnetization related:
   ORBITALMAG=     F  switch on orbital magnetization
   LCHIMAG   =     F  perturbation theory with respect to B field
   DQ        =  0.001000  dq finite difference perturbation B field
   LLRAUG    =     F  two centre corrections for induced B field



--------------------------------------------------------------------------------------------------------


 conjugate gradient relaxation of ions
   using selective dynamics as specified on POSCAR
 charge density and potential will be updated during run
 spin polarized calculation
 Variant of blocked Davidson
 Davidson routine will perform the subspace rotation
 perform sub-space diagonalisation
    after iterative eigenvector-optimisation
 modified Broyden-mixing scheme, WC =      100.0
 initial mixing is a Kerker type mixing with AMIX =  0.4000 and BMIX =      1.0000
 Hartree-type preconditioning will be used
 using additional bands           17
 real space projection scheme for non local part
 use partial core corrections
 calculate Harris-corrections to forces   (improved forces if not selfconsistent)
 use gradient corrections 
 use of overlap-Matrix (Vanderbilt PP)
 Fermi weights with tetrahedron method with Bloechl corrections


--------------------------------------------------------------------------------------------------------


  energy-cutoff  :      520.00
  volume of cell :      968.84
      direct lattice vectors                 reciprocal lattice vectors
     6.907777000 -0.000000000  0.000000000     0.144764372 -0.083579742  0.000000000
     3.453888000  5.982310000  0.000000000     0.000000000  0.167159509 -0.000000000
     0.000000000  0.000000000 23.444588000    -0.000000000  0.000000000  0.042653767

  length of vectors
     6.907777000  6.907776433 23.444588000     0.167159495  0.167159509  0.042653767



 k-points in units of 2pi/SCALE and weight: Kpoints from vasprun.xml                
   0.00000000  0.00000000  0.00000000       0.040
   0.02895287 -0.01671595  0.00000000       0.240
   0.05790575 -0.03343190  0.00000000       0.240
   0.05790575  0.00000000  0.00000000       0.240
  -0.05790575  0.06686380  0.00000000       0.240

 k-points in reciprocal lattice and weights: Kpoints from vasprun.xml                
   0.00000000  0.00000000  0.00000000       0.040
   0.20000000  0.00000000  0.00000000       0.240
   0.40000000  0.00000000  0.00000000       0.240
   0.40000000  0.20000000  0.00000000       0.240
  -0.40000000  0.20000000  0.00000000       0.240

 position of ions in fractional coordinates (direct lattice) 
   0.33333300  0.33333300  0.49992500
   0.66666700  0.66666700  0.50007500
   0.00000000  0.00000000  0.44821600
   0.00000000  0.00000000  0.55178400
   0.62635700  0.00042000  0.57375200
   0.00042000  0.37322400  0.57375200
   0.37322400  0.62635700  0.57375200
   0.37364300  0.99958000  0.42624800
   0.99958000  0.62677600  0.42624800
   0.62677600  0.37364300  0.42624800

 position of ions in cartesian coordinates  (Angst):
   3.45388488  1.99410134 11.72053566
   6.90778012  3.98820866 11.72405234
   0.00000000  0.00000000 10.50823946
   0.00000000  0.00000000 12.93634854
   4.32818511  0.00251257 13.45137925
   1.29197516  2.23274167 13.45137925
   4.74151509  3.74706174 13.45137925
   6.03347989  5.97979743  9.99320875
   9.06968984  3.74956833  9.99320875
   5.62014991  2.23524826  9.99320875



--------------------------------------------------------------------------------------------------------


 k-point  1 :   0.0000 0.0000 0.0000  plane waves:   26073
 k-point  2 :   0.2000 0.0000 0.0000  plane waves:   26070
 k-point  3 :   0.4000 0.0000 0.0000  plane waves:   26086
 k-point  4 :   0.4000 0.2000 0.0000  plane waves:   26085
 k-point  5 :  -0.4000 0.2000 0.0000  plane waves:   26115

 maximum and minimum number of plane-waves per node :     26115    26070

 maximum number of plane-waves:     26115
 maximum index in each direction: 
   IXMAX=   13   IYMAX=   12   IZMAX=   43
   IXMIN=  -13   IYMIN=  -13   IZMIN=  -43


 serial   3D FFT for wavefunctions
 parallel 3D FFT for charge:
    minimum data exchange during FFTs selected (reduces bandwidth)


 total amount of memory used by VASP MPI-rank0   131047. kBytes
=======================================================================

   base      :      30000. kBytes
   nonlr-proj:       8547. kBytes
   fftplans  :      11247. kBytes
   grid      :      68332. kBytes
   one-center:        311. kBytes
   wavefun   :      12610. kBytes

     INWAV:  cpu time    0.0000: real time    0.0012
 Broyden mixing: mesh for mixing (old mesh)
   NGX = 25   NGY = 25   NGZ = 87
  (NGX  =108   NGY  =108   NGZ  =360)
  gives a total of  54375 points

 initial charge density was supplied:
 charge density of overlapping atoms calculated
 number of electron      61.0000000 magnetization      12.0600000
 keeping initial charge density in first step


--------------------------------------------------------------------------------------------------------


 Maximum index for non-local projection operator         7925
 Maximum index for augmentation-charges         2278 (set IRDMAX)


--------------------------------------------------------------------------------------------------------


 First call to EWALD:  gamma=   0.179
 Maximum number of real-space cells 4x 4x 1
 Maximum number of reciprocal cells 2x 2x 6

    FEWALD:  cpu time    0.0000: real time    0.0015


--------------------------------------- Iteration      1(   1)  ---------------------------------------


vdW kernel read from vdw_kernel.bindat
  0.0000  0.2424  0.5071  0.7962  1.1119  1.4567  1.8333  2.2446  2.6937  3.1842
  3.7199  4.3049  4.9438  5.6415  6.4036  7.2358  8.1446  9.1372 10.2212 11.4050
 12.6979 14.1099 15.6519 17.3360 19.1751 21.1837 23.3773 25.7729 28.3892 31.2465
 34.3669 37.7748 41.4965 45.5611 50.0000

    POTLOK:  cpu time   52.8880: real time   53.4910
    SETDIJ:  cpu time    0.0520: real time    0.0509
     EDDAV:  cpu time   22.1840: real time   23.2893
 BZINTS: Fermi energy:  6.036496; 61.000000 electrons
         Band energy:  28.595601;  BLOECHL correction: -0.032218
       DOS:  cpu time    0.0040: real time    0.0048
    --------------------------------------------
      LOOP:  cpu time   75.1280: real time   76.8360

 eigenvalue-minimisations  :   960
 total energy-change (2. order) : 0.3993333E+03  (-0.1804325E+04)
 number of electron      61.0000000 magnetization      12.0600000
 augmentation part       61.0000000 magnetization      12.0600000

 Free energy of the ion-electron system (eV)
  ---------------------------------------------------
  alpha Z        PSCENC =        16.78126548
  Ewald energy   TEWEN  =      7259.79945079
  -Hartree energ DENC   =     -9807.28972173
  -exchange      EXHF   =         0.00000000
  -V(xc)+E(xc)   XCENC  =      -171.83214208
  PAW double counting   =      1672.93888601    -1422.71020389
  entropy T*S    EENTRO =         0.00000000
  eigenvalues    EBANDS =        28.59560141
  atomic energy  EATOM  =      2823.05018438
  Solvation  Ediel_sol  =         0.00000000
  ---------------------------------------------------
  free energy    TOTEN  =       399.33332037 eV

  energy without entropy =      399.33332037  energy(sigma->0) =      399.33332037


--------------------------------------------------------------------------------------------------------




--------------------------------------- Iteration      1(   2)  ---------------------------------------


     EDDAV:  cpu time   29.3560: real time   29.6122
 BZINTS: Fermi energy: -0.499744; 61.000000 electrons
         Band energy:-361.286458;  BLOECHL correction: -0.070126
       DOS:  cpu time    0.0040: real time    0.0052
    --------------------------------------------
      LOOP:  cpu time   29.3600: real time   29.6174

 eigenvalue-minimisations  :  1248
 total energy-change (2. order) :-0.3898821E+03  (-0.3695755E+03)
 number of electron      61.0000000 magnetization      12.0600000
 augmentation part       61.0000000 magnetization      12.0600000

 Free energy of the ion-electron system (eV)
  ---------------------------------------------------
  alpha Z        PSCENC =        16.78126548
  Ewald energy   TEWEN  =      7259.79945079
  -Hartree energ DENC   =     -9807.28972173
  -exchange      EXHF   =         0.00000000
  -V(xc)+E(xc)   XCENC  =      -171.83214208
  PAW double counting   =      1672.93888601    -1422.71020389
  entropy T*S    EENTRO =         0.00000000
  eigenvalues    EBANDS =      -361.28645767
  atomic energy  EATOM  =      2823.05018438
  Solvation  Ediel_sol  =         0.00000000
  ---------------------------------------------------
  free energy    TOTEN  =         9.45126129 eV

  energy without entropy =        9.45126129  energy(sigma->0) =        9.45126129


--------------------------------------------------------------------------------------------------------




--------------------------------------- Iteration      1(   3)  ---------------------------------------


     EDDAV:  cpu time   29.5760: real time   30.4242
 BZINTS: Fermi energy: -1.397644; 61.000000 electrons
         Band energy:-409.336680;  BLOECHL correction: -0.032858
       DOS:  cpu time    0.0040: real time    0.0049
    --------------------------------------------
      LOOP:  cpu time   29.5800: real time   30.4292

 eigenvalue-minimisations  :  1280
 total energy-change (2. order) :-0.4805022E+02  (-0.4666049E+02)
 number of electron      61.0000000 magnetization      12.0600000
 augmentation part       61.0000000 magnetization      12.0600000

 Free energy of the ion-electron system (eV)
  ---------------------------------------------------
  alpha Z        PSCENC =        16.78126548
  Ewald energy   TEWEN  =      7259.79945079
  -Hartree energ DENC   =     -9807.28972173
  -exchange      EXHF   =         0.00000000
  -V(xc)+E(xc)   XCENC  =      -171.83214208
  PAW double counting   =      1672.93888601    -1422.71020389
  entropy T*S    EENTRO =         0.00000000
  eigenvalues    EBANDS =      -409.33668023
  atomic energy  EATOM  =      2823.05018438
  Solvation  Ediel_sol  =         0.00000000
  ---------------------------------------------------
  free energy    TOTEN  =       -38.59896126 eV

  energy without entropy =      -38.59896126  energy(sigma->0) =      -38.59896126


--------------------------------------------------------------------------------------------------------




--------------------------------------- Iteration      1(   4)  ---------------------------------------


     EDDAV:  cpu time   29.3120: real time   29.8217
 BZINTS: Fermi energy: -1.446937; 61.000000 electrons
         Band energy:-411.356478;  BLOECHL correction: -0.031183
       DOS:  cpu time    0.0080: real time    0.0050
    --------------------------------------------
      LOOP:  cpu time   29.3200: real time   29.8268

 eigenvalue-minimisations  :  1264
 total energy-change (2. order) :-0.2019798E+01  (-0.2003461E+01)
 number of electron      61.0000000 magnetization      12.0600000
 augmentation part       61.0000000 magnetization      12.0600000

 Free energy of the ion-electron system (eV)
  ---------------------------------------------------
  alpha Z        PSCENC =        16.78126548
  Ewald energy   TEWEN  =      7259.79945079
  -Hartree energ DENC   =     -9807.28972173
  -exchange      EXHF   =         0.00000000
  -V(xc)+E(xc)   XCENC  =      -171.83214208
  PAW double counting   =      1672.93888601    -1422.71020389
  entropy T*S    EENTRO =         0.00000000
  eigenvalues    EBANDS =      -411.35647808
  atomic energy  EATOM  =      2823.05018438
  Solvation  Ediel_sol  =         0.00000000
  ---------------------------------------------------
  free energy    TOTEN  =       -40.61875912 eV

  energy without entropy =      -40.61875912  energy(sigma->0) =      -40.61875912


--------------------------------------------------------------------------------------------------------




--------------------------------------- Iteration      1(   5)  ---------------------------------------


     EDDAV:  cpu time   33.8760: real time   34.5780
 BZINTS: Fermi energy: -1.448297; 61.000000 electrons
         Band energy:-411.413757;  BLOECHL correction: -0.031470
       DOS:  cpu time    0.0040: real time    0.0056
    CHARGE:  cpu time    2.0200: real time    2.0446
    MIXING:  cpu time    0.0800: real time    0.0800
    --------------------------------------------
      LOOP:  cpu time   35.9800: real time   36.7082

 eigenvalue-minimisations  :  1488
 total energy-change (2. order) :-0.5727883E-01  (-0.5706930E-01)
 number of electron      61.0000007 magnetization      11.6772457
 augmentation part       -2.5547150 magnetization       8.2639917

 Broyden mixing:
  rms(total) = 0.20155E+01    rms(broyden)= 0.20154E+01
  rms(prec ) = 0.21830E+01
  weight for this iteration     100.00

 Free energy of the ion-electron system (eV)
  ---------------------------------------------------
  alpha Z        PSCENC =        16.78126548
  Ewald energy   TEWEN  =      7259.79945079
  -Hartree energ DENC   =     -9807.28972173
  -exchange      EXHF   =         0.00000000
  -V(xc)+E(xc)   XCENC  =      -171.83214208
  PAW double counting   =      1672.93888601    -1422.71020389
  entropy T*S    EENTRO =         0.00000000
  eigenvalues    EBANDS =      -411.41375692
  atomic energy  EATOM  =      2823.05018438
  Solvation  Ediel_sol  =         0.00000000
  ---------------------------------------------------
  free energy    TOTEN  =       -40.67603795 eV

  energy without entropy =      -40.67603795  energy(sigma->0) =      -40.67603795


--------------------------------------------------------------------------------------------------------




--------------------------------------- Iteration      1(   6)  ---------------------------------------


    POTLOK:  cpu time   52.2760: real time   52.4940
    SETDIJ:  cpu time    0.0560: real time    0.0542
     EDDAV:  cpu time   27.7200: real time   28.0389
 BZINTS: Fermi energy: -3.430701; 61.000000 electrons
         Band energy:-537.030911;  BLOECHL correction: -0.042769
       DOS:  cpu time    0.0080: real time    0.0073
    CHARGE:  cpu time    2.0120: real time    2.0459
    MIXING:  cpu time    0.0520: real time    0.0523
    --------------------------------------------
      LOOP:  cpu time   82.1240: real time   82.6926

 eigenvalue-minimisations  :  1184
 total energy-change (2. order) :-0.3334591E+02  (-0.2560933E+02)
 number of electron      61.0000015 magnetization      11.3870763
 augmentation part        6.6297448 magnetization      10.7395682

 Broyden mixing:
  rms(total) = 0.58448E+01    rms(broyden)= 0.58448E+01
  rms(prec ) = 0.62240E+01
  weight for this iteration     100.00

 eigenvalues of (default mixing * dielectric matrix)
  average eigenvalue GAMMA=   0.2172
  0.2172

 Free energy of the ion-electron system (eV)
  ---------------------------------------------------
  alpha Z        PSCENC =        16.78126548
  Ewald energy   TEWEN  =      7259.79945079
  -Hartree energ DENC   =     -9724.44826796
  -exchange      EXHF   =         0.00000000
  -V(xc)+E(xc)   XCENC  =      -171.07125830
  PAW double counting   =      1557.31319456    -1298.41560088
  entropy T*S    EENTRO =         0.00000000
  eigenvalues    EBANDS =      -537.03091136
  atomic energy  EATOM  =      2823.05018438
  Solvation  Ediel_sol  =         0.00000000
  ---------------------------------------------------
  free energy    TOTEN  =       -74.02194328 eV

  energy without entropy =      -74.02194328  energy(sigma->0) =      -74.02194328


--------------------------------------------------------------------------------------------------------




--------------------------------------- Iteration      1(   7)  ---------------------------------------


    POTLOK:  cpu time   51.4760: real time   51.9269
    SETDIJ:  cpu time    0.0760: real time    0.0770
     EDDAV:  cpu time   25.4400: real time   25.6071
 BZINTS: Fermi energy: -2.805833; 61.000000 electrons
         Band energy:-434.644524;  BLOECHL correction: -0.027519
       DOS:  cpu time    0.0040: real time    0.0072
    CHARGE:  cpu time    2.0360: real time    2.0345
    MIXING:  cpu time    0.0400: real time    0.0411
    --------------------------------------------
      LOOP:  cpu time   79.0720: real time   79.6938

 eigenvalue-minimisations  :  1072
 total energy-change (2. order) : 0.3626764E+02  (-0.4749443E+01)
 number of electron      61.0000012 magnetization      11.0856595
 augmentation part        2.4712246 magnetization      10.7786174

 Broyden mixing:
  rms(total) = 0.19800E+01    rms(broyden)= 0.19799E+01
  rms(prec ) = 0.21227E+01
  weight for this iteration     100.00

 eigenvalues of (default mixing * dielectric matrix)
  average eigenvalue GAMMA=   0.3909
  0.3909  0.3909

 Free energy of the ion-electron system (eV)
  ---------------------------------------------------
  alpha Z        PSCENC =        16.78126548
  Ewald energy   TEWEN  =      7259.79945079
  -Hartree energ DENC   =     -9780.35439001
  -exchange      EXHF   =         0.00000000
  -V(xc)+E(xc)   XCENC  =      -172.57133049
  PAW double counting   =      1660.44866667    -1410.26362333
  entropy T*S    EENTRO =         0.00000000
  eigenvalues    EBANDS =      -434.64452373
  atomic energy  EATOM  =      2823.05018438
  Solvation  Ediel_sol  =         0.00000000
  ---------------------------------------------------
  free energy    TOTEN  =       -37.75430024 eV

  energy without entropy =      -37.75430024  energy(sigma->0) =      -37.75430024


--------------------------------------------------------------------------------------------------------




--------------------------------------- Iteration      1(   8)  ---------------------------------------


    POTLOK:  cpu time   51.6680: real time   51.8493
    SETDIJ:  cpu time    0.0520: real time    0.0499
     EDDAV:  cpu time   33.9480: real time   34.3292
 BZINTS: Fermi energy: -2.369705; 61.000000 electrons
         Band energy:-423.153159;  BLOECHL correction: -0.019225
       DOS:  cpu time    0.0080: real time    0.0110
    CHARGE:  cpu time    2.1000: real time    2.1078
    MIXING:  cpu time    0.0440: real time    0.0413
    --------------------------------------------
      LOOP:  cpu time   87.8200: real time   88.3885

 eigenvalue-minimisations  :  1488
 total energy-change (2. order) : 0.9707832E+00  (-0.7611266E+00)
 number of electron      61.0000010 magnetization      10.9708438
 augmentation part        0.5010684 magnetization       9.3622040

 Broyden mixing:
  rms(total) = 0.81433E+00    rms(broyden)= 0.81405E+00
  rms(prec ) = 0.86851E+00
  weight for this iteration     100.00

 eigenvalues of (default mixing * dielectric matrix)
  average eigenvalue GAMMA=   0.3197
  0.3934  0.3934  0.1723

 Free energy of the ion-electron system (eV)
  ---------------------------------------------------
  alpha Z        PSCENC =        16.78126548
  Ewald energy   TEWEN  =      7259.79945079
  -Hartree energ DENC   =     -9790.29953274
  -exchange      EXHF   =         0.00000000
  -V(xc)+E(xc)   XCENC  =      -172.70316105
  PAW double counting   =      1683.82532038    -1434.08388498
  entropy T*S    EENTRO =         0.00000000
  eigenvalues    EBANDS =      -423.15315933
  atomic energy  EATOM  =      2823.05018438
  Solvation  Ediel_sol  =         0.00000000
  ---------------------------------------------------
  free energy    TOTEN  =       -36.78351705 eV

  energy without entropy =      -36.78351705  energy(sigma->0) =      -36.78351705


--------------------------------------------------------------------------------------------------------




--------------------------------------- Iteration      1(   9)  ---------------------------------------


    POTLOK:  cpu time   51.6160: real time   52.1042
    SETDIJ:  cpu time    0.0480: real time    0.0486
     EDDAV:  cpu time   31.0600: real time   31.2978
 BZINTS: Fermi energy: -2.287838; 61.000000 electrons
         Band energy:-423.417669;  BLOECHL correction: -0.010097
       DOS:  cpu time    0.0080: real time    0.0074
    CHARGE:  cpu time    2.0200: real time    2.0543
    MIXING:  cpu time    0.0400: real time    0.0420
    --------------------------------------------
      LOOP:  cpu time   84.7920: real time   85.5542

 eigenvalue-minimisations  :  1360
 total energy-change (2. order) :-0.1003565E+01  (-0.1248655E+01)
 number of electron      61.0000010 magnetization      10.5854213
 augmentation part        0.3887483 magnetization       8.8890826

 Broyden mixing:
  rms(total) = 0.19829E+01    rms(broyden)= 0.19826E+01
  rms(prec ) = 0.21425E+01
  weight for this iteration     100.00

 eigenvalues of (default mixing * dielectric matrix)
  average eigenvalue GAMMA=   0.4005
  0.7085  0.4118  0.4118  0.0697

 Free energy of the ion-electron system (eV)
  ---------------------------------------------------
  alpha Z        PSCENC =        16.78126548
  Ewald energy   TEWEN  =      7259.79945079
  -Hartree energ DENC   =     -9790.94320849
  -exchange      EXHF   =         0.00000000
  -V(xc)+E(xc)   XCENC  =      -172.62488565
  PAW double counting   =      1687.40396010    -1437.83617952
  entropy T*S    EENTRO =         0.00000000
  eigenvalues    EBANDS =      -423.41766893
  atomic energy  EATOM  =      2823.05018438
  Solvation  Ediel_sol  =         0.00000000
  ---------------------------------------------------
  free energy    TOTEN  =       -37.78708183 eV

  energy without entropy =      -37.78708183  energy(sigma->0) =      -37.78708183


--------------------------------------------------------------------------------------------------------




--------------------------------------- Iteration      1(  10)  ---------------------------------------


    POTLOK:  cpu time   50.7600: real time   51.0525
    SETDIJ:  cpu time    0.0520: real time    0.0522
     EDDAV:  cpu time   26.4600: real time   26.9156
 BZINTS: Fermi energy: -2.413111; 61.000000 electrons
         Band energy:-425.105136;  BLOECHL correction: -0.018013
       DOS:  cpu time    0.0040: real time    0.0049
    CHARGE:  cpu time    2.0520: real time    2.0603
    MIXING:  cpu time    0.0440: real time    0.0426
    --------------------------------------------
      LOOP:  cpu time   79.3720: real time   80.1281

 eigenvalue-minimisations  :  1152
 total energy-change (2. order) : 0.5459959E+00  (-0.8204239E+00)
 number of electron      61.0000010 magnetization       9.6145758
 augmentation part        0.8146833 magnetization       7.9985383

 Broyden mixing:
  rms(total) = 0.92007E+00    rms(broyden)= 0.91954E+00
  rms(prec ) = 0.98346E+00
  weight for this iteration     100.00

 eigenvalues of (default mixing * dielectric matrix)
  average eigenvalue GAMMA=   0.5822
  1.0286  1.0286  0.3959  0.3959  0.0621

 Free energy of the ion-electron system (eV)
  ---------------------------------------------------
  alpha Z        PSCENC =        16.78126548
  Ewald energy   TEWEN  =      7259.79945079
  -Hartree energ DENC   =     -9788.39786332
  -exchange      EXHF   =         0.00000000
  -V(xc)+E(xc)   XCENC  =      -172.32249908
  PAW double counting   =      1691.00150096    -1442.04798868
  entropy T*S    EENTRO =         0.00000000
  eigenvalues    EBANDS =      -425.10513642
  atomic energy  EATOM  =      2823.05018438
  Solvation  Ediel_sol  =         0.00000000
  ---------------------------------------------------
  free energy    TOTEN  =       -37.24108589 eV

  energy without entropy =      -37.24108589  energy(sigma->0) =      -37.24108589


--------------------------------------------------------------------------------------------------------




--------------------------------------- Iteration      1(  11)  ---------------------------------------


    POTLOK:  cpu time   50.5760: real time   51.0037
    SETDIJ:  cpu time    0.0680: real time    0.0702
     EDDAV:  cpu time   29.1080: real time   29.6227
 BZINTS: Fermi energy: -2.337652; 61.000000 electrons
         Band energy:-421.037669;  BLOECHL correction: -0.018153
       DOS:  cpu time    0.0040: real time    0.0065
    CHARGE:  cpu time    2.0480: real time    2.0926
    MIXING:  cpu time    0.0440: real time    0.0429
    --------------------------------------------
      LOOP:  cpu time   81.8480: real time   82.8387

 eigenvalue-minimisations  :  1280
 total energy-change (2. order) :-0.3775296E+00  (-0.8369747E-01)
 number of electron      61.0000010 magnetization       9.1611313
 augmentation part        0.7826876 magnetization       7.6832887

 Broyden mixing:
  rms(total) = 0.11353E+01    rms(broyden)= 0.11352E+01
  rms(prec ) = 0.12247E+01
  weight for this iteration     100.00

 eigenvalues of (default mixing * dielectric matrix)
  average eigenvalue GAMMA=   0.6349
  1.6858  0.4077  0.4077  0.6227  0.6227  0.0626

 Free energy of the ion-electron system (eV)
  ---------------------------------------------------
  alpha Z        PSCENC =        16.78126548
  Ewald energy   TEWEN  =      7259.79945079
  -Hartree energ DENC   =     -9792.16513411
  -exchange      EXHF   =         0.00000000
  -V(xc)+E(xc)   XCENC  =      -171.94199242
  PAW double counting   =      1710.00220283    -1462.10692366
  entropy T*S    EENTRO =         0.00000000
  eigenvalues    EBANDS =      -421.03766877
  atomic energy  EATOM  =      2823.05018438
  Solvation  Ediel_sol  =         0.00000000
  ---------------------------------------------------
  free energy    TOTEN  =       -37.61861546 eV

  energy without entropy =      -37.61861546  energy(sigma->0) =      -37.61861546


--------------------------------------------------------------------------------------------------------




--------------------------------------- Iteration      1(  12)  ---------------------------------------


    POTLOK:  cpu time   50.8520: real time   51.1546
    SETDIJ:  cpu time    0.0520: real time    0.0516
     EDDAV:  cpu time   29.3840: real time   29.5274
 BZINTS: Fermi energy: -2.258514; 61.000000 electrons
         Band energy:-417.611992;  BLOECHL correction: -0.018118
       DOS:  cpu time    0.0040: real time    0.0078
    CHARGE:  cpu time    2.0640: real time    2.0723
    MIXING:  cpu time    0.0440: real time    0.0437
    --------------------------------------------
      LOOP:  cpu time   82.4000: real time   82.8575

 eigenvalue-minimisations  :  1280
 total energy-change (2. order) : 0.2765857E+00  (-0.1055801E+00)
 number of electron      61.0000010 magnetization       8.8704789
 augmentation part        0.5658653 magnetization       7.4660584

 Broyden mixing:
  rms(total) = 0.51738E+00    rms(broyden)= 0.51725E+00
  rms(prec ) = 0.53985E+00
  weight for this iteration     100.00

 eigenvalues of (default mixing * dielectric matrix)
  average eigenvalue GAMMA=   0.6608
  2.1017  0.6933  0.4229  0.4229  0.5448  0.3772  0.0626

 Free energy of the ion-electron system (eV)
  ---------------------------------------------------
  alpha Z        PSCENC =        16.78126548
  Ewald energy   TEWEN  =      7259.79945079
  -Hartree energ DENC   =     -9795.05210931
  -exchange      EXHF   =         0.00000000
  -V(xc)+E(xc)   XCENC  =      -171.97835498
  PAW double counting   =      1718.59647921    -1470.92695286
  entropy T*S    EENTRO =         0.00000000
  eigenvalues    EBANDS =      -417.61199247
  atomic energy  EATOM  =      2823.05018438
  Solvation  Ediel_sol  =         0.00000000
  ---------------------------------------------------
  free energy    TOTEN  =       -37.34202976 eV

  energy without entropy =      -37.34202976  energy(sigma->0) =      -37.34202976


--------------------------------------------------------------------------------------------------------




--------------------------------------- Iteration      1(  13)  ---------------------------------------


    POTLOK:  cpu time   50.8040: real time   51.0809
    SETDIJ:  cpu time    0.0840: real time    0.0841
     EDDAV:  cpu time   31.0880: real time   31.6756
 BZINTS: Fermi energy: -2.259359; 61.000000 electrons
         Band energy:-418.539987;  BLOECHL correction: -0.016778
       DOS:  cpu time    0.0040: real time    0.0068
    CHARGE:  cpu time    2.0520: real time    2.0525
    MIXING:  cpu time    0.0440: real time    0.0447
    --------------------------------------------
      LOOP:  cpu time   84.0760: real time   84.9446

 eigenvalue-minimisations  :  1376
 total energy-change (2. order) :-0.2036393E+00  (-0.6412421E-01)
 number of electron      61.0000010 magnetization       8.8040013
 augmentation part        0.6920602 magnetization       7.3395881

 Broyden mixing:
  rms(total) = 0.80041E+00    rms(broyden)= 0.80034E+00
  rms(prec ) = 0.84371E+00
  weight for this iteration     100.00

 eigenvalues of (default mixing * dielectric matrix)
  average eigenvalue GAMMA=   0.5819
  2.0833  0.7125  0.5522  0.4210  0.4210  0.3235  0.0625  0.0793

 Free energy of the ion-electron system (eV)
  ---------------------------------------------------
  alpha Z        PSCENC =        16.78126548
  Ewald energy   TEWEN  =      7259.79945079
  -Hartree energ DENC   =     -9794.39440360
  -exchange      EXHF   =         0.00000000
  -V(xc)+E(xc)   XCENC  =      -171.93306428
  PAW double counting   =      1717.47813160    -1469.78724675
  entropy T*S    EENTRO =         0.00000000
  eigenvalues    EBANDS =      -418.53998665
  atomic energy  EATOM  =      2823.05018438
  Solvation  Ediel_sol  =         0.00000000
  ---------------------------------------------------
  free energy    TOTEN  =       -37.54566904 eV

  energy without entropy =      -37.54566904  energy(sigma->0) =      -37.54566904


--------------------------------------------------------------------------------------------------------




--------------------------------------- Iteration      1(  14)  ---------------------------------------


    POTLOK:  cpu time   50.7080: real time   50.9035
    SETDIJ:  cpu time    0.0520: real time    0.0528
     EDDAV:  cpu time   26.5520: real time   26.7409
 BZINTS: Fermi energy: -2.254086; 61.000000 electrons
         Band energy:-418.382402;  BLOECHL correction: -0.016639
       DOS:  cpu time    0.0040: real time    0.0078
    CHARGE:  cpu time    2.1080: real time    2.1096
    MIXING:  cpu time    0.0480: real time    0.0457
    --------------------------------------------
      LOOP:  cpu time   79.4720: real time   79.8601

 eigenvalue-minimisations  :  1136
 total energy-change (2. order) :-0.1114580E-01  (-0.3268668E-02)
 number of electron      61.0000010 magnetization       8.2022852
 augmentation part        0.6689770 magnetization       6.7557099

 Broyden mixing:
  rms(total) = 0.78622E+00    rms(broyden)= 0.78622E+00
  rms(prec ) = 0.83016E+00
  weight for this iteration     100.00

 eigenvalues of (default mixing * dielectric matrix)
  average eigenvalue GAMMA=   0.7797
  2.5988  0.8225  0.8225  0.6842  0.6842  0.4087  0.4087  0.5252  0.0626

 Free energy of the ion-electron system (eV)
  ---------------------------------------------------
  alpha Z        PSCENC =        16.78126548
  Ewald energy   TEWEN  =      7259.79945079
  -Hartree energ DENC   =     -9794.59509789
  -exchange      EXHF   =         0.00000000
  -V(xc)+E(xc)   XCENC  =      -171.90540505
  PAW double counting   =      1716.70172786    -1469.00653848
  entropy T*S    EENTRO =         0.00000000
  eigenvalues    EBANDS =      -418.38240192
  atomic energy  EATOM  =      2823.05018438
  Solvation  Ediel_sol  =         0.00000000
  ---------------------------------------------------
  free energy    TOTEN  =       -37.55681483 eV

  energy without entropy =      -37.55681483  energy(sigma->0) =      -37.55681483


--------------------------------------------------------------------------------------------------------




--------------------------------------- Iteration      1(  15)  ---------------------------------------


    POTLOK:  cpu time   50.8880: real time   51.0789
    SETDIJ:  cpu time    0.0520: real time    0.0510
     EDDAV:  cpu time   29.8560: real time   30.2487
 BZINTS: Fermi energy: -2.241309; 61.000000 electrons
         Band energy:-417.158132;  BLOECHL correction: -0.018208
       DOS:  cpu time    0.0080: real time    0.0068
    CHARGE:  cpu time    2.0720: real time    2.1221
    MIXING:  cpu time    0.0480: real time    0.0489
    --------------------------------------------
      LOOP:  cpu time   82.9240: real time   83.5564

 eigenvalue-minimisations  :  1312
 total energy-change (2. order) :-0.1851667E-01  (-0.6416378E-01)
 number of electron      61.0000010 magnetization       7.7678181
 augmentation part        0.6369089 magnetization       6.3857878

 Broyden mixing:
  rms(total) = 0.53127E+00    rms(broyden)= 0.53123E+00
  rms(prec ) = 0.55885E+00
  weight for this iteration     100.00

 eigenvalues of (default mixing * dielectric matrix)
  average eigenvalue GAMMA=   0.7838
  2.6365  0.9326  0.9326  0.8769  0.5633  0.5633  0.4053  0.4053  0.4594  0.0626

 Free energy of the ion-electron system (eV)
  ---------------------------------------------------
  alpha Z        PSCENC =        16.78126548
  Ewald energy   TEWEN  =      7259.79945079
  -Hartree energ DENC   =     -9795.88041026
  -exchange      EXHF   =         0.00000000
  -V(xc)+E(xc)   XCENC  =      -171.80585283
  PAW double counting   =      1718.88656785    -1471.24840507
  entropy T*S    EENTRO =         0.00000000
  eigenvalues    EBANDS =      -417.15813185
  atomic energy  EATOM  =      2823.05018438
  Solvation  Ediel_sol  =         0.00000000
  ---------------------------------------------------
  free energy    TOTEN  =       -37.57533150 eV

  energy without entropy =      -37.57533150  energy(sigma->0) =      -37.57533150


--------------------------------------------------------------------------------------------------------




--------------------------------------- Iteration      1(  16)  ---------------------------------------


    POTLOK:  cpu time   50.5920: real time   50.9857
    SETDIJ:  cpu time    0.0560: real time    0.0568
     EDDAV:  cpu time   27.0640: real time   27.2771
 BZINTS: Fermi energy: -2.217930; 61.000000 electrons
         Band energy:-416.021527;  BLOECHL correction: -0.018408
       DOS:  cpu time    0.0040: real time    0.0073
    CHARGE:  cpu time    2.0720: real time    2.0725
    MIXING:  cpu time    0.0480: real time    0.0480
    --------------------------------------------
      LOOP:  cpu time   79.8360: real time   80.4475

 eigenvalue-minimisations  :  1168
 total energy-change (2. order) :-0.2860055E-01  (-0.9895718E-02)
 number of electron      61.0000010 magnetization       6.8601981
 augmentation part        0.5542372 magnetization       5.5160200

 Broyden mixing:
  rms(total) = 0.46368E+00    rms(broyden)= 0.46368E+00
  rms(prec ) = 0.48586E+00
  weight for this iteration     100.00

 eigenvalues of (default mixing * dielectric matrix)
  average eigenvalue GAMMA=   0.9367
  3.7175  1.2130  1.2130  0.6707  0.6707  0.6958  0.6958  0.4064  0.4064  0.5521
  0.0626

 Free energy of the ion-electron system (eV)
  ---------------------------------------------------
  alpha Z        PSCENC =        16.78126548
  Ewald energy   TEWEN  =      7259.79945079
  -Hartree energ DENC   =     -9797.08579711
  -exchange      EXHF   =         0.00000000
  -V(xc)+E(xc)   XCENC  =      -171.78328271
  PAW double counting   =      1718.61371815    -1470.95794394
  entropy T*S    EENTRO =         0.00000000
  eigenvalues    EBANDS =      -416.02152708
  atomic energy  EATOM  =      2823.05018438
  Solvation  Ediel_sol  =         0.00000000
  ---------------------------------------------------
  free energy    TOTEN  =       -37.60393205 eV

  energy without entropy =      -37.60393205  energy(sigma->0) =      -37.60393205


--------------------------------------------------------------------------------------------------------




--------------------------------------- Iteration      1(  17)  ---------------------------------------


    POTLOK:  cpu time   50.8680: real time   51.0182
    SETDIJ:  cpu time    0.0520: real time    0.0500
     EDDAV:  cpu time   28.4960: real time   29.0048
 BZINTS: Fermi energy: -2.160133; 61.000000 electrons
         Band energy:-413.854098;  BLOECHL correction: -0.018400
       DOS:  cpu time    0.0040: real time    0.0049
    CHARGE:  cpu time    2.0400: real time    2.0590
    MIXING:  cpu time    0.0480: real time    0.0481
    --------------------------------------------
      LOOP:  cpu time   81.5080: real time   82.1851

 eigenvalue-minimisations  :  1248
 total energy-change (2. order) : 0.1444976E-01  (-0.1760062E-01)
 number of electron      61.0000009 magnetization       6.0095722
 augmentation part        0.4054008 magnetization       4.7295878

 Broyden mixing:
  rms(total) = 0.35389E+00    rms(broyden)= 0.35389E+00
  rms(prec ) = 0.36776E+00
  weight for this iteration     100.00

 eigenvalues of (default mixing * dielectric matrix)
  average eigenvalue GAMMA=   1.0842
  5.1793  1.3438  1.3438  0.7755  0.7755  0.8264  0.7022  0.7022  0.4063  0.4063
  0.4858  0.0626

 Free energy of the ion-electron system (eV)
  ---------------------------------------------------
  alpha Z        PSCENC =        16.78126548
  Ewald energy   TEWEN  =      7259.79945079
  -Hartree energ DENC   =     -9799.39381646
  -exchange      EXHF   =         0.00000000
  -V(xc)+E(xc)   XCENC  =      -171.75164253
  PAW double counting   =      1719.49838531    -1471.71921098
  entropy T*S    EENTRO =         0.00000000
  eigenvalues    EBANDS =      -413.85409829
  atomic energy  EATOM  =      2823.05018438
  Solvation  Ediel_sol  =         0.00000000
  ---------------------------------------------------
  free energy    TOTEN  =       -37.58948228 eV

  energy without entropy =      -37.58948228  energy(sigma->0) =      -37.58948228


--------------------------------------------------------------------------------------------------------




--------------------------------------- Iteration      1(  18)  ---------------------------------------


    POTLOK:  cpu time   50.6600: real time   51.0721
    SETDIJ:  cpu time    0.0520: real time    0.0543
     EDDAV:  cpu time   26.6160: real time   26.9334
 BZINTS: Fermi energy: -2.097875; 61.000000 electrons
         Band energy:-411.976283;  BLOECHL correction: -0.018333
       DOS:  cpu time    0.0080: real time    0.0074
    CHARGE:  cpu time    2.0480: real time    2.0518
    MIXING:  cpu time    0.0520: real time    0.0496
    --------------------------------------------
      LOOP:  cpu time   79.4360: real time   80.1686

 eigenvalue-minimisations  :  1152
 total energy-change (2. order) :-0.1225534E-01  (-0.1734443E-01)
 number of electron      61.0000009 magnetization       5.7356741
 augmentation part        0.2646909 magnetization       4.4734193

 Broyden mixing:
  rms(total) = 0.24958E+00    rms(broyden)= 0.24957E+00
  rms(prec ) = 0.25595E+00
  weight for this iteration     100.00

 eigenvalues of (default mixing * dielectric matrix)
  average eigenvalue GAMMA=   1.1566
  5.8466  1.8483  1.0996  1.0996  0.8415  0.8415  0.7205  0.7205  0.0626  0.4063
  0.4063  0.6382  0.5038

 Free energy of the ion-electron system (eV)
  ---------------------------------------------------
  alpha Z        PSCENC =        16.78126548
  Ewald energy   TEWEN  =      7259.79945079
  -Hartree energ DENC   =     -9801.37822709
  -exchange      EXHF   =         0.00000000
  -V(xc)+E(xc)   XCENC  =      -171.92516450
  PAW double counting   =      1718.96155516    -1470.91451925
  entropy T*S    EENTRO =         0.00000000
  eigenvalues    EBANDS =      -411.97628260
  atomic energy  EATOM  =      2823.05018438
  Solvation  Ediel_sol  =         0.00000000
  ---------------------------------------------------
  free energy    TOTEN  =       -37.60173762 eV

  energy without entropy =      -37.60173762  energy(sigma->0) =      -37.60173762


--------------------------------------------------------------------------------------------------------




--------------------------------------- Iteration      1(  19)  ---------------------------------------


    POTLOK:  cpu time   50.6880: real time   51.0362
    SETDIJ:  cpu time    0.0520: real time    0.0519
     EDDAV:  cpu time   27.2520: real time   27.5957
 BZINTS: Fermi energy: -2.057823; 61.000000 electrons
         Band energy:-410.640870;  BLOECHL correction: -0.018503
       DOS:  cpu time    0.0040: real time    0.0072
    CHARGE:  cpu time    2.0520: real time    2.0828
    MIXING:  cpu time    0.0480: real time    0.0504
    --------------------------------------------
      LOOP:  cpu time   80.0960: real time   80.8243

 eigenvalue-minimisations  :  1184
 total energy-change (2. order) :-0.5295225E-01  (-0.4769577E-02)
 number of electron      61.0000009 magnetization       5.4786815
 augmentation part        0.1617895 magnetization       4.2035283

 Broyden mixing:
  rms(total) = 0.18377E+00    rms(broyden)= 0.18376E+00
  rms(prec ) = 0.18712E+00
  weight for this iteration     100.00

 eigenvalues of (default mixing * dielectric matrix)
  average eigenvalue GAMMA=   1.2578
  6.5195  1.8925  1.8925  1.3644  0.7247  0.7247  0.9389  0.7652  0.7652  0.0626
  0.4063  0.4063  0.6514  0.4953

 Free energy of the ion-electron system (eV)
  ---------------------------------------------------
  alpha Z        PSCENC =        16.78126548
  Ewald energy   TEWEN  =      7259.79945079
  -Hartree energ DENC   =     -9802.61242646
  -exchange      EXHF   =         0.00000000
  -V(xc)+E(xc)   XCENC  =      -172.13436793
  PAW double counting   =      1720.25433008    -1472.15225611
  entropy T*S    EENTRO =         0.00000000
  eigenvalues    EBANDS =      -410.64087010
  atomic energy  EATOM  =      2823.05018438
  Solvation  Ediel_sol  =         0.00000000
  ---------------------------------------------------
  free energy    TOTEN  =       -37.65468988 eV

  energy without entropy =      -37.65468988  energy(sigma->0) =      -37.65468988


--------------------------------------------------------------------------------------------------------




--------------------------------------- Iteration      1(  20)  ---------------------------------------


    POTLOK:  cpu time   50.9680: real time   51.1202
    SETDIJ:  cpu time    0.0520: real time    0.0503
     EDDAV:  cpu time   25.9160: real time   26.2697
 BZINTS: Fermi energy: -2.035243; 61.000000 electrons
         Band energy:-409.819041;  BLOECHL correction: -0.019052
       DOS:  cpu time    0.0080: real time    0.0073
    CHARGE:  cpu time    1.9880: real time    2.1072
    MIXING:  cpu time    0.0680: real time    0.0671
    --------------------------------------------
      LOOP:  cpu time   79.0000: real time   79.6217

 eigenvalue-minimisations  :  1120
 total energy-change (2. order) :-0.4337088E-01  (-0.2791688E-02)
 number of electron      61.0000009 magnetization       5.0306863
 augmentation part        0.1475110 magnetization       3.7697876

 Broyden mixing:
  rms(total) = 0.12889E+00    rms(broyden)= 0.12888E+00
  rms(prec ) = 0.13225E+00
  weight for this iteration     100.00

 eigenvalues of (default mixing * dielectric matrix)
  average eigenvalue GAMMA=   1.3807
  7.5473  2.4437  2.4437  1.2395  1.0238  1.0238  0.7346  0.7346  0.7599  0.7599
  0.0626  0.4063  0.4063  0.4971  0.6276

 Free energy of the ion-electron system (eV)
  ---------------------------------------------------
  alpha Z        PSCENC =        16.78126548
  Ewald energy   TEWEN  =      7259.79945079
  -Hartree energ DENC   =     -9803.27958782
  -exchange      EXHF   =         0.00000000
  -V(xc)+E(xc)   XCENC  =      -172.34997616
  PAW double counting   =      1721.39894088    -1473.27929727
  entropy T*S    EENTRO =         0.00000000
  eigenvalues    EBANDS =      -409.81904104
  atomic energy  EATOM  =      2823.05018438
  Solvation  Ediel_sol  =         0.00000000
  ---------------------------------------------------
  free energy    TOTEN  =       -37.69806076 eV

  energy without entropy =      -37.69806076  energy(sigma->0) =      -37.69806076


--------------------------------------------------------------------------------------------------------




--------------------------------------- Iteration      1(  21)  ---------------------------------------


    POTLOK:  cpu time   50.8920: real time   51.0253
    SETDIJ:  cpu time    0.0520: real time    0.0525
     EDDAV:  cpu time   28.1800: real time   28.5925
 BZINTS: Fermi energy: -1.999573; 61.000000 electrons
         Band energy:-408.431084;  BLOECHL correction: -0.019205
       DOS:  cpu time    0.0040: real time    0.0068
    CHARGE:  cpu time    2.0360: real time    2.0582
    MIXING:  cpu time    0.0560: real time    0.0584
    --------------------------------------------
      LOOP:  cpu time   81.2200: real time   81.7937

 eigenvalue-minimisations  :  1232
 total energy-change (2. order) :-0.2658034E-01  (-0.3350314E-02)
 number of electron      61.0000009 magnetization       4.6992605
 augmentation part        0.1249797 magnetization       3.4914429

 Broyden mixing:
  rms(total) = 0.55492E-01    rms(broyden)= 0.55459E-01
  rms(prec ) = 0.57224E-01
  weight for this iteration     100.00

 eigenvalues of (default mixing * dielectric matrix)
  average eigenvalue GAMMA=   1.6379
 10.8319  2.9204  2.9204  1.5962  1.1092  1.1092  0.7323  0.7323  0.7641  0.7641
  0.0626  0.4063  0.4063  0.4969  0.7166  0.6373

 Free energy of the ion-electron system (eV)
  ---------------------------------------------------
  alpha Z        PSCENC =        16.78126548
  Ewald energy   TEWEN  =      7259.79945079
  -Hartree energ DENC   =     -9804.49703170
  -exchange      EXHF   =         0.00000000
  -V(xc)+E(xc)   XCENC  =      -172.58642227
  PAW double counting   =      1721.98380155    -1473.82480578
  entropy T*S    EENTRO =         0.00000000
  eigenvalues    EBANDS =      -408.43108356
  atomic energy  EATOM  =      2823.05018438
  Solvation  Ediel_sol  =         0.00000000
  ---------------------------------------------------
  free energy    TOTEN  =       -37.72464110 eV

  energy without entropy =      -37.72464110  energy(sigma->0) =      -37.72464110


--------------------------------------------------------------------------------------------------------




--------------------------------------- Iteration      1(  22)  ---------------------------------------


    POTLOK:  cpu time   50.7360: real time   51.1047
    SETDIJ:  cpu time    0.0520: real time    0.0503
     EDDAV:  cpu time   27.2080: real time   27.5478
 BZINTS: Fermi energy: -1.966490; 61.000000 electrons
         Band energy:-407.172487;  BLOECHL correction: -0.020453
       DOS:  cpu time    0.0080: real time    0.0073
    CHARGE:  cpu time    2.1360: real time    2.1380
    MIXING:  cpu time    0.0520: real time    0.0548
    --------------------------------------------
      LOOP:  cpu time   80.1920: real time   80.9029

 eigenvalue-minimisations  :  1184
 total energy-change (2. order) :-0.7353782E-02  (-0.2345204E-02)
 number of electron      61.0000009 magnetization       4.7117863
 augmentation part        0.0705512 magnetization       3.5198491

 Broyden mixing:
  rms(total) = 0.50247E-01    rms(broyden)= 0.50195E-01
  rms(prec ) = 0.52172E-01
  weight for this iteration     100.00

 eigenvalues of (default mixing * dielectric matrix)
  average eigenvalue GAMMA=   1.6108
 11.1748  2.8835  2.8835  1.9166  1.0773  1.0773  0.7322  0.7322  0.0626  0.7581
  0.7581  0.4063  0.4063  0.4968  0.7006  0.7006  0.6168

 Free energy of the ion-electron system (eV)
  ---------------------------------------------------
  alpha Z        PSCENC =        16.78126548
  Ewald energy   TEWEN  =      7259.79945079
  -Hartree energ DENC   =     -9805.62154664
  -exchange      EXHF   =         0.00000000
  -V(xc)+E(xc)   XCENC  =      -172.73278355
[...]
     34      -0.2068      0.00000
     35      -0.1293      0.00000
     36      -0.0384      0.00000
     37       0.2920      0.00000
     38       1.0390      0.00000
     39       1.0680      0.00000
     40       1.7675      0.00000
     41       2.0321      0.00000
     42       2.1065      0.00000
     43       2.7172      0.00000
     44       3.0168      0.00000
     45       3.0222      0.00000
     46       3.5412      0.00000
     47       3.6573      0.00000
     48       4.1103      0.00000

 k-point     5 :      -0.4000    0.2000    0.0000
  band No.  band energies     occupation 
      1     -14.7383      1.00000
      2     -13.6344      1.00000
      3     -13.3117      1.00000
      4     -13.1756      1.00000
      5     -12.7270      1.00000
      6     -12.6069      1.00000
      7     -10.8442      1.00000
      8      -9.0765      1.00000
      9      -6.7741      1.00000
     10      -6.3526      1.00000
     11      -6.0380      1.00000
     12      -5.4677      1.00000
     13      -5.4415      1.00000
     14      -4.9080      1.00000
     15      -4.8122      1.00000
     16      -4.5575      1.00000
     17      -4.4643      1.00000
     18      -4.1649      1.00000
     19      -4.0354      1.00000
     20      -3.8495      1.00000
     21      -3.8053      1.00000
     22      -3.3976      1.00000
     23      -3.0728      1.00000
     24      -2.8218      1.00000
     25      -2.5597      1.00000
     26      -2.4909      1.00000
     27      -2.0791      1.00000
     28      -2.0204      1.00000
     29      -1.8518      1.00000
     30      -1.7727      1.00000
     31      -1.4294      0.00000
     32      -1.0993      0.00000
     33      -0.5327      0.00000
     34      -0.5027      0.00000
     35      -0.1657      0.00000
     36       0.0836      0.00000
     37       0.2399      0.00000
     38       0.5563      0.00000
     39       1.0797      0.00000
     40       1.5861      0.00000
     41       1.8929      0.00000
     42       1.9244      0.00000
     43       3.0792      0.00000
     44       3.2310      0.00000
     45       3.2414      0.00000
     46       3.4214      0.00000
     47       3.4265      0.00000
     48       4.0184      0.00000


--------------------------------------------------------------------------------------------------------


 soft charge-density along one line, spin component           1
         0         1         2         3         4         5         6         7         8         9
 total charge-density along one line

 soft charge-density along one line, spin component           2
         0         1         2         3         4         5         6         7         8         9
 total charge-density along one line

 pseudopotential strength for first ion, spin component:           1
 -9.154  -0.060  -0.000  -0.005   0.000   0.371   0.018   0.000
 -0.060  -9.182   0.000   0.000  -0.005   0.018   0.380  -0.000
 -0.000   0.000  -9.044   0.000   0.000   0.000  -0.000   0.338
 -0.005   0.000   0.000  -9.182   0.060   0.001  -0.000  -0.000
  0.000  -0.005   0.000   0.060  -9.154  -0.000   0.001  -0.000
  0.371   0.018   0.000   0.001  -0.000   0.630  -0.006  -0.000
  0.018   0.380  -0.000  -0.000   0.001  -0.006   0.627   0.000
  0.000  -0.000   0.338  -0.000  -0.000  -0.000   0.000   0.640
  0.001  -0.000  -0.000   0.380  -0.018  -0.000   0.000   0.000
 -0.000   0.001  -0.000  -0.018   0.371   0.000  -0.000   0.000
 -0.000  -0.000  -0.007  -0.000   0.000  -0.000  -0.000   0.002
  0.000   0.000   0.001   0.000  -0.000  -0.000  -0.000  -0.000
  0.000   0.005   0.000  -0.000   0.001   0.000  -0.001  -0.000
 -0.000  -0.000   0.006  -0.000   0.000  -0.000   0.000  -0.002
  0.001  -0.000   0.000   0.005  -0.000   0.000  -0.000  -0.000
 -0.000  -0.003  -0.000   0.000  -0.002   0.000   0.001   0.000
  0.000   0.000  -0.003   0.000  -0.000  -0.000  -0.000   0.001
 -0.002   0.000  -0.000  -0.003   0.000   0.000  -0.000   0.000
 pseudopotential strength for first ion, spin component:           2
 -9.381  -0.051   0.000   0.012   0.000   0.439   0.015  -0.000
 -0.051  -9.387   0.000   0.000   0.012   0.015   0.441  -0.000
  0.000   0.000  -9.312   0.000   0.000  -0.000  -0.000   0.418
  0.012   0.000   0.000  -9.387   0.051  -0.004  -0.000  -0.000
  0.000   0.012   0.000   0.051  -9.381  -0.000  -0.004  -0.000
  0.439   0.015  -0.000  -0.004  -0.000   0.610  -0.005   0.000
  0.015   0.441  -0.000  -0.000  -0.004  -0.005   0.608   0.000
 -0.000  -0.000   0.418  -0.000  -0.000   0.000   0.000   0.617
 -0.004  -0.000  -0.000   0.441  -0.015   0.001   0.000   0.000
 -0.000  -0.004  -0.000  -0.015   0.439   0.000   0.001   0.000
 -0.000  -0.000  -0.004  -0.000   0.000  -0.000  -0.000   0.001
  0.000   0.000   0.001   0.000  -0.000  -0.000  -0.000  -0.000
  0.000   0.006   0.000  -0.000   0.002   0.000  -0.001  -0.000
 -0.000  -0.000   0.007  -0.000   0.000  -0.000   0.000  -0.002
  0.002  -0.000   0.000   0.006  -0.000  -0.000  -0.000  -0.000
 -0.000  -0.003  -0.000   0.000  -0.002   0.000   0.001   0.000
  0.000   0.000  -0.003   0.000  -0.000  -0.000  -0.000   0.001
 -0.002   0.000  -0.000  -0.003   0.000   0.000  -0.000   0.000
 total augmentation occupancy for first ion, spin component:           1
  1.484  -0.314   0.000   0.031  -0.000   0.149   0.128   0.000   0.002   0.000  -0.000  -0.000  -0.001   0.000   0.016  -0.000
 -0.314   1.240  -0.000  -0.000   0.031   0.132   0.259   0.000   0.000   0.002   0.000   0.000   0.008   0.000  -0.001   0.000
  0.000  -0.000   1.764  -0.000  -0.000   0.000   0.000   0.020   0.000  -0.000  -0.008  -0.006  -0.000   0.012   0.000  -0.000
  0.031  -0.000  -0.000   1.240   0.314   0.002  -0.000   0.000   0.259  -0.132  -0.000  -0.000   0.001   0.000   0.008   0.000
 -0.000   0.031  -0.000   0.314   1.484  -0.000   0.002  -0.000  -0.128   0.149   0.000   0.000   0.016  -0.000   0.001   0.000
  0.149   0.132   0.000   0.002  -0.000   0.090   0.057   0.000   0.000  -0.000   0.000  -0.000   0.006  -0.000   0.013  -0.000
  0.128   0.259   0.000  -0.000   0.002   0.057   0.138   0.000  -0.000   0.000  -0.000  -0.000   0.008   0.000  -0.001  -0.001
  0.000   0.000   0.020   0.000  -0.000   0.000   0.000   0.064   0.000  -0.000   0.001  -0.002  -0.000  -0.003   0.000   0.000
  0.002   0.000   0.000   0.259  -0.128   0.000  -0.000   0.000   0.138  -0.057   0.000   0.000   0.001   0.000   0.008  -0.000
  0.000   0.002  -0.000  -0.132   0.149  -0.000   0.000  -0.000  -0.057   0.090  -0.000   0.000   0.013   0.000  -0.006  -0.002
 -0.000   0.000  -0.008  -0.000   0.000   0.000  -0.000   0.001   0.000  -0.000   1.018  -0.252   0.000   0.011  -0.000   0.000
 -0.000   0.000  -0.006  -0.000   0.000  -0.000   0.000  -0.002   0.000   0.000  -0.252   0.102   0.000  -0.004  -0.000   0.000
 -0.001   0.008  -0.000   0.001   0.016   0.006   0.008  -0.000   0.001   0.013   0.000   0.000   0.166   0.000  -0.000  -0.010
  0.000   0.000   0.012  -0.000  -0.000  -0.000   0.000  -0.003   0.000   0.000   0.011  -0.004   0.000   0.165  -0.000  -0.000
  0.016  -0.001   0.000   0.008   0.001   0.013  -0.001   0.000   0.008  -0.006  -0.000  -0.000  -0.000  -0.000   0.166   0.000
 -0.000   0.000  -0.000   0.000   0.000  -0.000  -0.001   0.000  -0.000  -0.002   0.000   0.000  -0.010  -0.000   0.000   0.001
  0.000   0.000   0.001   0.000  -0.000   0.000   0.000   0.000  -0.000  -0.000  -0.001   0.001  -0.000  -0.010   0.000   0.000
  0.000  -0.000   0.000   0.000   0.000  -0.002   0.000  -0.000  -0.001   0.000  -0.000   0.000  -0.000   0.000  -0.010  -0.000
 total augmentation occupancy for first ion, spin component:           2
 -0.069   0.012  -0.000   0.015   0.000   0.030  -0.007   0.000  -0.003   0.002   0.000   0.000   0.000   0.000   0.005  -0.000
  0.012  -0.047   0.000   0.000   0.015  -0.009   0.017  -0.000   0.002  -0.001   0.000   0.000   0.001   0.000  -0.002  -0.000
 -0.000   0.000  -0.111   0.000   0.000   0.000  -0.000   0.040  -0.000  -0.000   0.013   0.003  -0.000   0.003   0.000   0.000
  0.015   0.000   0.000  -0.047  -0.012  -0.001  -0.002  -0.000   0.017   0.009  -0.000   0.000   0.002  -0.000   0.001   0.000
  0.000   0.015   0.000  -0.012  -0.069  -0.002  -0.003  -0.000   0.007   0.030  -0.000  -0.000   0.005  -0.000  -0.000  -0.000
  0.030  -0.009   0.000  -0.001  -0.002   0.002   0.005  -0.000   0.000  -0.000  -0.000  -0.000  -0.000   0.000   0.001  -0.000
 -0.007   0.017  -0.000  -0.002  -0.003   0.005   0.007   0.000  -0.000   0.000   0.000   0.000   0.000   0.000   0.001  -0.000
  0.000  -0.000   0.040  -0.000  -0.000  -0.000   0.000  -0.002   0.000   0.000  -0.004  -0.000  -0.000   0.000   0.000  -0.000
 -0.003   0.002  -0.000   0.017   0.007   0.000  -0.000   0.000   0.007  -0.005  -0.000   0.000  -0.001   0.000   0.000   0.000
  0.002  -0.001  -0.000   0.009   0.030  -0.000   0.000   0.000  -0.005   0.002   0.000   0.000   0.001  -0.000   0.000   0.000
  0.000   0.000   0.013   0.000  -0.000  -0.000   0.000  -0.004  -0.000   0.000  -0.010  -0.011   0.000   0.001  -0.000   0.000
  0.000   0.000   0.003   0.000  -0.000  -0.000   0.000  -0.000  -0.000   0.000  -0.011   0.005   0.000  -0.000  -0.000   0.000
  0.000   0.001  -0.000   0.002   0.005  -0.000   0.000  -0.000  -0.001   0.001   0.000   0.000   0.002   0.000  -0.000  -0.000
  0.000  -0.000   0.003  -0.000  -0.000   0.000   0.000   0.000   0.000  -0.000   0.001  -0.000   0.000  -0.001  -0.000  -0.000
  0.005  -0.002   0.000   0.001  -0.000   0.001   0.001   0.000   0.000   0.000  -0.000  -0.000  -0.000  -0.000   0.002  -0.000
 -0.000  -0.000   0.000   0.000  -0.000  -0.000  -0.000  -0.000   0.000   0.000   0.000   0.000  -0.000  -0.000  -0.000   0.000
 -0.000   0.000  -0.000  -0.000   0.000   0.000   0.000   0.000  -0.000  -0.000  -0.000   0.000  -0.000  -0.000   0.000   0.000
 -0.000  -0.000  -0.000  -0.000   0.000   0.000  -0.000   0.000  -0.000   0.000   0.000   0.000   0.000   0.000  -0.000  -0.000


------------------------ aborting loop because EDIFF is reached ----------------------------------------





 total charge     

# of ion       s       p       d       tot
------------------------------------------
    1        0.349   0.403   6.427   7.179
    2        0.368   0.425   6.339   7.132
    3        1.168   1.179   0.090   2.437
    4        1.074   1.393   0.000   2.467
    5        1.404   1.902   0.052   3.359
    6        1.395   1.902   0.056   3.353
    7        1.401   1.903   0.054   3.358
    8        1.395   1.946   0.045   3.386
    9        1.389   1.952   0.045   3.386
   10        1.394   1.940   0.045   3.379
--------------------------------------------------
tot         11.336  14.946  13.154  39.436



 magnetization (x)

# of ion       s       p       d       tot
------------------------------------------
    1       -0.001   0.004  -0.344  -0.342
    2        0.013   0.010   1.392   1.414
    3       -0.000   0.004   0.000   0.004
    4        0.001   0.004   0.000   0.006
    5        0.001  -0.015   0.000  -0.013
    6        0.000  -0.012   0.000  -0.011
    7        0.001  -0.019   0.001  -0.017
    8        0.001  -0.020   0.000  -0.018
    9        0.000  -0.012   0.000  -0.011
   10        0.000  -0.017  -0.000  -0.017
--------------------------------------------------
tot          0.017  -0.071   1.049   0.995

    CHARGE:  cpu time    2.0120: real time    2.0425
    FORLOC:  cpu time    0.0960: real time    0.0952
    FORNL :  cpu time    6.7200: real time    6.7723
    STRESS:  cpu time   19.8440: real time   20.2214
    FORCOR:  cpu time   51.4120: real time   51.5935
    FORHAR:  cpu time    0.3360: real time    0.3356
    MIXING:  cpu time    0.0440: real time    0.0428
    OFIELD:  cpu time    0.0000: real time    0.0000

  FORCE on cell =-STRESS in cart. coord.  units (eV):
  Direction    XX          YY          ZZ          XY          YZ          ZX
  --------------------------------------------------------------------------------------
  Alpha Z    19.31599    19.31599    19.31599
  Ewald    8069.30972  8069.30704 -9853.69969    -0.00175    -0.00054    -0.00099
  Hartree  8540.49585  8540.49659 -8218.90973    -0.00015     0.00008     0.00013
  E(xc)    -253.66910  -253.66907  -253.08983     0.00001     0.00001     0.00002
  Local  -17492.59406-17492.59306 17156.00618     0.00158     0.00035     0.00066
  n-local   676.65052   676.39490   692.68601    -0.19602     0.23624     0.40371
  augment   -89.65142   -89.65130  -100.79925     0.00087     0.00004     0.00004
  Kinetic   532.09720   528.23911   558.15528    -3.00891     1.31112     1.22226
  Fock        0.00000     0.00000     0.00000     0.00000     0.00000     0.00000
  -------------------------------------------------------------------------------------
  Total      -0.10255    -0.10255    -0.33504     0.00000     0.00000     0.00000
  in kB      -0.19521    -0.19521    -0.63775     0.00000     0.00000     0.00000
  external pressure =       -0.34 kB  Pullay stress =        0.00 kB


 VOLUME and BASIS-vectors are now :
 -----------------------------------------------------------------------------
  energy-cutoff  :      520.00
  volume of cell :      841.70
      direct lattice vectors                 reciprocal lattice vectors
     6.814550157 -0.000000301 -0.000000000     0.146744826 -0.084723166  0.000000000
     3.407274862  5.901573052  0.000000000     0.000000007  0.169446344 -0.000000000
    -0.000000000  0.000000000 20.929195312     0.000000000 -0.000000000  0.047780146

  length of vectors
     6.814550157  6.814549616 20.929195312     0.169446330  0.169446344  0.047780146


 FORCES acting on ions
    electron-ion (+dipol)            ewald-force                    non-local-force                 convergence-correction
 -----------------------------------------------------------------------------------------------
   0.760E-04 0.330E-04 0.608E+01   0.558E-03 0.333E-03 -.628E+01   -.140E-16 0.279E-16 0.211E+00   0.499E-07 0.243E-06 -.115E-01
   -.686E-04 -.295E-04 0.683E+01   -.532E-03 -.319E-03 -.718E+01   -.279E-16 0.259E-18 0.382E+00   0.186E-06 -.340E-06 -.115E-01
   -.407E-04 -.270E-04 0.189E+03   -.142E-03 -.787E-04 -.188E+03   0.734E-17 0.291E-17 -.824E+00   0.642E-08 0.109E-07 0.800E-02
   0.447E-04 0.278E-04 -.242E+03   0.194E-03 0.108E-03 0.241E+03   -.263E-18 -.135E-16 0.538E+00   0.148E-08 0.105E-07 -.196E-01
   -.149E+02 0.929E+00 -.377E+03   0.107E+02 -.765E+00 0.382E+03   0.371E+01 0.134E-01 -.453E+01   -.892E-02 0.123E-01 -.275E-01
   0.828E+01 0.125E+02 -.377E+03   -.603E+01 -.891E+01 0.382E+03   -.184E+01 -.322E+01 -.453E+01   0.151E-01 0.157E-02 -.275E-01
   0.666E+01 -.134E+02 -.377E+03   -.470E+01 0.967E+01 0.382E+03   -.187E+01 0.320E+01 -.453E+01   -.619E-02 -.139E-01 -.275E-01
   0.217E+02 -.621E+00 0.390E+03   -.176E+02 0.743E+00 -.395E+03   -.342E+01 0.430E-01 0.488E+01   0.785E-02 0.119E-01 0.230E-01
   -.114E+02 -.185E+02 0.390E+03   0.942E+01 0.148E+02 -.395E+03   0.175E+01 0.294E+01 0.488E+01   0.640E-02 -.128E-01 0.230E-01
   -.103E+02 0.191E+02 0.390E+03   0.814E+01 -.156E+02 -.395E+03   0.167E+01 -.298E+01 0.488E+01   -.143E-01 0.834E-03 0.230E-01
 -----------------------------------------------------------------------------------------------
   0.895E-04 0.711E-04 -.132E+01   0.355E-14 -.178E-14 -.114E-12   0.888E-15 0.000E+00 0.138E+01   0.279E-06 -.610E-07 -.481E-01


 POSITION                                       TOTAL-FORCE (eV/Angst)
 -----------------------------------------------------------------------------------
      3.40727      1.96719     10.50456        -0.000000     -0.000000     -0.001280
      6.81455      3.93438     10.49447        -0.000000      0.000000      0.014085
     -0.00000      0.00000      9.38080        -0.000000      0.000000      0.109428
     -0.00000      0.00000     11.72060        -0.000000      0.000000      0.023841
      4.26977      0.00248     12.00817        -0.511582      0.190069     -0.036830
      1.27454      2.20261     12.00817         0.420395      0.348009     -0.036830
      4.67752      3.69649     12.00817         0.091187     -0.538078     -0.036830
      5.95205      5.89909      8.92103         0.694444      0.176287     -0.011862
      8.94729      3.69896      8.92103        -0.194553     -0.689550     -0.011862
      5.54430      2.20508      8.92103        -0.499891      0.513263     -0.011862
 -----------------------------------------------------------------------------------
    total drift:                                0.000090      0.000071      0.008434


--------------------------------------------------------------------------------------------------------



  FREE ENERGIE OF THE ION-ELECTRON SYSTEM (eV)
  ---------------------------------------------------
  free  energy   TOTEN  =       -38.51104670 eV

  energy  without entropy=      -38.51104670  energy(sigma->0) =      -38.51104670

 d Force =-0.3611971E-05[-0.409E-05,-0.314E-05]  d Energy = 0.2413380E-03-0.245E-03
 d Force = 0.1280270E-01[ 0.128E-01, 0.128E-01]  d Ewald  =-0.2358322E+02 0.236E+02


--------------------------------------------------------------------------------------------------------


    POTLOK:  cpu time   51.4360: real time   51.6103


--------------------------------------------------------------------------------------------------------




--------------------------------------------------------------------------------------------------------


  
 reached required accuracy - stopping structural energy minimisation
     LOOP+:  cpu time  678.2480: real time  683.8691
    4ORBIT:  cpu time    0.0000: real time    0.0000



 total charge     

# of ion       s       p       d       tot
------------------------------------------
    1        0.349   0.403   6.427   7.179
    2        0.368   0.425   6.339   7.132
    3        1.168   1.179   0.090   2.437
    4        1.074   1.393   0.000   2.467
    5        1.404   1.902   0.052   3.359
    6        1.395   1.902   0.056   3.353
    7        1.401   1.903   0.054   3.358
    8        1.395   1.946   0.045   3.386
    9        1.389   1.952   0.045   3.386
   10        1.394   1.940   0.045   3.379
--------------------------------------------------
tot         11.336  14.946  13.154  39.436



 magnetization (x)

# of ion       s       p       d       tot
------------------------------------------
    1       -0.001   0.004  -0.344  -0.342
    2        0.013   0.010   1.392   1.414
    3       -0.000   0.004   0.000   0.004
    4        0.001   0.004   0.000   0.006
    5        0.001  -0.015   0.000  -0.013
    6        0.000  -0.012   0.000  -0.011
    7        0.001  -0.019   0.001  -0.017
    8        0.001  -0.020   0.000  -0.018
    9        0.000  -0.012   0.000  -0.011
   10        0.000  -0.017  -0.000  -0.017
--------------------------------------------------
tot          0.017  -0.071   1.049   0.995

 BZINTS: Fermi energy: -1.558987; 61.000000 electrons
         Band energy:-378.799420;  BLOECHL correction: -0.004769

 total amount of memory used by VASP MPI-rank0   132085. kBytes
=======================================================================

   base      :      30000. kBytes
   nonlr-proj:       9585. kBytes
   fftplans  :      11247. kBytes
   grid      :      68332. kBytes
   one-center:        311. kBytes
   wavefun   :      12610. kBytes

  
  
 General timing and accounting informations for this job:
 ========================================================
  
                  Total CPU time used (sec):    26417.863
                            User time (sec):    25833.768
                          System time (sec):      584.096
                         Elapsed time (sec):    26638.591
  
                   Maximum memory used (kb):      394492.
                   Average memory used (kb):           0.
  
                          Minor page faults:     16389165
                          Major page faults:            6
                 Voluntary context switches:         1180
