Automatically generated mesh
       5
Reciprocal lattice
    0.00000000000000    0.00000000000000    0.00000000000000             1
    0.20000000000000    0.00000000000000    0.00000000000000             6
    0.40000000000000    0.00000000000000    0.00000000000000             6
    0.40000000000000    0.20000000000000    0.00000000000000             6
   -0.40000000000000    0.20000000000000    0.00000000000000             6
Tetrahedra
        15    0.00666666666667
         6         1         1         2         2
        12         1         2         2         2
        12         2         2         3         4
        12         2         2         2         4
        12         2         3         3         4
        12         2         3         4         4
         6         2         2         4         4
        12         3         3         3         5
        12         3         3         4         5
        12         3         4         4         5
         6         3         3         5         5
        12         3         4         5         5
         6         4         4         5         5
        12         4         5         5         5
         6         5         5         5         5
