       N       E                     dE             d eps       ncg     rms          rms(c)
DAV:   1     0.385336194639E+03    0.38534E+03   -0.16901E+04   960   0.833E+02
DAV:   2     0.143243054159E+01   -0.38390E+03   -0.36779E+03  1536   0.156E+02
DAV:   3    -0.480596630807E+02   -0.49492E+02   -0.48475E+02  1344   0.672E+01
DAV:   4    -0.498845196389E+02   -0.18249E+01   -0.18211E+01  1248   0.173E+01
DAV:   5    -0.499498422905E+02   -0.65323E-01   -0.65317E-01  1368   0.293E+00    0.228E+01
DAV:   6    -0.857771219024E+02   -0.35827E+02   -0.27720E+02  1368   0.685E+01    0.565E+01
DAV:   7    -0.427479793861E+02    0.43029E+02   -0.67509E+01  1152   0.885E+01    0.153E+01
DAV:   8    -0.445754871623E+02   -0.18275E+01   -0.65907E+00  1464   0.992E+00    0.849E+00
DAV:   9    -0.454710635967E+02   -0.89558E+00   -0.67573E+00  1272   0.149E+01    0.379E+00
DAV:  10    -0.458931009805E+02   -0.42204E+00   -0.58704E-01  1512   0.488E+00    0.260E+00
DAV:  11    -0.460935027564E+02   -0.20040E+00   -0.37193E-01  1320   0.512E+00    0.293E+00
DAV:  12    -0.461185320707E+02   -0.25029E-01   -0.40283E-01  1200   0.518E+00    0.245E+00
DAV:  13    -0.463148273393E+02   -0.19630E+00   -0.72597E-02  1272   0.207E+00    0.166E+00
DAV:  14    -0.464290941542E+02   -0.11427E+00   -0.55271E-02  1248   0.134E+00    0.819E-01
DAV:  15    -0.464579532297E+02   -0.28859E-01   -0.47672E-02  1032   0.999E-01    0.565E-01
DAV:  16    -0.464668543277E+02   -0.89011E-02   -0.33597E-02  1200   0.674E-01    0.517E-01
DAV:  17    -0.464731928985E+02   -0.63386E-02   -0.33111E-02  1152   0.649E-01    0.414E-01
DAV:  18    -0.464761705232E+02   -0.29776E-02   -0.25775E-02  1056   0.698E-01    0.254E-01
DAV:  19    -0.464796944636E+02   -0.35239E-02   -0.17844E-02  1008   0.715E-01    0.212E-01
DAV:  20    -0.464813858646E+02   -0.16914E-02   -0.37521E-03   960   0.394E-01    0.138E-01
DAV:  21    -0.464834336170E+02   -0.20478E-02   -0.22165E-03  1008   0.281E-01    0.107E-01
DAV:  22    -0.464857646733E+02   -0.23311E-02   -0.18529E-03   960   0.269E-01    0.759E-02
DAV:  23    -0.464886259366E+02   -0.28613E-02   -0.12227E-03   960   0.211E-01    0.450E-02
DAV:  24    -0.464900235991E+02   -0.13977E-02   -0.25646E-04  1056   0.975E-02    0.207E-02
DAV:  25    -0.464902354754E+02   -0.21188E-03   -0.94007E-05  1008   0.494E-02    0.103E-02
DAV:  26    -0.464905789163E+02   -0.34344E-03   -0.56810E-05   816   0.276E-02    0.441E-03
DAV:  27    -0.464906049129E+02   -0.25997E-04   -0.28943E-05   840   0.192E-02
   1 F= -.46490605E+02 E0= -.46490605E+02  d E =-.464906E+02  mag=     5.2365
       N       E                     dE             d eps       ncg     rms          rms(c)
DAV:   1    -0.629466082269E+02   -0.16456E+02   -0.41190E+02  1320   0.112E+02    0.219E+01
DAV:   2    -0.541079069018E+02    0.88387E+01   -0.45922E+01  1392   0.426E+01    0.136E+01
DAV:   3    -0.529303970363E+02    0.11775E+01   -0.36601E+01  1464   0.638E+01    0.126E+01
DAV:   4    -0.495960625401E+02    0.33343E+01   -0.17705E+01  1464   0.228E+01    0.266E+00
DAV:   5    -0.495588241856E+02    0.37238E-01   -0.69364E-01  1488   0.343E+00    0.109E+00
DAV:   6    -0.495681707065E+02   -0.93465E-02   -0.13719E-01  1224   0.260E+00    0.751E-01
DAV:   7    -0.495699241041E+02   -0.17534E-02   -0.11461E-01  1248   0.300E+00    0.645E-01
DAV:   8    -0.495644890544E+02    0.54350E-02   -0.45837E-02  1128   0.182E+00    0.213E-01
DAV:   9    -0.495659702793E+02   -0.14812E-02   -0.47775E-03  1200   0.363E-01    0.110E-01
DAV:  10    -0.495665655878E+02   -0.59531E-03   -0.17282E-03  1008   0.203E-01    0.881E-02
DAV:  11    -0.495666932353E+02   -0.12765E-03   -0.25167E-03  1080   0.205E-01    0.669E-02
DAV:  12    -0.495656829174E+02    0.10103E-02   -0.36344E-03  1104   0.178E-01    0.673E-02
DAV:  13    -0.495637280906E+02    0.19548E-02   -0.20568E-03  1032   0.130E-01    0.455E-02
DAV:  14    -0.495618670051E+02    0.18611E-02   -0.56116E-04  1128   0.792E-02    0.464E-02
DAV:  15    -0.495605246312E+02    0.13424E-02   -0.10701E-04   936   0.491E-02    0.364E-02
DAV:  16    -0.495589880197E+02    0.15366E-02   -0.10250E-04   864   0.529E-02    0.309E-02
DAV:  17    -0.495569080877E+02    0.20799E-02   -0.31726E-04   960   0.811E-02    0.212E-02
DAV:  18    -0.495565518718E+02    0.35622E-03   -0.37485E-04  1056   0.614E-02    0.136E-02
DAV:  19    -0.495568190879E+02   -0.26722E-03   -0.26796E-04  1032   0.709E-02    0.854E-03
DAV:  20    -0.495571819639E+02   -0.36288E-03   -0.49127E-05   912   0.385E-02    0.570E-03
DAV:  21    -0.495575255826E+02   -0.34362E-03   -0.46573E-05   960   0.258E-02    0.343E-03
DAV:  22    -0.495576266891E+02   -0.10111E-03   -0.26725E-05   984   0.165E-02    0.166E-03
DAV:  23    -0.495576857658E+02   -0.59077E-04   -0.71728E-06   768   0.959E-03
   2 F= -.49557686E+02 E0= -.49557686E+02  d E =-.306708E+01  mag=     5.3160
       N       E                     dE             d eps       ncg     rms          rms(c)
DAV:   1    -0.497849904675E+02   -0.22736E+00   -0.48876E+00  1248   0.123E+01    0.229E+00
DAV:   2    -0.496903110606E+02    0.94679E-01   -0.50212E-01  1272   0.601E+00    0.157E+00
DAV:   3    -0.496585277490E+02    0.31783E-01   -0.35590E-01  1272   0.493E+00    0.119E+00
DAV:   4    -0.496280194374E+02    0.30508E-01   -0.13286E-01  1344   0.308E+00    0.231E-01
DAV:   5    -0.496268441743E+02    0.11753E-02   -0.69093E-03  1344   0.631E-01    0.834E-02
DAV:   6    -0.496265366441E+02    0.30753E-03   -0.56197E-04  1056   0.970E-02    0.493E-02
DAV:   7    -0.496264847921E+02    0.51852E-04   -0.28576E-04   864   0.143E-01
   3 F= -.49626485E+02 E0= -.49626485E+02  d E =-.313588E+01  mag=     5.3357
       N       E                     dE             d eps       ncg     rms          rms(c)
DAV:   1    -0.496772112600E+02   -0.50675E-01   -0.27859E+00  1008   0.542E+00    0.576E-01
DAV:   2    -0.496824551267E+02   -0.52439E-02   -0.15946E-01  1032   0.158E+00    0.315E-01
DAV:   3    -0.496784247228E+02    0.40304E-02   -0.84867E-03  1056   0.585E-01    0.190E-01
DAV:   4    -0.496780291509E+02    0.39557E-03   -0.11976E-02  1248   0.952E-01    0.261E-01
DAV:   5    -0.496765363362E+02    0.14928E-02   -0.62284E-03  1416   0.719E-01    0.559E-02
DAV:   6    -0.496763148238E+02    0.22151E-03   -0.47035E-04   864   0.180E-01    0.498E-02
DAV:   7    -0.496762555073E+02    0.59316E-04   -0.23297E-04   840   0.143E-01
   4 F= -.49676256E+02 E0= -.49676256E+02  d E =-.497707E-01  mag=     5.3655
       N       E                     dE             d eps       ncg     rms          rms(c)
DAV:   1    -0.496865029812E+02   -0.10188E-01   -0.15496E+00   960   0.403E+00    0.428E-01
DAV:   2    -0.496891058739E+02   -0.26029E-02   -0.89346E-02  1008   0.117E+00    0.231E-01
DAV:   3    -0.496866569742E+02    0.24489E-02   -0.40418E-03   960   0.307E-01    0.114E-01
DAV:   4    -0.496860910197E+02    0.56595E-03   -0.25596E-03  1200   0.301E-01    0.953E-02
DAV:   5    -0.496858012119E+02    0.28981E-03   -0.10042E-03  1056   0.275E-01    0.445E-02
DAV:   6    -0.496857654999E+02    0.35712E-04   -0.12315E-04   720   0.933E-02
   5 F= -.49685765E+02 E0= -.49685765E+02  d E =-.592807E-01  mag=     5.3910
       N       E                     dE             d eps       ncg     rms          rms(c)
DAV:   1    -0.497170731191E+02   -0.31272E-01   -0.23282E+00   960   0.610E+00    0.815E-01
DAV:   2    -0.497124476295E+02    0.46255E-02   -0.13702E-01  1128   0.181E+00    0.460E-01
DAV:   3    -0.497106369987E+02    0.18106E-02   -0.29867E-02  1248   0.142E+00    0.438E-01
DAV:   4    -0.497069378903E+02    0.36991E-02   -0.19307E-02  1248   0.123E+00    0.171E-01
DAV:   5    -0.497067513760E+02    0.18651E-03   -0.65816E-03  1200   0.718E-01    0.159E-01
DAV:   6    -0.497063831556E+02    0.36822E-03   -0.23926E-03  1320   0.455E-01    0.403E-02
DAV:   7    -0.497061704873E+02    0.21267E-03   -0.10224E-04   768   0.735E-02    0.212E-02
DAV:   8    -0.497057379154E+02    0.43257E-03   -0.96836E-05   912   0.455E-02    0.146E-02
DAV:   9    -0.497053692940E+02    0.36862E-03   -0.71228E-05   864   0.362E-02    0.134E-02
DAV:  10    -0.497050462896E+02    0.32300E-03   -0.43069E-04   960   0.552E-02    0.127E-02
DAV:  11    -0.497041784299E+02    0.86786E-03   -0.54612E-04  1128   0.498E-02    0.108E-02
DAV:  12    -0.497037092304E+02    0.46920E-03   -0.93494E-05  1080   0.344E-02    0.928E-03
DAV:  13    -0.497037603810E+02   -0.51151E-04   -0.39991E-05   912   0.300E-02
   6 F= -.49703760E+02 E0= -.49703760E+02  d E =-.179949E-01  mag=     5.4079
       N       E                     dE             d eps       ncg     rms          rms(c)
DAV:   1    -0.497042413351E+02   -0.53210E-03   -0.17959E-02  1080   0.531E-01    0.716E-02
DAV:   2    -0.497043213011E+02   -0.79966E-04   -0.10448E-03  1080   0.150E-01    0.385E-02
DAV:   3    -0.497043550743E+02   -0.33773E-04   -0.18934E-04   816   0.116E-01
   7 F= -.49704355E+02 E0= -.49704355E+02  d E =-.185896E-01  mag=     5.4072
       N       E                     dE             d eps       ncg     rms          rms(c)
DAV:   1    -0.497242109674E+02   -0.19890E-01   -0.80303E-01  1224   0.381E+00    0.685E-01
DAV:   2    -0.497170707343E+02    0.71402E-02   -0.71905E-02  1008   0.198E+00    0.545E-01
DAV:   3    -0.497118016644E+02    0.52691E-02   -0.36873E-02  1176   0.173E+00    0.360E-01
DAV:   4    -0.497076297061E+02    0.41720E-02   -0.12850E-02  1272   0.867E-01    0.868E-02
DAV:   5    -0.497073084308E+02    0.32128E-03   -0.17726E-03  1224   0.343E-01    0.839E-02
DAV:   6    -0.497073125744E+02   -0.41436E-05   -0.86360E-04  1272   0.276E-01
   8 F= -.49707313E+02 E0= -.49707313E+02  d E =-.295750E-02  mag=     5.3852
       N       E                     dE             d eps       ncg     rms          rms(c)
DAV:   1    -0.497101757491E+02   -0.28673E-02   -0.18970E-01  1056   0.188E+00    0.327E-01
DAV:   2    -0.497098059726E+02    0.36978E-03   -0.17100E-02  1056   0.985E-01    0.267E-01
DAV:   3    -0.497093705187E+02    0.43545E-03   -0.85379E-03  1368   0.809E-01    0.169E-01
DAV:   4    -0.497091292094E+02    0.24131E-03   -0.29268E-03  1272   0.409E-01    0.350E-02
DAV:   5    -0.497093233211E+02   -0.19411E-03   -0.22584E-04   960   0.107E-01    0.219E-02
DAV:   6    -0.497093944268E+02   -0.71106E-04   -0.10586E-04   936   0.948E-02
   9 F= -.49709394E+02 E0= -.49709394E+02  d E =-.503935E-02  mag=     5.3839
       N       E                     dE             d eps       ncg     rms          rms(c)
DAV:   1    -0.497128773500E+02   -0.35540E-02   -0.17141E-01  1200   0.178E+00    0.315E-01
DAV:   2    -0.497115765967E+02    0.13008E-02   -0.15703E-02  1032   0.943E-01    0.258E-01
DAV:   3    -0.497102185037E+02    0.13581E-02   -0.79992E-03  1272   0.799E-01    0.163E-01
DAV:   4    -0.497093496421E+02    0.86886E-03   -0.26397E-03  1272   0.388E-01    0.346E-02
DAV:   5    -0.497092371060E+02    0.11254E-03   -0.18130E-04  1008   0.957E-02    0.215E-02
DAV:   6    -0.497092606527E+02   -0.23547E-04   -0.11482E-04   744   0.984E-02
  10 F= -.49709261E+02 E0= -.49709261E+02  d E =-.490558E-02  mag=     5.3740
