 vasp.5.4.4.18Apr17-6-g9f103f2a35 (build May  1 2020 15:48:39) complex           
 executed on             LinuxGNU date 2020.06.16  04:52:04
 running on   24 total cores
 distrk:  each k-point on   24 cores,    1 groups
 distr:  one band on NCORES_PER_BAND=   1 cores,   24 groups


--------------------------------------------------------------------------------------------------------


 INCAR:
 POTCAR:   PAW_PBE Cr 06Sep2000                   
 POTCAR:   PAW_PBE Si 05Jan2001                   
 POTCAR:    PAW_PBE P 17Jan2003                   
 POTCAR:   PAW_PBE Se 06Sep2000                   

 ----------------------------------------------------------------------------- 
|                                                                             |
|           W    W    AA    RRRRR   N    N  II  N    N   GGGG   !!!           |
|           W    W   A  A   R    R  NN   N  II  NN   N  G    G  !!!           |
|           W    W  A    A  R    R  N N  N  II  N N  N  G       !!!           |
|           W WW W  AAAAAA  RRRRR   N  N N  II  N  N N  G  GGG   !            |
|           WW  WW  A    A  R   R   N   NN  II  N   NN  G    G                |
|           W    W  A    A  R    R  N    N  II  N    N   GGGG   !!!           |
|                                                                             |
|      For optimal performance we recommend to set                            |
|        NCORE= 4 - approx SQRT( number of cores)                             |
|      NCORE specifies how many cores store one orbital (NPAR=cpu/NCORE).     |
|      This setting can  greatly improve the performance of VASP for DFT.     |
|      The default,   NCORE=1            might be grossly inefficient         |
|      on modern multi-core architectures or massively parallel machines.     |
|      Do your own testing !!!!                                               |
|      Unfortunately you need to use the default for GW and RPA calculations. |
|      (for HF NCORE is supported but not extensively tested yet)             |
|                                                                             |
 ----------------------------------------------------------------------------- 


 ----------------------------------------------------------------------------- 
|                                                                             |
|  ADVICE TO THIS USER RUNNING 'VASP/VAMP'   (HEAR YOUR MASTER'S VOICE ...):  |
|                                                                             |
|      You have switched on vdW-DFT.                                          |
|      This routine was written and supplied by Jiri Klimes.                  |
|      We recommed that you carefully read and cite the following             |
|      publication                                                            |
|      J. Klimes, D.R. Bowler, A. Michelides                                  |
|        J. Phys.: Cond Matt. 22 022201 (2010)                                |
|      J. Klimes, D.R. Bowler, A. Michelides                                  |
|        Phys. Rev. B. 83, 195131 (2011)                                      |
|      and references therein.                                                |
|                                                                             |
 ----------------------------------------------------------------------------- 

 POTCAR:   PAW_PBE Cr 06Sep2000                   
   VRHFIN =Cr : d5 s1                                                           
   LEXCH  = PE                                                                  
   EATOM  =   276.9744 eV,   20.3570 Ry                                         
                                                                                
   TITEL  = PAW_PBE Cr 06Sep2000                                                
   LULTRA =        F    use ultrasoft PP ?                                      
   IUNSCR =        1    unscreen: 0-lin 1-nonlin 2-no                           
   RPACOR =    2.080    partial core radius                                     
   POMASS =   51.996; ZVAL   =    6.000    mass and valenz                      
   RCORE  =    2.500    outmost cutoff radius                                   
   RWIGS  =    2.500; RWIGS  =    1.323    wigner-seitz radius (au A)           
   ENMAX  =  227.082; ENMIN  =  170.311 eV                                      
   RCLOC  =    1.721    cutoff for local pot                                    
   LCOR   =        T    correct aug charges                                     
   LPAW   =        T    paw PP                                                  
   EAUG   =  402.108                                                            
   DEXC   =    -.035                                                            
   RMAX   =    3.060    core radius for proj-oper                               
   RAUG   =    1.300    factor for augmentation sphere                          
   RDEP   =    2.609    radius for radial grids                                 
   QCUT   =   -4.085; QGAM   =    8.171    optimization parameters              
                                                                                
   Description                                                                  
     l     E      TYP  RCUT    TYP  RCUT                                        
     2   .000     23  2.500                                                     
     2   .000     23  2.500                                                     
     0   .000     23  2.500                                                     
     0   .000     23  2.500                                                     
     1  -.400     23  2.500                                                     
     1  2.000     23  2.500                                                     
     3   .000      7   .000                                                     
  local pseudopotential read in
  partial core-charges read in
  atomic valenz-charges read in
  non local Contribution for L=           2  read in
    real space projection operators read in
  non local Contribution for L=           2  read in
    real space projection operators read in
  non local Contribution for L=           0  read in
    real space projection operators read in
  non local Contribution for L=           0  read in
    real space projection operators read in
  non local Contribution for L=           1  read in
    real space projection operators read in
  non local Contribution for L=           1  read in
    real space projection operators read in
    PAW grid and wavefunctions read in

   number of l-projection  operators is LMAX  =           6
   number of lm-projection operators is LMMAX =          18

 POTCAR:   PAW_PBE Si 05Jan2001                   
   VRHFIN =Si: s2p2                                                             
   LEXCH  = PE                                                                  
   EATOM  =   103.0669 eV,    7.5752 Ry                                         
                                                                                
   TITEL  = PAW_PBE Si 05Jan2001                                                
   LULTRA =        F    use ultrasoft PP ?                                      
   IUNSCR =        1    unscreen: 0-lin 1-nonlin 2-no                           
   RPACOR =    1.500    partial core radius                                     
   POMASS =   28.085; ZVAL   =    4.000    mass and valenz                      
   RCORE  =    1.900    outmost cutoff radius                                   
   RWIGS  =    2.480; RWIGS  =    1.312    wigner-seitz radius (au A)           
   ENMAX  =  245.345; ENMIN  =  184.009 eV                                      
   ICORE  =        2    local potential                                         
   LCOR   =        T    correct aug charges                                     
   LPAW   =        T    paw PP                                                  
   EAUG   =  322.069                                                            
   DEXC   =    -.007                                                            
   RMAX   =    2.944    core radius for proj-oper                               
   RAUG   =    1.300    factor for augmentation sphere                          
   RDEP   =    1.993    radius for radial grids                                 
   QCUT   =   -4.246; QGAM   =    8.493    optimization parameters              
                                                                                
   Description                                                                  
     l     E      TYP  RCUT    TYP  RCUT                                        
     0   .000     23  1.900                                                     
     0   .000     23  1.900                                                     
     1   .000     23  1.900                                                     
     1   .000     23  1.900                                                     
     2   .000      7  1.900                                                     
  local pseudopotential read in
  partial core-charges read in
  atomic valenz-charges read in
  non local Contribution for L=           0  read in
    real space projection operators read in
  non local Contribution for L=           0  read in
    real space projection operators read in
  non local Contribution for L=           1  read in
    real space projection operators read in
  non local Contribution for L=           1  read in
    real space projection operators read in
    PAW grid and wavefunctions read in

   number of l-projection  operators is LMAX  =           4
   number of lm-projection operators is LMMAX =           8

 POTCAR:    PAW_PBE P 17Jan2003                   
   VRHFIN =P : s2p3                                                             
   LEXCH  = PE                                                                  
   EATOM  =   176.0430 eV,   12.9388 Ry                                         
                                                                                
   TITEL  = PAW_PBE P 17Jan2003                                                 
   LULTRA =        F    use ultrasoft PP ?                                      
   IUNSCR =        1    unscreen: 0-lin 1-nonlin 2-no                           
   RPACOR =    1.500    partial core radius                                     
   POMASS =   30.974; ZVAL   =    5.000    mass and valenz                      
   RCORE  =    1.900    outmost cutoff radius                                   
   RWIGS  =    2.330; RWIGS  =    1.233    wigner-seitz radius (au A)           
   ENMAX  =  270.000; ENMIN  =  191.280 eV                                      
   ICORE  =        2    local potential                                         
   LCOR   =        T    correct aug charges                                     
   LPAW   =        T    paw PP                                                  
   EAUG   =  342.924                                                            
   DEXC   =    -.002                                                            
   RMAX   =    2.887    core radius for proj-oper                               
   RAUG   =    1.300    factor for augmentation sphere                          
   RDEP   =    1.931    radius for radial grids                                 
   QCUT   =   -4.330; QGAM   =    8.659    optimization parameters              
                                                                                
   Description                                                                  
     l     E      TYP  RCUT    TYP  RCUT                                        
     0   .000     23  1.900                                                     
     0   .000     23  1.900                                                     
     1   .000     23  1.900                                                     
     1   .000     23  1.900                                                     
     2   .000     23  1.900                                                     
  local pseudopotential read in
  partial core-charges read in
  atomic valenz-charges read in
  non local Contribution for L=           0  read in
    real space projection operators read in
  non local Contribution for L=           0  read in
    real space projection operators read in
  non local Contribution for L=           1  read in
    real space projection operators read in
  non local Contribution for L=           1  read in
    real space projection operators read in
    PAW grid and wavefunctions read in

   number of l-projection  operators is LMAX  =           4
   number of lm-projection operators is LMMAX =           8

 POTCAR:   PAW_PBE Se 06Sep2000                   
   VRHFIN =Se: s2p4                                                             
   LEXCH  = PE                                                                  
   EATOM  =   256.9644 eV,   18.8864 Ry                                         
                                                                                
   TITEL  = PAW_PBE Se 06Sep2000                                                
   LULTRA =        F    use ultrasoft PP ?                                      
   IUNSCR =        1    unscreen: 0-lin 1-nonlin 2-no                           
   RPACOR =    1.900    partial core radius                                     
   POMASS =   78.960; ZVAL   =    6.000    mass and valenz                      
   RCORE  =    2.100    outmost cutoff radius                                   
   RWIGS  =    2.200; RWIGS  =    1.164    wigner-seitz radius (au A)           
   ENMAX  =  211.534; ENMIN  =  158.651 eV                                      
   ICORE  =        3    local potential                                         
   LCOR   =        T    correct aug charges                                     
   LPAW   =        T    paw PP                                                  
   EAUG   =  446.842                                                            
   DEXC   =    -.031                                                            
   RMAX   =    3.170    core radius for proj-oper                               
   RAUG   =    1.300    factor for augmentation sphere                          
   RDEP   =    2.177    radius for radial grids                                 
   QCUT   =   -3.943; QGAM   =    7.886    optimization parameters              
                                                                                
   Description                                                                  
     l     E      TYP  RCUT    TYP  RCUT                                        
     0   .000     23  2.100                                                     
     0   .000     23  2.100                                                     
     1   .000     23  2.100                                                     
     1   .000     23  2.100                                                     
     2   .000     23  2.100                                                     
     3  -.100      7  2.100                                                     
  local pseudopotential read in
  partial core-charges read in
  atomic valenz-charges read in
  non local Contribution for L=           0  read in
    real space projection operators read in
  non local Contribution for L=           0  read in
    real space projection operators read in
  non local Contribution for L=           1  read in
    real space projection operators read in
  non local Contribution for L=           1  read in
    real space projection operators read in
  non local Contribution for L=           2  read in
    real space projection operators read in
    PAW grid and wavefunctions read in

   number of l-projection  operators is LMAX  =           5
   number of lm-projection operators is LMMAX =          13

 Optimization of the real space projectors (new method)

 maximal supplied QI-value         = 15.12
 optimisation between [QCUT,QGAM] = [ 11.64, 23.28] = [ 37.95,151.78] Ry 
 Optimized for a Real-space Cutoff    1.49 Angstroem

   l    n(q)    QCUT    max X(q) W(low)/X(q) W(high)/X(q)  e(spline) 
   2      9    11.641     4.777    0.25E-04    0.21E-05    0.63E-07
   2      9    11.641    31.132    0.13E-03    0.22E-03    0.64E-06
   0     10    11.641    20.416    0.11E-04    0.74E-05    0.19E-07
   0     10    11.641    45.408    0.10E-03    0.85E-04    0.30E-06
   1     10    11.641     7.848    0.22E-04    0.23E-04    0.56E-07
   1     10    11.641     9.895    0.85E-04    0.54E-04    0.16E-06
 Optimization of the real space projectors (new method)

 maximal supplied QI-value         = 19.84
 optimisation between [QCUT,QGAM] = [ 11.51, 23.22] = [ 37.09,150.92] Ry 
 Optimized for a Real-space Cutoff    1.21 Angstroem

   l    n(q)    QCUT    max X(q) W(low)/X(q) W(high)/X(q)  e(spline) 
   0      8    11.508     8.708    0.18E-04    0.44E-05    0.47E-08
   0      8    11.508   106.241    0.70E-04    0.15E-03    0.51E-07
   1      8    11.508     5.901    0.63E-05    0.23E-04    0.21E-07
   1      8    11.508    73.241    0.15E-03    0.36E-04    0.79E-07
 Optimization of the real space projectors (new method)

 maximal supplied QI-value         = 19.84
 optimisation between [QCUT,QGAM] = [ 11.51, 23.22] = [ 37.09,150.92] Ry 
 Optimized for a Real-space Cutoff    1.21 Angstroem

   l    n(q)    QCUT    max X(q) W(low)/X(q) W(high)/X(q)  e(spline) 
   0      8    11.508     6.651    0.19E-04    0.31E-05    0.49E-08
   0      8    11.508    90.285    0.95E-04    0.17E-03    0.51E-07
   1      8    11.508     4.328    0.14E-04    0.32E-04    0.22E-07
   1      8    11.508    54.583    0.16E-03    0.71E-04    0.89E-07
 Optimization of the real space projectors (new method)

 maximal supplied QI-value         = 17.95
 optimisation between [QCUT,QGAM] = [ 11.67, 23.34] = [ 38.13,152.52] Ry 
 Optimized for a Real-space Cutoff    1.25 Angstroem

   l    n(q)    QCUT    max X(q) W(low)/X(q) W(high)/X(q)  e(spline) 
   0      9    11.669     6.499    0.13E-04    0.81E-05    0.11E-07
   0      9    11.669    52.623    0.18E-03    0.46E-04    0.72E-07
   1      8    11.669     4.229    0.40E-04    0.45E-04    0.31E-07
   1      8    11.669    29.991    0.22E-03    0.36E-03    0.10E-06
   2      8    11.669     3.719    0.19E-03    0.46E-04    0.50E-07

 ----------------------------------------------------------------------------- 
|                                                                             |
|  ADVICE TO THIS USER RUNNING 'VASP/VAMP'   (HEAR YOUR MASTER'S VOICE ...):  |
|                                                                             |
|      You enforced a specific xc-type in the INCAR file,                     |
|      a different type was found on the POTCAR file                          |
|          I HOPE YOU KNOW, WHAT YOU ARE  DOING                               |
|                                                                             |
 ----------------------------------------------------------------------------- 

 PAW_PBE Cr 06Sep2000                   :
 energy of atom  1       EATOM= -276.9744
 kinetic energy error for atom=    0.0010 (will be added to EATOM!!)
 PAW_PBE Si 05Jan2001                   :
 energy of atom  2       EATOM= -103.0669
 kinetic energy error for atom=    0.0005 (will be added to EATOM!!)
  PAW_PBE P 17Jan2003                   :
 energy of atom  3       EATOM= -176.0430
 kinetic energy error for atom=    0.0011 (will be added to EATOM!!)
 PAW_PBE Se 06Sep2000                   :
 energy of atom  4       EATOM= -256.9644
 kinetic energy error for atom=    0.0007 (will be added to EATOM!!)


 POSCAR: Cr2 Si P Se6                            
  positions in direct lattice
  velocities in cartesian coordinates
  No initial velocities read in
 exchange correlation table for  LEXCH =       42
   RHO(1)=    0.500       N(1)  =     2000
   RHO(2)=  100.500       N(2)  =     4000



--------------------------------------------------------------------------------------------------------


 ion  position               nearest neighbor table
   1  0.333  0.333  0.500-   6 2.78   5 2.78   7 2.78   8 2.78  10 2.78   9 2.78
   2  0.667  0.667  0.500-   9 2.78   8 2.78  10 2.78   5 2.78   7 2.78   6 2.78
   3  0.000  0.000  0.448-   4 2.43   8 2.63  10 2.63   9 2.63
   4  0.000  0.000  0.552-   3 2.43   5 2.63   7 2.63   6 2.63
   5  0.626  0.000  0.574-   4 2.63   1 2.78   2 2.78
   6  0.000  0.373  0.574-   4 2.63   1 2.78   2 2.78
   7  0.373  0.626  0.574-   4 2.63   1 2.78   2 2.78
   8  0.374  1.000  0.426-   3 2.63   2 2.78   1 2.78
   9  1.000  0.627  0.426-   3 2.63   2 2.78   1 2.78
  10  0.627  0.374  0.426-   3 2.63   2 2.78   1 2.78

  LATTYP: Found a hexagonal cell.
 ALAT       =     6.9077769333
 C/A-ratio  =     3.3939410937
  
  Lattice vectors:
  
 A1 = (   3.4538890000,  -5.9823100000,   0.0000000000)
 A2 = (  -6.9077770000,   0.0000000000,   0.0000000000)
 A3 = (   0.0000000000,   0.0000000000, -23.4445880000)


Analysis of symmetry for initial positions (statically):
=====================================================================
 Subroutine PRICEL returns:
 Original cell was already a primitive cell.
 

 Routine SETGRP: Setting up the symmetry group for a 
 hexagonal supercell.


 Subroutine GETGRP returns: Found  3 space group operations
 (whereof  3 operations were pure point group operations)
 out of a pool of 24 trial point group operations.


The static configuration has the point symmetry C_3 .


Analysis of symmetry for dynamics (positions and initial velocities):
=====================================================================
 Subroutine PRICEL returns:
 Original cell was already a primitive cell.
 

 Routine SETGRP: Setting up the symmetry group for a 
 hexagonal supercell.


 Subroutine GETGRP returns: Found  3 space group operations
 (whereof  3 operations were pure point group operations)
 out of a pool of 24 trial point group operations.


The dynamic configuration has the point symmetry C_3 .


Analysis of constrained symmetry for selective dynamics:
=====================================================================
 Subroutine PRICEL returns:
 Original cell was already a primitive cell.
 

 Routine SETGRP: Setting up the symmetry group for a 
 hexagonal supercell.


 Subroutine GETGRP returns: Found  3 space group operations
 (whereof  3 operations were pure point group operations)
 out of a pool of 24 trial point group operations.


The constrained configuration has the point symmetry C_3 .


Analysis of structural, dynamic, and magnetic symmetry:
=====================================================================
 Subroutine PRICEL returns:
 Original cell was already a primitive cell.
 

 Routine SETGRP: Setting up the symmetry group for a 
 hexagonal supercell.


 Subroutine GETGRP returns: Found  3 space group operations
 (whereof  3 operations were pure point group operations)
 out of a pool of 24 trial point group operations.


The magnetic configuration has the point symmetry C_3 .


 Subroutine INISYM returns: Found  3 space group operations
 (whereof  3 operations are pure point group operations),
 and found     1 'primitive' translations



 KPOINTS: Kpoints from vasprun.xml                

Automatic generation of k-mesh.
Space group operators:
 irot       det(A)        alpha          n_x          n_y          n_z        tau_x        tau_y        tau_z
    1     1.000000     0.000000     1.000000     0.000000     0.000000     0.000000     0.000000     0.000000
    2     1.000000   120.000000     0.000000     0.000000     1.000000     0.000000     0.000000     0.000000
    3     1.000000   120.000000     0.000000     0.000000    -1.000000     0.000000     0.000000     0.000000
 
 Subroutine IBZKPT returns following result:
 ===========================================
 
 Found      5 irreducible k-points:
 
 Following reciprocal coordinates:
            Coordinates               Weight
  0.000000  0.000000  0.000000      1.000000
  0.200000  0.000000  0.000000      6.000000
  0.400000  0.000000  0.000000      6.000000
  0.400000  0.200000  0.000000      6.000000
 -0.400000  0.200000  0.000000      6.000000
 
 Following cartesian coordinates:
            Coordinates               Weight
  0.000000  0.000000  0.000000      1.000000
  0.028953 -0.016716  0.000000      6.000000
  0.057906 -0.033432  0.000000      6.000000
  0.057906  0.000000  0.000000      6.000000
 -0.057906  0.066864  0.000000      6.000000
 
 TETIRR: Found     15 inequivalent tetrahedra from      150


--------------------------------------------------------------------------------------------------------




 Dimension of arrays:
   k-points           NKPTS =      5   k-points in BZ     NKDIM =      5   number of bands    NBANDS=     48
   number of dos      NEDOS =    301   number of ions     NIONS =     10
   non local maximal  LDIM  =      6   non local SUM 2l+1 LMDIM =     18
   total plane-waves  NPLWV = 524880
   max r-space proj   IRMAX =   7543   max aug-charges    IRDMAX=  27873
   dimension x,y,z NGX =    54 NGY =   54 NGZ =  180
   dimension x,y,z NGXF=   108 NGYF=  108 NGZF=  360
   support grid    NGXF=   108 NGYF=  108 NGZF=  360
   ions per type =               2   1   1   6
   NGX,Y,Z   is equivalent  to a cutoff of  13.00, 13.00, 12.76 a.u.
   NGXF,Y,Z  is equivalent  to a cutoff of  25.99, 25.99, 25.53 a.u.

 SYSTEM =  unknown system                          
 POSCAR =  Cr2 Si P Se6                            

 Startparameter for this run:
   NWRITE =      2    write-flag & timer
   PREC   = accura    normal or accurate (medium, high low for compatibility)
   ISTART =      0    job   : 0-new  1-cont  2-samecut
   ICHARG =      2    charge: 1-file 2-atom 10-const
   ISPIN  =      2    spin polarized calculation?
   LNONCOLLINEAR =      F non collinear calculations
   LSORBIT =      F    spin-orbit coupling
   INIWAV =      1    electr: 0-lowe 1-rand  2-diag
   LASPH  =      F    aspherical Exc in radial PAW
   METAGGA=      F    non-selfconsistent MetaGGA calc.

 Electronic Relaxation 1
   ENCUT  =  520.0 eV  38.22 Ry    6.18 a.u.  12.84 12.84 43.59*2*pi/ulx,y,z
   ENINI  =  520.0     initial cutoff
   ENAUG  =  446.8 eV  augmentation charge cutoff
   NELM   =    400;   NELMIN=  2; NELMDL=  0     # of ELM steps 
   EDIFF  = 0.1E-03   stopping-criterion for ELM
   LREAL  =      T    real-space projection
   NLSPLINE    = F    spline interpolate recip. space projectors
   LCOMPAT=      F    compatible to vasp.4.4
   GGA_COMPAT  = T    GGA compatible to vasp.4.4-vasp.4.6
   LMAXPAW     = -100 max onsite density
   LMAXMIX     =    2 max onsite mixed and CHGCAR
   VOSKOWN=      0    Vosko Wilk Nusair interpolation
   ROPT   =   -0.00025  -0.00025  -0.00025  -0.00025
 Ionic relaxation
   EDIFFG = 0.1E-02   stopping-criterion for IOM
   NSW    =     99    number of steps for IOM
   NBLOCK =      1;   KBLOCK =     99    inner block; outer block 
   IBRION =      2    ionic relax: 0-MD 1-quasi-New 2-CG
   NFREE  =      1    steps in history (QN), initial steepest desc. (CG)
   ISIF   =      3    stress and relaxation
   IWAVPR =     11    prediction:  0-non 1-charg 2-wave 3-comb
   ISYM   =      2    0-nonsym 1-usesym 2-fastsym
   LCORR  =      T    Harris-Foulkes like correction to forces

   POTIM  = 0.5000    time-step for ionic-motion
   TEIN   =    0.0    initial temperature
   TEBEG  =    0.0;   TEEND  =   0.0 temperature during run
   SMASS  =  -3.00    Nose mass-parameter (am)
   estimated Nose-frequenzy (Omega)   =  0.10E-29 period in steps =****** mass=  -0.109E-26a.u.
   SCALEE = 1.0000    scale energy and forces
   NPACO  =    256;   APACO  = 16.0  distance and # of slots for P.C.
   PSTRESS=    0.0 pullay stress

  Mass of Ions in am
   POMASS =  52.00 28.09 30.97 78.96
  Ionic Valenz
   ZVAL   =   6.00  4.00  5.00  6.00
  Atomic Wigner-Seitz radii
   RWIGS  =  -1.00 -1.00 -1.00 -1.00
  virtual crystal weights 
   VCA    =   1.00  1.00  1.00  1.00
   NELECT =      57.0000    total number of electrons
   NUPDOWN=      -1.0000    fix difference up-down

 DOS related values:
   EMIN   =  10.00;   EMAX   =-10.00  energy-range for DOS
   EFERMI =   0.00
   ISMEAR =    -5;   SIGMA  =   0.05  broadening in eV -4-tet -1-fermi 0-gaus

 Electronic relaxation 2 (details)
   IALGO  =     38    algorithm
   LDIAG  =      T    sub-space diagonalisation (order eigenvalues)
   LSUBROT=      F    optimize rotation matrix (better conditioning)
   TURBO    =      0    0=normal 1=particle mesh
   IRESTART =      0    0=no restart 2=restart with 2 vectors
   NREBOOT  =      0    no. of reboots
   NMIN     =      0    reboot dimension
   EREF     =   0.00    reference energy to select bands
   IMIX   =      4    mixing-type and parameters
     AMIX     =   0.40;   BMIX     =  1.00
     AMIX_MAG =   1.60;   BMIX_MAG =  1.00
     AMIN     =   0.01
     WC   =   100.;   INIMIX=   1;  MIXPRE=   1;  MAXMIX= -45

 Intra band minimization:
   WEIMIN = 0.0010     energy-eigenvalue tresh-hold
   EBREAK =  0.52E-06  absolut break condition
   DEPER  =   0.30     relativ break condition  

   TIME   =   0.40     timestep for ELM

  volume/ion in A,a.u.               =      96.88       653.80
  Fermi-wavevector in a.u.,A,eV,Ry     =   0.636722  1.203230  5.516004  0.405415
  Thomas-Fermi vector in A             =   1.701488

 Write flags
   LWAVE        =      F    write WAVECAR
   LDOWNSAMPLE  =      F    k-point downsampling of WAVECAR
   LCHARG       =      T    write CHGCAR
   LVTOT        =      F    write LOCPOT, total local potential
   LVHAR        =      F    write LOCPOT, Hartree potential only
   LELF         =      F    write electronic localiz. function (ELF)
   LORBIT       =     11    0 simple, 1 ext, 2 COOP (PROOUT), +10 PAW based schemes


 Dipole corrections
   LMONO  =      F    monopole corrections only (constant potential shift)
   LDIPOL =      F    correct potential (dipole corrections)
   IDIPOL =      0    1-x, 2-y, 3-z, 4-all directions 
   EPSILON=  1.0000000 bulk dielectric constant

 Exchange correlation treatment:
   GGA     =    BO    GGA type
   LEXCH   =    42    internal setting for exchange type
   VOSKOWN=      0    Vosko Wilk Nusair interpolation
   LHFCALC =     F    Hartree Fock is set to
   LHFONE  =     F    Hartree Fock one center treatment
   AEXX    =    0.0000 exact exchange contribution

 vdW DFT:
   LUSE_VDW   =     T    switch on vdW DFT
   Zab_VDW    =-.8491    correlation parameter
   PARAM1     =0.1833
   PARAM2     =0.2200
   PARAM3     =0.0000
   -- rVV10 --
   BPARAM     = 6.3000
   CPARAM     = 0.0093

 Linear response parameters
   LEPSILON=     F    determine dielectric tensor
   LRPA    =     F    only Hartree local field effects (RPA)
   LNABLA  =     F    use nabla operator in PAW spheres
   LVEL    =     F    velocity operator in full k-point grid
   LINTERFAST=   F  fast interpolation
   KINTER  =     0    interpolate to denser k-point grid
   CSHIFT  =0.1000    complex shift for real part using Kramers Kronig
   OMEGAMAX=  -1.0    maximum frequency
   DEG_THRESHOLD= 0.2000000E-02 threshold for treating states as degnerate
   RTIME   =   -0.100 relaxation time in fs
  (WPLASMAI=    0.000 imaginary part of plasma frequency in eV, 0.658/RTIME)
   DFIELD  = 0.0000000 0.0000000 0.0000000 field for delta impulse in time

 Orbital magnetization related:
   ORBITALMAG=     F  switch on orbital magnetization
   LCHIMAG   =     F  perturbation theory with respect to B field
   DQ        =  0.001000  dq finite difference perturbation B field
   LLRAUG    =     F  two centre corrections for induced B field



--------------------------------------------------------------------------------------------------------


 conjugate gradient relaxation of ions
   using selective dynamics as specified on POSCAR
 charge density and potential will be updated during run
 spin polarized calculation
 Variant of blocked Davidson
 Davidson routine will perform the subspace rotation
 perform sub-space diagonalisation
    after iterative eigenvector-optimisation
 modified Broyden-mixing scheme, WC =      100.0
 initial mixing is a Kerker type mixing with AMIX =  0.4000 and BMIX =      1.0000
 Hartree-type preconditioning will be used
 using additional bands           19
 real space projection scheme for non local part
 use partial core corrections
 calculate Harris-corrections to forces   (improved forces if not selfconsistent)
 use gradient corrections 
 use of overlap-Matrix (Vanderbilt PP)
 Fermi weights with tetrahedron method with Bloechl corrections


--------------------------------------------------------------------------------------------------------


  energy-cutoff  :      520.00
  volume of cell :      968.84
      direct lattice vectors                 reciprocal lattice vectors
     6.907777000 -0.000000000  0.000000000     0.144764372 -0.083579742  0.000000000
     3.453888000  5.982310000  0.000000000     0.000000000  0.167159509 -0.000000000
     0.000000000  0.000000000 23.444588000    -0.000000000  0.000000000  0.042653767

  length of vectors
     6.907777000  6.907776433 23.444588000     0.167159495  0.167159509  0.042653767



 k-points in units of 2pi/SCALE and weight: Kpoints from vasprun.xml                
   0.00000000  0.00000000  0.00000000       0.040
   0.02895287 -0.01671595  0.00000000       0.240
   0.05790575 -0.03343190  0.00000000       0.240
   0.05790575  0.00000000  0.00000000       0.240
  -0.05790575  0.06686380  0.00000000       0.240

 k-points in reciprocal lattice and weights: Kpoints from vasprun.xml                
   0.00000000  0.00000000  0.00000000       0.040
   0.20000000  0.00000000  0.00000000       0.240
   0.40000000  0.00000000  0.00000000       0.240
   0.40000000  0.20000000  0.00000000       0.240
  -0.40000000  0.20000000  0.00000000       0.240

 position of ions in fractional coordinates (direct lattice) 
   0.33333300  0.33333300  0.49992500
   0.66666700  0.66666700  0.50007500
   0.00000000  0.00000000  0.44821600
   0.00000000  0.00000000  0.55178400
   0.62635700  0.00042000  0.57375200
   0.00042000  0.37322400  0.57375200
   0.37322400  0.62635700  0.57375200
   0.37364300  0.99958000  0.42624800
   0.99958000  0.62677600  0.42624800
   0.62677600  0.37364300  0.42624800

 position of ions in cartesian coordinates  (Angst):
   3.45388488  1.99410134 11.72053566
   6.90778012  3.98820866 11.72405234
   0.00000000  0.00000000 10.50823946
   0.00000000  0.00000000 12.93634854
   4.32818511  0.00251257 13.45137925
   1.29197516  2.23274167 13.45137925
   4.74151509  3.74706174 13.45137925
   6.03347989  5.97979743  9.99320875
   9.06968984  3.74956833  9.99320875
   5.62014991  2.23524826  9.99320875



--------------------------------------------------------------------------------------------------------


 k-point  1 :   0.0000 0.0000 0.0000  plane waves:   26073
 k-point  2 :   0.2000 0.0000 0.0000  plane waves:   26070
 k-point  3 :   0.4000 0.0000 0.0000  plane waves:   26086
 k-point  4 :   0.4000 0.2000 0.0000  plane waves:   26085
 k-point  5 :  -0.4000 0.2000 0.0000  plane waves:   26115

 maximum and minimum number of plane-waves per node :     26115    26070

 maximum number of plane-waves:     26115
 maximum index in each direction: 
   IXMAX=   13   IYMAX=   12   IZMAX=   43
   IXMIN=  -13   IYMIN=  -13   IZMIN=  -43


 serial   3D FFT for wavefunctions
 parallel 3D FFT for charge:
    minimum data exchange during FFTs selected (reduces bandwidth)


 total amount of memory used by VASP MPI-rank0   115162. kBytes
=======================================================================

   base      :      30000. kBytes
   nonlr-proj:       7052. kBytes
   fftplans  :       8558. kBytes
   grid      :      60832. kBytes
   one-center:        311. kBytes
   wavefun   :       8409. kBytes

     INWAV:  cpu time    0.0000: real time    0.0122
 Broyden mixing: mesh for mixing (old mesh)
   NGX = 25   NGY = 25   NGZ = 87
  (NGX  =108   NGY  =108   NGZ  =360)
  gives a total of  54375 points

 initial charge density was supplied:
 charge density of overlapping atoms calculated
 number of electron      57.0000000 magnetization      14.8000000
 keeping initial charge density in first step


--------------------------------------------------------------------------------------------------------


 Maximum index for non-local projection operator         7247
 Maximum index for augmentation-charges         1427 (set IRDMAX)


--------------------------------------------------------------------------------------------------------


 First call to EWALD:  gamma=   0.179
 Maximum number of real-space cells 4x 4x 1
 Maximum number of reciprocal cells 2x 2x 6

    FEWALD:  cpu time    0.0040: real time    0.0034


--------------------------------------- Iteration      1(   1)  ---------------------------------------


vdW kernel read from vdw_kernel.bindat
  0.0000  0.2424  0.5071  0.7962  1.1119  1.4567  1.8333  2.2446  2.6937  3.1842
  3.7199  4.3049  4.9438  5.6415  6.4036  7.2358  8.1446  9.1372 10.2212 11.4050
 12.6979 14.1099 15.6519 17.3360 19.1751 21.1837 23.3773 25.7729 28.3892 31.2465
 34.3669 37.7748 41.4965 45.5611 50.0000

    POTLOK:  cpu time   39.9400: real time   61.0748
    SETDIJ:  cpu time    0.0560: real time    0.0788
     EDDAV:  cpu time   20.7720: real time   31.4903
 BZINTS: Fermi energy:  5.185289; 57.000000 electrons
         Band energy: -38.732991;  BLOECHL correction: -0.050496
       DOS:  cpu time    0.0080: real time    0.0117
    --------------------------------------------
      LOOP:  cpu time   60.7760: real time   92.6556

 eigenvalue-minimisations  :   960
 total energy-change (2. order) : 0.3853362E+03  (-0.1690099E+04)
 number of electron      57.0000000 magnetization      14.8000000
 augmentation part       57.0000000 magnetization      14.8000000

 Free energy of the ion-electron system (eV)
  ---------------------------------------------------
  alpha Z        PSCENC =        30.28140400
  Ewald energy   TEWEN  =      6221.61188061
  -Hartree energ DENC   =     -8316.22053951
  -exchange      EXHF   =         0.00000000
  -V(xc)+E(xc)   XCENC  =       -53.67698187
  PAW double counting   =      1164.73594949    -1009.14191411
  entropy T*S    EENTRO =         0.00000000
  eigenvalues    EBANDS =       -38.73299092
  atomic energy  EATOM  =      2386.47938694
  Solvation  Ediel_sol  =         0.00000000
  ---------------------------------------------------
  free energy    TOTEN  =       385.33619464 eV

  energy without entropy =      385.33619464  energy(sigma->0) =      385.33619464


--------------------------------------------------------------------------------------------------------




--------------------------------------- Iteration      1(   2)  ---------------------------------------


     EDDAV:  cpu time   28.8720: real time   43.7880
 BZINTS: Fermi energy: -1.789980; 57.000000 electrons
         Band energy:-422.636755;  BLOECHL correction: -0.069289
       DOS:  cpu time    0.0040: real time    0.0083
    --------------------------------------------
      LOOP:  cpu time   28.8760: real time   43.7963

 eigenvalue-minimisations  :  1536
 total energy-change (2. order) :-0.3839038E+03  (-0.3677913E+03)
 number of electron      57.0000000 magnetization      14.8000000
 augmentation part       57.0000000 magnetization      14.8000000

 Free energy of the ion-electron system (eV)
  ---------------------------------------------------
  alpha Z        PSCENC =        30.28140400
  Ewald energy   TEWEN  =      6221.61188061
  -Hartree energ DENC   =     -8316.22053951
  -exchange      EXHF   =         0.00000000
  -V(xc)+E(xc)   XCENC  =       -53.67698187
  PAW double counting   =      1164.73594949    -1009.14191411
  entropy T*S    EENTRO =         0.00000000
  eigenvalues    EBANDS =      -422.63675502
  atomic energy  EATOM  =      2386.47938694
  Solvation  Ediel_sol  =         0.00000000
  ---------------------------------------------------
  free energy    TOTEN  =         1.43243054 eV

  energy without entropy =        1.43243054  energy(sigma->0) =        1.43243054


--------------------------------------------------------------------------------------------------------




--------------------------------------- Iteration      1(   3)  ---------------------------------------


     EDDAV:  cpu time   25.8600: real time   39.1981
 BZINTS: Fermi energy: -2.759404; 57.000000 electrons
         Band energy:-472.128849;  BLOECHL correction: -0.004273
       DOS:  cpu time    0.0040: real time    0.0128
    --------------------------------------------
      LOOP:  cpu time   25.8640: real time   39.2109

 eigenvalue-minimisations  :  1344
 total energy-change (2. order) :-0.4949209E+02  (-0.4847501E+02)
 number of electron      57.0000000 magnetization      14.8000000
 augmentation part       57.0000000 magnetization      14.8000000

 Free energy of the ion-electron system (eV)
  ---------------------------------------------------
  alpha Z        PSCENC =        30.28140400
  Ewald energy   TEWEN  =      6221.61188061
  -Hartree energ DENC   =     -8316.22053951
  -exchange      EXHF   =         0.00000000
  -V(xc)+E(xc)   XCENC  =       -53.67698187
  PAW double counting   =      1164.73594949    -1009.14191411
  entropy T*S    EENTRO =         0.00000000
  eigenvalues    EBANDS =      -472.12884864
  atomic energy  EATOM  =      2386.47938694
  Solvation  Ediel_sol  =         0.00000000
  ---------------------------------------------------
  free energy    TOTEN  =       -48.05966308 eV

  energy without entropy =      -48.05966308  energy(sigma->0) =      -48.05966308


--------------------------------------------------------------------------------------------------------




--------------------------------------- Iteration      1(   4)  ---------------------------------------


     EDDAV:  cpu time   23.7600: real time   37.4331
 BZINTS: Fermi energy: -2.767474; 57.000000 electrons
         Band energy:-473.953705;  BLOECHL correction: -0.003648
       DOS:  cpu time    0.0080: real time    0.0161
    --------------------------------------------
      LOOP:  cpu time   23.7680: real time   37.4492

 eigenvalue-minimisations  :  1248
 total energy-change (2. order) :-0.1824857E+01  (-0.1821069E+01)
 number of electron      57.0000000 magnetization      14.8000000
 augmentation part       57.0000000 magnetization      14.8000000

 Free energy of the ion-electron system (eV)
  ---------------------------------------------------
  alpha Z        PSCENC =        30.28140400
  Ewald energy   TEWEN  =      6221.61188061
  -Hartree energ DENC   =     -8316.22053951
  -exchange      EXHF   =         0.00000000
  -V(xc)+E(xc)   XCENC  =       -53.67698187
  PAW double counting   =      1164.73594949    -1009.14191411
  entropy T*S    EENTRO =         0.00000000
  eigenvalues    EBANDS =      -473.95370520
  atomic energy  EATOM  =      2386.47938694
  Solvation  Ediel_sol  =         0.00000000
  ---------------------------------------------------
  free energy    TOTEN  =       -49.88451964 eV

  energy without entropy =      -49.88451964  energy(sigma->0) =      -49.88451964


--------------------------------------------------------------------------------------------------------




--------------------------------------- Iteration      1(   5)  ---------------------------------------


     EDDAV:  cpu time   25.7840: real time   39.6702
 BZINTS: Fermi energy: -2.767634; 57.000000 electrons
         Band energy:-474.019028;  BLOECHL correction: -0.003625
       DOS:  cpu time    0.0080: real time    0.0074
    CHARGE:  cpu time    1.7160: real time    2.4015
    MIXING:  cpu time    0.0640: real time    0.0621
    --------------------------------------------
      LOOP:  cpu time   27.5720: real time   42.1412

 eigenvalue-minimisations  :  1368
 total energy-change (2. order) :-0.6532265E-01  (-0.6531739E-01)
 number of electron      56.9999995 magnetization      13.7492563
 augmentation part       -5.1759815 magnetization      11.3691679

 Broyden mixing:
  rms(total) = 0.22788E+01    rms(broyden)= 0.22788E+01
  rms(prec ) = 0.24608E+01
  weight for this iteration     100.00

 Free energy of the ion-electron system (eV)
  ---------------------------------------------------
  alpha Z        PSCENC =        30.28140400
  Ewald energy   TEWEN  =      6221.61188061
  -Hartree energ DENC   =     -8316.22053951
  -exchange      EXHF   =         0.00000000
  -V(xc)+E(xc)   XCENC  =       -53.67698187
  PAW double counting   =      1164.73594949    -1009.14191411
  entropy T*S    EENTRO =         0.00000000
  eigenvalues    EBANDS =      -474.01902785
  atomic energy  EATOM  =      2386.47938694
  Solvation  Ediel_sol  =         0.00000000
  ---------------------------------------------------
  free energy    TOTEN  =       -49.94984229 eV

  energy without entropy =      -49.94984229  energy(sigma->0) =      -49.94984229


--------------------------------------------------------------------------------------------------------




--------------------------------------- Iteration      1(   6)  ---------------------------------------


    POTLOK:  cpu time   39.8560: real time   59.3950
    SETDIJ:  cpu time    0.0200: real time    0.0641
     EDDAV:  cpu time   26.6640: real time   39.8647
 BZINTS: Fermi energy: -4.946214; 57.000000 electrons
         Band energy:-550.929237;  BLOECHL correction: -0.021564
       DOS:  cpu time    0.0080: real time    0.0072
    CHARGE:  cpu time    1.3480: real time    2.3460
    MIXING:  cpu time    0.0320: real time    0.0602
    --------------------------------------------
      LOOP:  cpu time   67.9280: real time  101.7372

 eigenvalue-minimisations  :  1368
 total energy-change (2. order) :-0.3582728E+02  (-0.2771974E+02)
 number of electron      56.9999993 magnetization      13.4732769
 augmentation part        7.1113455 magnetization      10.0946699

 Broyden mixing:
  rms(total) = 0.56532E+01    rms(broyden)= 0.56531E+01
  rms(prec ) = 0.63537E+01
  weight for this iteration     100.00

 eigenvalues of (default mixing * dielectric matrix)
  average eigenvalue GAMMA=   0.2639
  0.2639

 Free energy of the ion-electron system (eV)
  ---------------------------------------------------
  alpha Z        PSCENC =        30.28140400
  Ewald energy   TEWEN  =      6221.61188061
  -Hartree energ DENC   =     -8281.18631871
  -exchange      EXHF   =         0.00000000
  -V(xc)+E(xc)   XCENC  =       -55.45072016
  PAW double counting   =      1121.66375428     -958.24727147
  entropy T*S    EENTRO =         0.00000000
  eigenvalues    EBANDS =      -550.92923740
  atomic energy  EATOM  =      2386.47938694
  Solvation  Ediel_sol  =         0.00000000
  ---------------------------------------------------
  free energy    TOTEN  =       -85.77712190 eV

  energy without entropy =      -85.77712190  energy(sigma->0) =      -85.77712190


--------------------------------------------------------------------------------------------------------




--------------------------------------- Iteration      1(   7)  ---------------------------------------


    POTLOK:  cpu time   39.3280: real time   59.4528
    SETDIJ:  cpu time    0.0400: real time    0.0487
     EDDAV:  cpu time   22.6280: real time   34.6347
 BZINTS: Fermi energy: -3.389889; 57.000000 electrons
         Band energy:-468.028410;  BLOECHL correction: -0.007944
       DOS:  cpu time    0.0040: real time    0.0064
    CHARGE:  cpu time    1.4320: real time    2.2641
    MIXING:  cpu time    0.0280: real time    0.0617
    --------------------------------------------
      LOOP:  cpu time   63.4600: real time   96.4684

 eigenvalue-minimisations  :  1152
 total energy-change (2. order) : 0.4302914E+02  (-0.6750917E+01)
 number of electron      56.9999994 magnetization      13.0541768
 augmentation part       -3.3822326 magnetization       9.6383233

 Broyden mixing:
  rms(total) = 0.15280E+01    rms(broyden)= 0.15279E+01
  rms(prec ) = 0.15686E+01
  weight for this iteration     100.00

 eigenvalues of (default mixing * dielectric matrix)
  average eigenvalue GAMMA=   0.3885
  0.5692  0.2077

 Free energy of the ion-electron system (eV)
  ---------------------------------------------------
  alpha Z        PSCENC =        30.28140400
  Ewald energy   TEWEN  =      6221.61188061
  -Hartree energ DENC   =     -8312.85649983
  -exchange      EXHF   =         0.00000000
  -V(xc)+E(xc)   XCENC  =       -56.21903854
  PAW double counting   =      1182.92653451    -1026.94323726
  entropy T*S    EENTRO =         0.00000000
  eigenvalues    EBANDS =      -468.02840982
  atomic energy  EATOM  =      2386.47938694
  Solvation  Ediel_sol  =         0.00000000
  ---------------------------------------------------
  free energy    TOTEN  =       -42.74797939 eV

  energy without entropy =      -42.74797939  energy(sigma->0) =      -42.74797939


--------------------------------------------------------------------------------------------------------




--------------------------------------- Iteration      1(   8)  ---------------------------------------


    POTLOK:  cpu time   37.9200: real time   59.8363
    SETDIJ:  cpu time    0.0520: real time    0.0677
     EDDAV:  cpu time   27.9360: real time   42.2314
 BZINTS: Fermi energy: -3.523078; 57.000000 electrons
         Band energy:-472.508251;  BLOECHL correction:  0.000000
       DOS:  cpu time    0.0080: real time    0.0161
    CHARGE:  cpu time    1.3840: real time    2.3060
    MIXING:  cpu time    0.0600: real time    0.0603
    --------------------------------------------
      LOOP:  cpu time   67.3600: real time  104.5179

 eigenvalue-minimisations  :  1464
 total energy-change (2. order) :-0.1827508E+01  (-0.6590664E+00)
 number of electron      56.9999994 magnetization      12.0936539
 augmentation part       -2.9238136 magnetization       8.8316149

 Broyden mixing:
  rms(total) = 0.84913E+00    rms(broyden)= 0.84912E+00
  rms(prec ) = 0.87248E+00
  weight for this iteration     100.00

 eigenvalues of (default mixing * dielectric matrix)
  average eigenvalue GAMMA=   0.6208
  0.2213  0.8205  0.8205

 Free energy of the ion-electron system (eV)
  ---------------------------------------------------
  alpha Z        PSCENC =        30.28140400
  Ewald energy   TEWEN  =      6221.61188061
  -Hartree energ DENC   =     -8310.42924290
  -exchange      EXHF   =         0.00000000
  -V(xc)+E(xc)   XCENC  =       -56.06361234
  PAW double counting   =      1180.27805159    -1024.22510395
  entropy T*S    EENTRO =         0.00000000
  eigenvalues    EBANDS =      -472.50825111
  atomic energy  EATOM  =      2386.47938694
  Solvation  Ediel_sol  =         0.00000000
  ---------------------------------------------------
  free energy    TOTEN  =       -44.57548716 eV

  energy without entropy =      -44.57548716  energy(sigma->0) =      -44.57548716


--------------------------------------------------------------------------------------------------------




--------------------------------------- Iteration      1(   9)  ---------------------------------------


    POTLOK:  cpu time   38.5680: real time   58.9013
    SETDIJ:  cpu time    0.0240: real time    0.0571
     EDDAV:  cpu time   25.1920: real time   37.3351
 BZINTS: Fermi energy: -3.582986; 57.000000 electrons
         Band energy:-473.108615;  BLOECHL correction:  0.000000
       DOS:  cpu time    0.0000: real time    0.0162
    CHARGE:  cpu time    1.3560: real time    2.1920
    MIXING:  cpu time    0.0280: real time    0.0549
    --------------------------------------------
      LOOP:  cpu time   65.1680: real time   98.5566

 eigenvalue-minimisations  :  1272
 total energy-change (2. order) :-0.8955764E+00  (-0.6757335E+00)
 number of electron      56.9999994 magnetization      11.1014918
 augmentation part       -2.4233995 magnetization       8.4230609

 Broyden mixing:
  rms(total) = 0.37886E+00    rms(broyden)= 0.37885E+00
  rms(prec ) = 0.38326E+00
  weight for this iteration     100.00

 eigenvalues of (default mixing * dielectric matrix)
  average eigenvalue GAMMA=   0.7772
  0.2197  1.1299  1.1299  0.6295

 Free energy of the ion-electron system (eV)
  ---------------------------------------------------
  alpha Z        PSCENC =        30.28140400
  Ewald energy   TEWEN  =      6221.61188061
  -Hartree energ DENC   =     -8312.20124280
  -exchange      EXHF   =         0.00000000
  -V(xc)+E(xc)   XCENC  =       -54.39263463
  PAW double counting   =      1189.26848339    -1033.40972588
  entropy T*S    EENTRO =         0.00000000
  eigenvalues    EBANDS =      -473.10861523
  atomic energy  EATOM  =      2386.47938694
  Solvation  Ediel_sol  =         0.00000000
  ---------------------------------------------------
  free energy    TOTEN  =       -45.47106360 eV

  energy without entropy =      -45.47106360  energy(sigma->0) =      -45.47106360


--------------------------------------------------------------------------------------------------------




--------------------------------------- Iteration      1(  10)  ---------------------------------------


    POTLOK:  cpu time   40.1880: real time   59.5499
    SETDIJ:  cpu time    0.0240: real time    0.0640
     EDDAV:  cpu time   28.6840: real time   42.8957
 BZINTS: Fermi energy: -3.577690; 57.000000 electrons
         Band energy:-472.825523;  BLOECHL correction:  0.000000
       DOS:  cpu time    0.0040: real time    0.0162
    CHARGE:  cpu time    1.6080: real time    2.3051
    MIXING:  cpu time    0.0360: real time    0.0787
    --------------------------------------------
      LOOP:  cpu time   70.5440: real time  104.9096

 eigenvalue-minimisations  :  1512
 total energy-change (2. order) :-0.4220374E+00  (-0.5870381E-01)
 number of electron      56.9999994 magnetization      10.3597483
 augmentation part       -2.1433136 magnetization       7.9965595

 Broyden mixing:
  rms(total) = 0.26002E+00    rms(broyden)= 0.26001E+00
  rms(prec ) = 0.26499E+00
  weight for this iteration     100.00

 eigenvalues of (default mixing * dielectric matrix)
  average eigenvalue GAMMA=   0.9467
  2.0785  0.2198  0.8981  0.8981  0.6392

 Free energy of the ion-electron system (eV)
  ---------------------------------------------------
  alpha Z        PSCENC =        30.28140400
  Ewald energy   TEWEN  =      6221.61188061
  -Hartree energ DENC   =     -8313.61747027
  -exchange      EXHF   =         0.00000000
  -V(xc)+E(xc)   XCENC  =       -53.04654120
  PAW double counting   =      1190.57526656    -1035.35150418
  entropy T*S    EENTRO =         0.00000000
  eigenvalues    EBANDS =      -472.82552343
  atomic energy  EATOM  =      2386.47938694
  Solvation  Ediel_sol  =         0.00000000
  ---------------------------------------------------
  free energy    TOTEN  =       -45.89310098 eV

  energy without entropy =      -45.89310098  energy(sigma->0) =      -45.89310098


--------------------------------------------------------------------------------------------------------




--------------------------------------- Iteration      1(  11)  ---------------------------------------


    POTLOK:  cpu time   38.9520: real time   59.0198
    SETDIJ:  cpu time    0.0320: real time    0.0708
     EDDAV:  cpu time   25.4040: real time   38.5322
 BZINTS: Fermi energy: -3.563525; 57.000000 electrons
         Band energy:-472.753989;  BLOECHL correction:  0.000000
       DOS:  cpu time    0.0040: real time    0.0181
    CHARGE:  cpu time    1.4760: real time    2.2061
    MIXING:  cpu time    0.0280: real time    0.0557
    --------------------------------------------
      LOOP:  cpu time   65.8960: real time   99.9027

 eigenvalue-minimisations  :  1320
 total energy-change (2. order) :-0.2004018E+00  (-0.3719330E-01)
 number of electron      56.9999994 magnetization       9.9098872
 augmentation part       -2.1081556 magnetization       7.6505196

 Broyden mixing:
  rms(total) = 0.29311E+00    rms(broyden)= 0.29311E+00
  rms(prec ) = 0.30301E+00
  weight for this iteration     100.00

 eigenvalues of (default mixing * dielectric matrix)
  average eigenvalue GAMMA=   0.9319
  2.5356  0.9290  0.9290  0.6307  0.2198  0.3473

 Free energy of the ion-electron system (eV)
  ---------------------------------------------------
  alpha Z        PSCENC =        30.28140400
  Ewald energy   TEWEN  =      6221.61188061
  -Hartree energ DENC   =     -8314.22991723
  -exchange      EXHF   =         0.00000000
  -V(xc)+E(xc)   XCENC  =       -52.58097377
  PAW double counting   =      1191.08682514    -1035.98811938
  entropy T*S    EENTRO =         0.00000000
  eigenvalues    EBANDS =      -472.75398907
  atomic energy  EATOM  =      2386.47938694
  Solvation  Ediel_sol  =         0.00000000
  ---------------------------------------------------
  free energy    TOTEN  =       -46.09350276 eV

  energy without entropy =      -46.09350276  energy(sigma->0) =      -46.09350276


--------------------------------------------------------------------------------------------------------




--------------------------------------- Iteration      1(  12)  ---------------------------------------


    POTLOK:  cpu time   40.5520: real time   59.8191
    SETDIJ:  cpu time    0.0680: real time    0.0728
     EDDAV:  cpu time   23.2160: real time   35.2819
 BZINTS: Fermi energy: -3.563485; 57.000000 electrons
         Band energy:-472.575584;  BLOECHL correction:  0.000000
       DOS:  cpu time    0.0040: real time    0.0020
    CHARGE:  cpu time    1.5320: real time    2.3069
    MIXING:  cpu time    0.0280: real time    0.0585
    --------------------------------------------
      LOOP:  cpu time   65.4000: real time   97.5413

 eigenvalue-minimisations  :  1200
 total energy-change (2. order) :-0.2502931E-01  (-0.4028277E-01)
 number of electron      56.9999994 magnetization       8.8266302
 augmentation part       -2.1203349 magnetization       6.5759901

 Broyden mixing:
  rms(total) = 0.24479E+00    rms(broyden)= 0.24479E+00
  rms(prec ) = 0.25000E+00
  weight for this iteration     100.00

 eigenvalues of (default mixing * dielectric matrix)
  average eigenvalue GAMMA=   1.0581
  3.1347  1.1818  1.1818  0.6885  0.6885  0.2198  0.3115

 Free energy of the ion-electron system (eV)
  ---------------------------------------------------
  alpha Z        PSCENC =        30.28140400
  Ewald energy   TEWEN  =      6221.61188061
  -Hartree energ DENC   =     -8314.37896012
  -exchange      EXHF   =         0.00000000
  -V(xc)+E(xc)   XCENC  =       -52.57527204
  PAW double counting   =      1190.68624549    -1035.64763307
  entropy T*S    EENTRO =         0.00000000
  eigenvalues    EBANDS =      -472.57558389
  atomic energy  EATOM  =      2386.47938694
  Solvation  Ediel_sol  =         0.00000000
  ---------------------------------------------------
  free energy    TOTEN  =       -46.11853207 eV

  energy without entropy =      -46.11853207  energy(sigma->0) =      -46.11853207


--------------------------------------------------------------------------------------------------------




--------------------------------------- Iteration      1(  13)  ---------------------------------------


    POTLOK:  cpu time   38.3200: real time   58.9787
    SETDIJ:  cpu time    0.0680: real time    0.0693
     EDDAV:  cpu time   24.5560: real time   37.3101
 BZINTS: Fermi energy: -3.559395; 57.000000 electrons
         Band energy:-471.955685;  BLOECHL correction: -0.009332
       DOS:  cpu time    0.0040: real time    0.0072
    CHARGE:  cpu time    1.5480: real time    2.2762
    MIXING:  cpu time    0.0400: real time    0.0607
    --------------------------------------------
      LOOP:  cpu time   64.5360: real time   98.7022

 eigenvalue-minimisations  :  1272
 total energy-change (2. order) :-0.1962953E+00  (-0.7259740E-02)
 number of electron      56.9999994 magnetization       7.6216535
 augmentation part       -2.1877324 magnetization       5.4352383

 Broyden mixing:
  rms(total) = 0.16555E+00    rms(broyden)= 0.16555E+00
  rms(prec ) = 0.16856E+00
  weight for this iteration     100.00

 eigenvalues of (default mixing * dielectric matrix)
  average eigenvalue GAMMA=   1.3149
  4.9447  1.4477  1.4477  0.2198  0.7629  0.7629  0.6203  0.3129

 Free energy of the ion-electron system (eV)
  ---------------------------------------------------
  alpha Z        PSCENC =        30.28140400
  Ewald energy   TEWEN  =      6221.61188061
  -Hartree energ DENC   =     -8314.58483184
  -exchange      EXHF   =         0.00000000
  -V(xc)+E(xc)   XCENC  =       -53.05904996
  PAW double counting   =      1188.69502933    -1033.78296185
  entropy T*S    EENTRO =         0.00000000
  eigenvalues    EBANDS =      -471.95568457
  atomic energy  EATOM  =      2386.47938694
  Solvation  Ediel_sol  =         0.00000000
  ---------------------------------------------------
  free energy    TOTEN  =       -46.31482734 eV

  energy without entropy =      -46.31482734  energy(sigma->0) =      -46.31482734


--------------------------------------------------------------------------------------------------------




--------------------------------------- Iteration      1(  14)  ---------------------------------------


    POTLOK:  cpu time   38.6160: real time   59.3095
    SETDIJ:  cpu time    0.0280: real time    0.0460
     EDDAV:  cpu time   24.4840: real time   37.0867
 BZINTS: Fermi energy: -3.512274; 57.000000 electrons
         Band energy:-471.215286;  BLOECHL correction: -0.014763
       DOS:  cpu time    0.0200: real time    0.0653
    CHARGE:  cpu time    1.3120: real time    2.1874
    MIXING:  cpu time    0.0400: real time    0.0650
    --------------------------------------------
      LOOP:  cpu time   64.5000: real time   98.7599

 eigenvalue-minimisations  :  1248
 total energy-change (2. order) :-0.1142668E+00  (-0.5527092E-02)
 number of electron      56.9999994 magnetization       6.7915956
 augmentation part       -2.2508261 magnetization       4.8090526

 Broyden mixing:
  rms(total) = 0.81882E-01    rms(broyden)= 0.81882E-01
  rms(prec ) = 0.83576E-01
  weight for this iteration     100.00

 eigenvalues of (default mixing * dielectric matrix)
  average eigenvalue GAMMA=   1.4899
  6.6235  1.5075  1.5075  0.9258  0.9258  0.2198  0.7520  0.6347  0.3129

 Free energy of the ion-electron system (eV)
  ---------------------------------------------------
  alpha Z        PSCENC =        30.28140400
  Ewald energy   TEWEN  =      6221.61188061
  -Hartree energ DENC   =     -8315.05152900
  -exchange      EXHF   =         0.00000000
  -V(xc)+E(xc)   XCENC  =       -53.57304246
  PAW double counting   =      1187.82663400    -1032.78854219
  entropy T*S    EENTRO =         0.00000000
  eigenvalues    EBANDS =      -471.21528607
  atomic energy  EATOM  =      2386.47938694
  Solvation  Ediel_sol  =         0.00000000
  ---------------------------------------------------
  free energy    TOTEN  =       -46.42909415 eV

  energy without entropy =      -46.42909415  energy(sigma->0) =      -46.42909415


--------------------------------------------------------------------------------------------------------




--------------------------------------- Iteration      1(  15)  ---------------------------------------


    POTLOK:  cpu time   38.6680: real time   59.2778
    SETDIJ:  cpu time    0.0800: real time    0.0797
     EDDAV:  cpu time   20.6760: real time   31.8301
 BZINTS: Fermi energy: -3.470453; 57.000000 electrons
         Band energy:-470.545596;  BLOECHL correction: -0.019259
       DOS:  cpu time    0.0200: real time    0.0195
    CHARGE:  cpu time    1.4560: real time    2.2148
    MIXING:  cpu time    0.0320: real time    0.0612
    --------------------------------------------
      LOOP:  cpu time   60.9320: real time   93.4831

 eigenvalue-minimisations  :  1032
 total energy-change (2. order) :-0.2885908E-01  (-0.4767160E-02)
 number of electron      56.9999994 magnetization       6.2589782
 augmentation part       -2.2724605 magnetization       4.6769708

 Broyden mixing:
  rms(total) = 0.56454E-01    rms(broyden)= 0.56454E-01
  rms(prec ) = 0.57616E-01
  weight for this iteration     100.00

 eigenvalues of (default mixing * dielectric matrix)
  average eigenvalue GAMMA=   1.6500
  8.1438  1.8072  1.8072  1.0840  1.0840  0.2198  0.7206  0.7206  0.5995  0.3129

 Free energy of the ion-electron system (eV)
  ---------------------------------------------------
  alpha Z        PSCENC =        30.28140400
  Ewald energy   TEWEN  =      6221.61188061
  -Hartree energ DENC   =     -8315.55147323
  -exchange      EXHF   =         0.00000000
  -V(xc)+E(xc)   XCENC  =       -53.84407994
  PAW double counting   =      1187.24959499    -1032.13907055
  entropy T*S    EENTRO =         0.00000000
  eigenvalues    EBANDS =      -470.54559606
  atomic energy  EATOM  =      2386.47938694
  Solvation  Ediel_sol  =         0.00000000
  ---------------------------------------------------
  free energy    TOTEN  =       -46.45795323 eV

  energy without entropy =      -46.45795323  energy(sigma->0) =      -46.45795323


--------------------------------------------------------------------------------------------------------




--------------------------------------- Iteration      1(  16)  ---------------------------------------


    POTLOK:  cpu time   37.4640: real time   58.1205
    SETDIJ:  cpu time    0.0240: real time    0.0553
     EDDAV:  cpu time   24.5440: real time   35.7398
 BZINTS: Fermi energy: -3.431170; 57.000000 electrons
         Band energy:-470.215737;  BLOECHL correction: -0.015860
       DOS:  cpu time    0.0040: real time    0.0056
    CHARGE:  cpu time    1.4960: real time    2.2645
    MIXING:  cpu time    0.0680: real time    0.0692
    --------------------------------------------
      LOOP:  cpu time   63.6000: real time   96.2550

 eigenvalue-minimisations  :  1200
 total energy-change (2. order) :-0.8901098E-02  (-0.3359720E-02)
 number of electron      56.9999994 magnetization       5.7906476
 augmentation part       -2.2674559 magnetization       4.6052777

 Broyden mixing:
  rms(total) = 0.51716E-01    rms(broyden)= 0.51716E-01
  rms(prec ) = 0.52476E-01
  weight for this iteration     100.00

 eigenvalues of (default mixing * dielectric matrix)
  average eigenvalue GAMMA=   1.8914
 10.3942  2.3146  2.3146  1.2157  1.2157  0.2198  0.7634  0.7634  0.6453  0.6453
  0.3129

 Free energy of the ion-electron system (eV)
  ---------------------------------------------------
  alpha Z        PSCENC =        30.28140400
  Ewald energy   TEWEN  =      6221.61188061
  -Hartree energ DENC   =     -8315.94054009
  -exchange      EXHF   =         0.00000000
  -V(xc)+E(xc)   XCENC  =       -53.87279911
  PAW double counting   =      1187.52660109    -1032.33705110
  entropy T*S    EENTRO =         0.00000000
  eigenvalues    EBANDS =      -470.21573668
  atomic energy  EATOM  =      2386.47938694
  Solvation  Ediel_sol  =         0.00000000
  ---------------------------------------------------
  free energy    TOTEN  =       -46.46685433 eV

  energy without entropy =      -46.46685433  energy(sigma->0) =      -46.46685433


--------------------------------------------------------------------------------------------------------




--------------------------------------- Iteration      1(  17)  ---------------------------------------


    POTLOK:  cpu time   38.1680: real time   58.6200
    SETDIJ:  cpu time    0.0400: real time    0.0732
     EDDAV:  cpu time   23.5880: real time   34.9197
 BZINTS: Fermi energy: -3.396899; 57.000000 electrons
         Band energy:-469.943853;  BLOECHL correction: -0.015373
       DOS:  cpu time    0.0200: real time    0.0196
    CHARGE:  cpu time    1.7280: real time    2.3117
    MIXING:  cpu time    0.0320: real time    0.0611
    --------------------------------------------
      LOOP:  cpu time   63.5760: real time   96.0054

 eigenvalue-minimisations  :  1152
 total energy-change (2. order) :-0.6338571E-02  (-0.3311072E-02)
 number of electron      56.9999994 magnetization       5.3894532
 augmentation part       -2.2799688 magnetization       4.5561637

 Broyden mixing:
  rms(total) = 0.41403E-01    rms(broyden)= 0.41402E-01
  rms(prec ) = 0.42230E-01
  weight for this iteration     100.00

 eigenvalues of (default mixing * dielectric matrix)
  average eigenvalue GAMMA=   2.1161
 13.4356  2.5464  2.5464  1.3420  1.3420  0.2198  0.8380  0.8380  0.3129  0.6826
  0.6826  0.6068

 Free energy of the ion-electron system (eV)
  ---------------------------------------------------
  alpha Z        PSCENC =        30.28140400
  Ewald energy   TEWEN  =      6221.61188061
  -Hartree energ DENC   =     -8316.23166247
  -exchange      EXHF   =         0.00000000
  -V(xc)+E(xc)   XCENC  =       -53.90711938
  PAW double counting   =      1187.66587271    -1032.42910280
  entropy T*S    EENTRO =         0.00000000
  eigenvalues    EBANDS =      -469.94385251
  atomic energy  EATOM  =      2386.47938694
  Solvation  Ediel_sol  =         0.00000000
  ---------------------------------------------------
  free energy    TOTEN  =       -46.47319290 eV

  energy without entropy =      -46.47319290  energy(sigma->0) =      -46.47319290


--------------------------------------------------------------------------------------------------------




--------------------------------------- Iteration      1(  18)  ---------------------------------------


    POTLOK:  cpu time   39.7200: real time   59.9428
    SETDIJ:  cpu time    0.0600: real time    0.0609
     EDDAV:  cpu time   21.8160: real time   32.5646
 BZINTS: Fermi energy: -3.373171; 57.000000 electrons
         Band energy:-469.638662;  BLOECHL correction: -0.013835
       DOS:  cpu time    0.0040: real time    0.0092
    CHARGE:  cpu time    1.4080: real time    2.2715
    MIXING:  cpu time    0.0600: real time    0.0597
    --------------------------------------------
      LOOP:  cpu time   63.0680: real time   94.9086

 eigenvalue-minimisations  :  1056
 total energy-change (2. order) :-0.2977625E-02  (-0.2577455E-02)
 number of electron      56.9999994 magnetization       5.4399469
 augmentation part       -2.2854366 magnetization       4.8197381

 Broyden mixing:
  rms(total) = 0.25436E-01    rms(broyden)= 0.25435E-01
  rms(prec ) = 0.26030E-01
  weight for this iteration     100.00

 eigenvalues of (default mixing * dielectric matrix)
  average eigenvalue GAMMA=   2.0454
 13.5565  2.3206  2.3206  1.5905  1.5905  0.2198  0.9343  0.9343  0.3129  0.7788
  0.7788  0.6503  0.6017

 Free energy of the ion-electron system (eV)
  ---------------------------------------------------
  alpha Z        PSCENC =        30.28140400
  Ewald energy   TEWEN  =      6221.61188061
  -Hartree energ DENC   =     -8316.51506161
  -exchange      EXHF   =         0.00000000
  -V(xc)+E(xc)   XCENC  =       -53.98022965
  PAW double counting   =      1187.74580039    -1032.46068897
  entropy T*S    EENTRO =         0.00000000
  eigenvalues    EBANDS =      -469.63866224
  atomic energy  EATOM  =      2386.47938694
  Solvation  Ediel_sol  =         0.00000000
  ---------------------------------------------------
  free energy    TOTEN  =       -46.47617052 eV

  energy without entropy =      -46.47617052  energy(sigma->0) =      -46.47617052


--------------------------------------------------------------------------------------------------------




--------------------------------------- Iteration      1(  19)  ---------------------------------------


    POTLOK:  cpu time   39.3960: real time   58.8547
    SETDIJ:  cpu time    0.0200: real time    0.0449
     EDDAV:  cpu time   20.4080: real time   31.2350
 BZINTS: Fermi energy: -3.371244; 57.000000 electrons
         Band energy:-469.526416;  BLOECHL correction: -0.015036
       DOS:  cpu time    0.0040: real time    0.0067
    CHARGE:  cpu time    1.6280: real time    2.3668
    MIXING:  cpu time    0.0760: real time    0.0780
    --------------------------------------------
      LOOP:  cpu time   61.5320: real time   92.5860

 eigenvalue-minimisations  :  1008
 total energy-change (2. order) :-0.3523940E-02  (-0.1784440E-02)
 number of electron      56.9999994 magnetization       5.3983561
 augmentation part       -2.2638168 magnetization       4.6525462

 Broyden mixing:
  rms(total) = 0.21198E-01    rms(broyden)= 0.21198E-01
  rms(prec ) = 0.22726E-01
  weight for this iteration     100.00

 eigenvalues of (default mixing * dielectric matrix)
  average eigenvalue GAMMA=   2.0440
 14.1966  2.3974  2.3974  1.9304  1.3478  1.3478  0.2198  0.8668  0.8668  0.3129
  0.7343  0.7343  0.6321  0.6321

 Free energy of the ion-electron system (eV)
  ---------------------------------------------------
  alpha Z        PSCENC =        30.28140400
  Ewald energy   TEWEN  =      6221.61188061
  -Hartree energ DENC   =     -8316.58273371
  -exchange      EXHF   =         0.00000000
  -V(xc)+E(xc)   XCENC  =       -54.04924108
  PAW double counting   =      1187.77788413    -1032.47185983
  entropy T*S    EENTRO =         0.00000000
  eigenvalues    EBANDS =      -469.52641553
  atomic energy  EATOM  =      2386.47938694
  Solvation  Ediel_sol  =         0.00000000
  ---------------------------------------------------
  free energy    TOTEN  =       -46.47969446 eV

  energy without entropy =      -46.47969446  energy(sigma->0) =      -46.47969446


--------------------------------------------------------------------------------------------------------




--------------------------------------- Iteration      1(  20)  ---------------------------------------


    POTLOK:  cpu time   38.3040: real time   58.7467
    SETDIJ:  cpu time    0.0640: real time    0.0636
     EDDAV:  cpu time   20.3240: real time   29.6519
 BZINTS: Fermi energy: -3.369741; 57.000000 electrons
         Band energy:-469.430039;  BLOECHL correction: -0.014587
       DOS:  cpu time    0.0040: real time    0.0068
    CHARGE:  cpu time    1.4560: real time    2.2322
    MIXING:  cpu time    0.0320: real time    0.0651
    --------------------------------------------
      LOOP:  cpu time   60.1840: real time   90.7662

 eigenvalue-minimisations  :   960
 total energy-change (2. order) :-0.1691401E-02  (-0.3752069E-03)
 number of electron      56.9999994 magnetization       5.3275870
 augmentation part       -2.2727195 magnetization       4.6304375

 Broyden mixing:
  rms(total) = 0.13810E-01    rms(broyden)= 0.13810E-01
  rms(prec ) = 0.14346E-01
  weight for this iteration     100.00

 eigenvalues of (default mixing * dielectric matrix)
  average eigenvalue GAMMA=   2.0164
 14.5538  2.6102  2.6102  1.9207  1.2982  1.2982  0.2198  0.9151  0.9151  0.3129
  0.8461  0.7403  0.7403  0.6322  0.6322

 Free energy of the ion-electron system (eV)
  ---------------------------------------------------
  alpha Z        PSCENC =        30.28140400
  Ewald energy   TEWEN  =      6221.61188061
  -Hartree energ DENC   =     -8316.68947407
  -exchange      EXHF   =         0.00000000
  -V(xc)+E(xc)   XCENC  =       -54.03409563
  PAW double counting   =      1187.77068616    -1032.47113454
  entropy T*S    EENTRO =         0.00000000
  eigenvalues    EBANDS =      -469.43003934
  atomic energy  EATOM  =      2386.47938694
  Solvation  Ediel_sol  =         0.00000000
  ---------------------------------------------------
  free energy    TOTEN  =       -46.48138586 eV

  energy without entropy =      -46.48138586  energy(sigma->0) =      -46.48138586


--------------------------------------------------------------------------------------------------------




--------------------------------------- Iteration      1(  21)  ---------------------------------------


    POTLOK:  cpu time   37.9240: real time   57.7965
    SETDIJ:  cpu time    0.0560: real time    0.0557
     EDDAV:  cpu time   20.6760: real time   31.2168
 BZINTS: Fermi energy: -3.365744; 57.000000 electrons
         Band energy:-469.293782;  BLOECHL correction: -0.014036
       DOS:  cpu time    0.0120: real time    0.0275
    CHARGE:  cpu time    1.9720: real time    2.3617
    MIXING:  cpu time    0.0720: real time    0.0737
    --------------------------------------------
      LOOP:  cpu time   60.7120: real time   91.5320

 eigenvalue-minimisations  :  1008
 total energy-change (2. order) :-0.2047752E-02  (-0.2216532E-03)
 number of electron      56.9999994 magnetization       5.2776172
 augmentation part       -2.2812243 magnetization       4.6313695

 Broyden mixing:
  rms(total) = 0.10659E-01    rms(broyden)= 0.10659E-01
  rms(prec ) = 0.10956E-01
  weight for this iteration     100.00

 eigenvalues of (default mixing * dielectric matrix)
  average eigenvalue GAMMA=   2.0008
 14.7916  2.6355  2.6355  2.3825  1.3491  0.2198  1.1317  1.1317  1.0138  1.0138
  0.3129  0.7405  0.7405  0.6114  0.6515  0.6515

 Free energy of the ion-electron system (eV)
  ---------------------------------------------------
  alpha Z        PSCENC =        30.28140400
  Ewald energy   TEWEN  =      6221.61188061
  -Hartree energ DENC   =     -8316.82428837
  -exchange      EXHF   =         0.00000000
  -V(xc)+E(xc)   XCENC  =       -54.03480165
  PAW double counting   =      1187.73002912    -1032.43326214
  entropy T*S    EENTRO =         0.00000000
  eigenvalues    EBANDS =      -469.29378213
  atomic energy  EATOM  =      2386.47938694
  Solvation  Ediel_sol  =         0.00000000
  ---------------------------------------------------
  free energy    TOTEN  =       -46.48343362 eV

  energy without entropy =      -46.48343362  energy(sigma->0) =      -46.48343362


--------------------------------------------------------------------------------------------------------




--------------------------------------- Iteration      1(  22)  ---------------------------------------


    POTLOK:  cpu time   39.2840: real time   58.0744
    SETDIJ:  cpu time    0.0360: real time    0.0681
     EDDAV:  cpu time   19.9360: real time   30.0455
 BZINTS: Fermi energy: -3.361324; 57.000000 electrons
         Band energy:-469.161446;  BLOECHL correction: -0.013842
       DOS:  cpu time    0.0080: real time    0.0067
    CHARGE:  cpu time    1.6080: real time    2.2467
    MIXING:  cpu time    0.0720: real time    0.0709
    --------------------------------------------
      LOOP:  cpu time   60.9440: real time   90.5124

 eigenvalue-minimisations  :   960
 total energy-change (2. order) :-0.2331056E-02  (-0.1852939E-03)
 number of electron      56.9999994 magnetization       5.2579441
 augmentation part       -2.2826613 magnetization       4.6296227

 Broyden mixing:
  rms(total) = 0.75941E-02    rms(broyden)= 0.75940E-02
  rms(prec ) = 0.78391E-02
  weight for this iteration     100.00

 eigenvalues of (default mixing * dielectric matrix)
  average eigenvalue GAMMA=   2.0152
 14.7249  3.7019  2.4710  2.4710  1.6724  1.1946  1.1946  0.2198  0.9862  0.9862
  0.3129  0.9191  0.7522  0.7522  0.6708  0.6059  0.6227

 Free energy of the ion-electron system (eV)
  ---------------------------------------------------
  alpha Z        PSCENC =        30.28140400
  Ewald energy   TEWEN  =      6221.61188061
  -Hartree energ DENC   =     -8316.94679904
  -exchange      EXHF   =         0.00000000
  -V(xc)+E(xc)   XCENC  =       -54.05403109
  PAW double counting   =      1187.72762893    -1032.42378889
  entropy T*S    EENTRO =         0.00000000
  eigenvalues    EBANDS =      -469.16144614
  atomic energy  EATOM  =      2386.47938694
  Solvation  Ediel_sol  =         0.00000000
[...]
     34      -0.2796      0.00000
     35      -0.1272      0.00000
     36       0.1034      0.00000
     37       0.4213      0.00000
     38       0.4895      0.00000
     39       0.8951      0.00000
     40       1.6108      0.00000
     41       1.9681      0.00000
     42       2.0014      0.00000
     43       2.4485      0.00000
     44       2.6922      0.00000
     45       3.2324      0.00000
     46       3.4266      0.00000
     47       3.6688      0.00000
     48       3.6856      0.00000

 k-point     5 :      -0.4000    0.2000    0.0000
  band No.  band energies     occupation 
      1     -16.9582      1.00000
      2     -16.1653      1.00000
      3     -15.9335      1.00000
      4     -15.8728      1.00000
      5     -15.5602      1.00000
      6     -15.4220      1.00000
      7     -12.6105      1.00000
      8      -9.8264      1.00000
      9      -8.0004      1.00000
     10      -7.5281      1.00000
     11      -7.4174      1.00000
     12      -6.8960      1.00000
     13      -6.7029      1.00000
     14      -6.1861      1.00000
     15      -5.8131      1.00000
     16      -5.6524      1.00000
     17      -5.6453      1.00000
     18      -5.1503      1.00000
     19      -5.1223      1.00000
     20      -5.0162      1.00000
     21      -4.7151      1.00000
     22      -4.3409      1.00000
     23      -4.1984      1.00000
     24      -4.1221      1.00000
     25      -3.9604      1.00000
     26      -2.8570      1.00000
     27      -1.6086      0.00000
     28      -1.4994      0.00000
     29      -1.2021      0.00000
     30      -0.8115      0.00000
     31      -0.7182      0.00000
     32      -0.7161      0.00000
     33      -0.4546      0.00000
     34      -0.4155      0.00000
     35      -0.0461      0.00000
     36       0.1170      0.00000
     37       0.1232      0.00000
     38       0.6127      0.00000
     39       0.8591      0.00000
     40       1.5569      0.00000
     41       1.8055      0.00000
     42       1.8808      0.00000
     43       2.9023      0.00000
     44       3.1026      0.00000
     45       3.2005      0.00000
     46       3.2830      0.00000
     47       3.3775      0.00000
     48       3.8222      0.00000


--------------------------------------------------------------------------------------------------------


 soft charge-density along one line, spin component           1
         0         1         2         3         4         5         6         7         8         9
 total charge-density along one line

 soft charge-density along one line, spin component           2
         0         1         2         3         4         5         6         7         8         9
 total charge-density along one line

 pseudopotential strength for first ion, spin component:           1
 -8.771   0.084  -0.000   0.011   0.000   0.678  -0.023   0.000
  0.084  -8.690   0.000   0.000   0.011  -0.023   0.656  -0.000
 -0.000   0.000  -8.865   0.000   0.000   0.000  -0.000   0.704
  0.011   0.000   0.000  -8.690  -0.084  -0.003  -0.000  -0.000
  0.000   0.011   0.000  -0.084  -8.771  -0.000  -0.003  -0.000
  0.678  -0.023   0.000  -0.003  -0.000   0.365   0.006  -0.000
 -0.023   0.656  -0.000  -0.000  -0.003   0.006   0.370   0.000
  0.000  -0.000   0.704  -0.000  -0.000  -0.000   0.000   0.358
 -0.003  -0.000  -0.000   0.656   0.023   0.001   0.000   0.000
 -0.000  -0.003  -0.000   0.023   0.678   0.000   0.001   0.000
 -0.000  -0.000   0.001  -0.000   0.000  -0.000   0.000  -0.000
  0.000   0.000  -0.000   0.000  -0.000  -0.000  -0.000   0.000
  0.001   0.007   0.000  -0.000   0.001  -0.000  -0.002  -0.000
 -0.000  -0.000   0.007  -0.000  -0.000   0.000   0.000  -0.001
  0.001  -0.000   0.000   0.007  -0.001  -0.000   0.000  -0.000
 -0.001  -0.004  -0.000   0.000  -0.001   0.000   0.001   0.000
  0.000   0.000  -0.004   0.000   0.000  -0.000  -0.000   0.001
 -0.001   0.000  -0.000  -0.004   0.001   0.000  -0.000   0.000
 pseudopotential strength for first ion, spin component:           2
 -7.200  -0.164  -0.000  -0.016  -0.000   0.234   0.043   0.000
 -0.164  -7.393   0.000  -0.000  -0.016   0.043   0.285  -0.000
 -0.000   0.000  -7.075   0.000   0.000   0.000  -0.000   0.202
 -0.016  -0.000   0.000  -7.393   0.164   0.004  -0.000  -0.000
 -0.000  -0.016   0.000   0.164  -7.200   0.000   0.004  -0.000
  0.234   0.043   0.000   0.004   0.000   0.486  -0.011  -0.000
  0.043   0.285  -0.000  -0.000   0.004  -0.011   0.474   0.000
  0.000  -0.000   0.202  -0.000  -0.000  -0.000   0.000   0.494
  0.004  -0.000  -0.000   0.285  -0.043  -0.001   0.000   0.000
  0.000   0.004  -0.000  -0.043   0.234  -0.000  -0.001   0.000
 -0.000  -0.000   0.007  -0.000   0.000  -0.000   0.000  -0.001
  0.000   0.000  -0.001   0.000  -0.000  -0.000  -0.000   0.000
  0.000   0.007   0.000  -0.000   0.001   0.000  -0.001  -0.000
 -0.000  -0.000   0.007  -0.000   0.000   0.000   0.000  -0.002
  0.001  -0.000   0.000   0.007  -0.000  -0.000   0.000  -0.000
 -0.000  -0.004  -0.000   0.000  -0.001   0.000   0.001   0.000
  0.000   0.000  -0.004   0.000  -0.000  -0.000  -0.000   0.001
 -0.001   0.000  -0.000  -0.004   0.000   0.000  -0.000   0.000
 total augmentation occupancy for first ion, spin component:           1
  0.993  -0.086   0.000   0.012  -0.000   0.054   0.219  -0.000   0.019   0.000  -0.000  -0.000   0.004   0.000   0.010  -0.000
 -0.086   0.935  -0.000  -0.000   0.012   0.217   0.283   0.000   0.000   0.019   0.000   0.000   0.018   0.000  -0.003   0.001
  0.000  -0.000   1.041  -0.000  -0.000  -0.000   0.000  -0.112   0.000   0.000  -0.004  -0.012  -0.000   0.006   0.000  -0.000
  0.012  -0.000  -0.000   0.935   0.086   0.019  -0.000   0.000   0.283  -0.217   0.000   0.000   0.003   0.000   0.018  -0.000
 -0.000   0.012  -0.000   0.086   0.993  -0.000   0.019   0.000  -0.219   0.054   0.000   0.000   0.010  -0.000  -0.004   0.000
  0.054   0.217  -0.000   0.019  -0.000   0.183   0.088   0.000   0.005  -0.000   0.000  -0.000   0.008   0.000   0.015   0.000
  0.219   0.283   0.000  -0.000   0.019   0.088   0.269   0.000  -0.000   0.005  -0.000   0.000   0.018   0.000  -0.004  -0.000
 -0.000   0.000  -0.112   0.000   0.000   0.000   0.000   0.168   0.000  -0.000   0.047  -0.009  -0.000   0.004   0.000   0.000
  0.019   0.000   0.000   0.283  -0.219   0.005  -0.000   0.000   0.269  -0.088   0.000   0.000   0.004  -0.000   0.018  -0.000
  0.000   0.019   0.000  -0.217   0.054  -0.000   0.005  -0.000  -0.088   0.183  -0.000   0.000   0.015  -0.000  -0.008  -0.001
 -0.000   0.000  -0.004  -0.000   0.000   0.000   0.000   0.047   0.000  -0.000   1.051  -0.174  -0.000   0.023   0.000  -0.000
 -0.000   0.000  -0.012   0.000   0.000  -0.000   0.000  -0.009   0.000   0.000  -0.174   0.068   0.000  -0.007  -0.000   0.000
  0.004   0.018  -0.000   0.003   0.010   0.008   0.018  -0.000   0.004   0.015  -0.000   0.000   0.220   0.000  -0.000  -0.002
  0.000  -0.000   0.006   0.000  -0.000   0.000   0.000   0.004  -0.000  -0.000   0.023  -0.007   0.000   0.236   0.000   0.000
  0.010  -0.003   0.000   0.018  -0.004   0.015  -0.004   0.000   0.018  -0.008   0.000   0.000  -0.000   0.000   0.220  -0.000
 -0.000   0.001  -0.000  -0.000   0.000   0.000  -0.000   0.000  -0.000  -0.001   0.000  -0.000  -0.002   0.000  -0.000   0.000
  0.000   0.000   0.002  -0.000  -0.000  -0.000   0.000  -0.001  -0.000   0.000  -0.000   0.000   0.000  -0.004   0.000  -0.000
  0.000   0.000  -0.000   0.001   0.000  -0.001   0.000  -0.000  -0.000  -0.000   0.000  -0.000   0.000   0.000  -0.002  -0.000
 total augmentation occupancy for first ion, spin component:           2
  0.685  -0.274   0.000  -0.028  -0.000  -0.164   0.062  -0.000   0.004  -0.001  -0.000  -0.000  -0.001   0.000  -0.002  -0.000
 -0.274   0.382  -0.000  -0.000  -0.028   0.063  -0.097   0.000  -0.001   0.002  -0.000   0.000   0.000   0.000   0.007   0.001
  0.000  -0.000   0.906  -0.000  -0.000  -0.000   0.000  -0.231   0.000   0.000  -0.026  -0.004   0.000   0.005  -0.000  -0.000
 -0.028  -0.000  -0.000   0.382   0.274   0.002   0.001   0.000  -0.097  -0.063  -0.000   0.000  -0.007   0.000   0.000   0.000
 -0.000  -0.028  -0.000   0.274   0.685   0.001   0.004   0.000  -0.062  -0.164   0.000   0.000  -0.002  -0.000   0.001   0.001
 -0.164   0.063  -0.000   0.002   0.001   0.002  -0.046   0.000  -0.005  -0.000   0.000   0.000   0.001  -0.000  -0.005   0.000
  0.062  -0.097   0.000   0.001   0.004  -0.046  -0.046  -0.000   0.000  -0.005  -0.000   0.000  -0.001  -0.000   0.001   0.000
 -0.000   0.000  -0.231   0.000   0.000   0.000  -0.000   0.056  -0.000  -0.000   0.014   0.004   0.000  -0.001  -0.000   0.000
  0.004  -0.001   0.000  -0.097  -0.062  -0.005   0.000  -0.000  -0.046   0.046   0.000   0.000  -0.001   0.000  -0.001  -0.000
 -0.001   0.002   0.000  -0.063  -0.164  -0.000  -0.005  -0.000   0.046   0.002  -0.000  -0.000  -0.005   0.000  -0.001  -0.000
 -0.000   0.000  -0.026  -0.000   0.000   0.000  -0.000   0.014   0.000  -0.000   0.152   0.061  -0.000   0.002  -0.000   0.000
 -0.000   0.000  -0.004  -0.000   0.000   0.000   0.000   0.004   0.000  -0.000   0.061  -0.020   0.000   0.001  -0.000   0.000
 -0.001   0.000   0.000  -0.007  -0.002   0.001  -0.001   0.000  -0.001  -0.005  -0.000   0.000   0.024   0.000  -0.000   0.002
  0.000   0.000   0.005  -0.000  -0.000  -0.000   0.000  -0.001   0.000   0.000   0.002   0.001  -0.000   0.020   0.000   0.000
 -0.002   0.007  -0.000   0.000   0.001  -0.005   0.001  -0.000  -0.001  -0.001   0.000  -0.000  -0.000   0.000   0.024   0.000
 -0.000   0.001  -0.000   0.000   0.001   0.000   0.000   0.000  -0.000  -0.000   0.000   0.000   0.002   0.000   0.000  -0.000
  0.000   0.000   0.002   0.000  -0.000  -0.000   0.000  -0.000   0.000   0.000   0.000  -0.000   0.000   0.002   0.000   0.000
  0.001  -0.000   0.000   0.001   0.000  -0.000   0.000  -0.000   0.000  -0.000   0.000   0.000  -0.000   0.000   0.002   0.000


------------------------ aborting loop because EDIFF is reached ----------------------------------------





 total charge     

# of ion       s       p       d       tot
------------------------------------------
    1        0.342   0.456   4.267   5.065
    2        0.343   0.456   4.271   5.069
    3        0.748   0.854   0.000   1.602
    4        1.081   1.357   0.000   2.438
    5        1.492   2.304   0.045   3.841
    6        1.480   2.285   0.047   3.812
    7        1.489   2.296   0.046   3.830
    8        1.477   2.354   0.038   3.869
    9        1.470   2.353   0.039   3.862
   10        1.474   2.352   0.039   3.865
--------------------------------------------------
tot         11.396  17.065   8.793  37.254



 magnetization (x)

# of ion       s       p       d       tot
------------------------------------------
    1        0.035   0.038   2.818   2.891
    2        0.035   0.038   2.817   2.890
    3        0.005   0.018   0.000   0.023
    4       -0.035  -0.001   0.000  -0.036
    5       -0.003  -0.111   0.004  -0.110
    6       -0.003  -0.102   0.005  -0.101
    7       -0.005  -0.115   0.005  -0.116
    8        0.000  -0.075   0.005  -0.070
    9       -0.001  -0.056   0.005  -0.053
   10       -0.001  -0.070   0.005  -0.065
--------------------------------------------------
tot          0.026  -0.435   5.664   5.254

    CHARGE:  cpu time    1.6440: real time    2.2228
    FORLOC:  cpu time    0.0320: real time    0.0668
    FORNL :  cpu time    4.7640: real time    6.9963
    STRESS:  cpu time   14.9840: real time   20.7054
    FORCOR:  cpu time   39.2200: real time   60.3571
    FORHAR:  cpu time    0.2200: real time    0.2953
    MIXING:  cpu time    0.0280: real time    0.0564
    OFIELD:  cpu time    0.0000: real time    0.0000

  FORCE on cell =-STRESS in cart. coord.  units (eV):
  Direction    XX          YY          ZZ          XY          YZ          ZX
  --------------------------------------------------------------------------------------
  Alpha Z    38.69947    38.69947    38.69947
  Ewald    9014.82023  9014.81763-10647.30347    -0.00107    -0.00045    -0.00081
  Hartree  9347.62712  9347.62747 -9193.17727     0.00000     0.00005     0.00008
  E(xc)    -220.04579  -220.04578  -219.96621     0.00001     0.00001     0.00001
  Local  -19114.37625-19114.37534 19052.34234     0.00068     0.00020     0.00038
  n-local   324.29585   325.53014   331.72454     0.58732     0.42980     0.42861
  augment    18.19634    18.19641    14.49352    -0.00006     0.00003     0.00002
  Kinetic   594.34053   586.92843   623.40644    -4.55160    -0.21355    -0.58316
  Fock        0.00000     0.00000     0.00000     0.00000     0.00000     0.00000
  -------------------------------------------------------------------------------------
  Total       0.46796     0.46796     0.21935     0.00000     0.00000     0.00000
  in kB       0.98900     0.98900     0.46358     0.00000     0.00000     0.00000
  external pressure =        0.81 kB  Pullay stress =        0.00 kB


 VOLUME and BASIS-vectors are now :
 -----------------------------------------------------------------------------
  energy-cutoff  :      520.00
  volume of cell :      758.09
      direct lattice vectors                 reciprocal lattice vectors
     6.280452671  0.000000007  0.000000000     0.159224192 -0.091928124  0.000000000
     3.140225966  5.439031298 -0.000000000    -0.000000000  0.183856269  0.000000000
    -0.000000000 -0.000000000 22.192606465    -0.000000000  0.000000000  0.045060052

  length of vectors
     6.280452671  6.280452259 22.192606465     0.183856257  0.183856269  0.045060052


 FORCES acting on ions
    electron-ion (+dipol)            ewald-force                    non-local-force                 convergence-correction
 -----------------------------------------------------------------------------------------------
   -.955E-04 -.711E-04 0.129E+02   0.385E-03 0.226E-03 -.131E+02   -.694E-17 -.139E-16 0.453E-01   0.241E-06 0.132E-06 0.143E-03
   0.110E-03 0.567E-04 0.120E+02   -.382E-03 -.224E-03 -.122E+02   -.249E-20 -.149E-20 0.279E-01   0.137E-06 0.734E-07 0.457E-03
   -.397E-04 -.127E-04 0.194E+03   -.172E-03 -.953E-04 -.191E+03   -.668E-17 0.709E-17 -.284E+01   -.925E-07 -.649E-07 0.282E-01
   0.438E-04 0.357E-04 -.255E+03   0.232E-03 0.129E-03 0.254E+03   -.114E-16 -.650E-19 0.121E+01   -.140E-06 -.792E-07 -.401E-01
   0.648E+01 -.653E-01 -.417E+03   -.861E+01 0.407E-01 0.419E+03   0.205E+01 -.272E-02 -.216E+01   -.703E-02 0.266E-01 -.624E-01
   -.330E+01 -.558E+01 -.417E+03   0.434E+01 0.744E+01 0.419E+03   -.103E+01 -.178E+01 -.216E+01   0.266E-01 -.722E-02 -.624E-01
   -.319E+01 0.565E+01 -.417E+03   0.427E+01 -.748E+01 0.419E+03   -.102E+01 0.178E+01 -.216E+01   -.195E-01 -.194E-01 -.624E-01
   -.429E+01 -.118E-01 0.430E+03   0.601E+01 -.149E-01 -.432E+03   -.170E+01 0.193E-02 0.227E+01   0.500E-02 0.242E-01 0.672E-01
   0.214E+01 0.373E+01 0.430E+03   -.302E+01 -.519E+01 -.432E+03   0.851E+00 0.147E+01 0.227E+01   0.185E-01 -.164E-01 0.672E-01
   0.216E+01 -.371E+01 0.430E+03   -.299E+01 0.521E+01 -.432E+03   0.848E+00 -.147E+01 0.227E+01   -.235E-01 -.777E-02 0.672E-01
 -----------------------------------------------------------------------------------------------
   0.106E-03 0.534E-04 0.125E+01   -.284E-13 -.178E-14 0.000E+00   0.000E+00 0.000E+00 -.123E+01   0.268E-06 0.147E-06 0.292E-02


 POSITION                                       TOTAL-FORCE (eV/Angst)
 -----------------------------------------------------------------------------------
      3.14022      1.81301     11.09464        -0.000000      0.000000     -0.174882
      6.28046      3.62602     11.09797        -0.000000      0.000000     -0.190272
     -0.00000     -0.00000     10.04107        -0.000000      0.000000     -0.130722
     -0.00000     -0.00000     12.26578        -0.000000     -0.000000      0.438161
      3.95404      0.00071     12.66422        -0.078825     -0.000071     -0.013174
      1.16382      2.01439     12.66422         0.039351      0.068300     -0.013174
      4.30283      3.42394     12.66422         0.039474     -0.068229     -0.013174
      5.37127      5.43813      9.47704         0.017496     -0.001221      0.032412
      8.30437      3.50734      9.47704        -0.009805     -0.014542      0.032412
      5.16570      1.93259      9.47704        -0.007691      0.015763      0.032412
 -----------------------------------------------------------------------------------
    total drift:                                0.000106      0.000054      0.026499


--------------------------------------------------------------------------------------------------------



  FREE ENERGIE OF THE ION-ELECTRON SYSTEM (eV)
  ---------------------------------------------------
  free  energy   TOTEN  =       -49.70926065 eV

  energy  without entropy=      -49.70926065  energy(sigma->0) =      -49.70926065

 d Force = 0.1275412E-02[ 0.430E-03, 0.212E-02]  d Energy =-0.1337741E-03 0.141E-02
 d Force =-0.6127530E+01[-0.612E+01,-0.613E+01]  d Ewald  = 0.2223809E+02-0.284E+02


--------------------------------------------------------------------------------------------------------


    POTLOK:  cpu time   40.9360: real time   60.1554


--------------------------------------------------------------------------------------------------------




--------------------------------------------------------------------------------------------------------


  
 reached required accuracy - stopping structural energy minimisation
     LOOP+:  cpu time  485.9280: real time  724.1278
    4ORBIT:  cpu time    0.0000: real time    0.0000



 total charge     

# of ion       s       p       d       tot
------------------------------------------
    1        0.342   0.456   4.267   5.065
    2        0.343   0.456   4.271   5.069
    3        0.748   0.854   0.000   1.602
    4        1.081   1.357   0.000   2.438
    5        1.492   2.304   0.045   3.841
    6        1.480   2.285   0.047   3.812
    7        1.489   2.296   0.046   3.830
    8        1.477   2.354   0.038   3.869
    9        1.470   2.353   0.039   3.862
   10        1.474   2.352   0.039   3.865
--------------------------------------------------
tot         11.396  17.065   8.793  37.254



 magnetization (x)

# of ion       s       p       d       tot
------------------------------------------
    1        0.035   0.038   2.818   2.891
    2        0.035   0.038   2.817   2.890
    3        0.005   0.018   0.000   0.023
    4       -0.035  -0.001   0.000  -0.036
    5       -0.003  -0.111   0.004  -0.110
    6       -0.003  -0.102   0.005  -0.101
    7       -0.005  -0.115   0.005  -0.116
    8        0.000  -0.075   0.005  -0.070
    9       -0.001  -0.056   0.005  -0.053
   10       -0.001  -0.070   0.005  -0.065
--------------------------------------------------
tot          0.026  -0.435   5.664   5.254

 BZINTS: Fermi energy: -2.031197; 57.000000 electrons
         Band energy:-456.691114;  BLOECHL correction: -0.028347

 total amount of memory used by VASP MPI-rank0   117497. kBytes
=======================================================================

   base      :      30000. kBytes
   nonlr-proj:       9387. kBytes
   fftplans  :       8558. kBytes
   grid      :      60832. kBytes
   one-center:        311. kBytes
   wavefun   :       8409. kBytes

  
  
 General timing and accounting informations for this job:
 ========================================================
  
                  Total CPU time used (sec):     7501.792
                            User time (sec):     6829.620
                          System time (sec):      672.172
                         Elapsed time (sec):    11325.937
  
                   Maximum memory used (kb):      327988.
                   Average memory used (kb):           0.
  
                          Minor page faults:      6835070
                          Major page faults:            6
                 Voluntary context switches:         1258
