PROCAR lm decomposed
# of k-points:    5         # of bands:   48         # of ions:   10

 k-point     1 :    0.00000000 0.00000000 0.00000000     weight = 0.04000000

band     1 # energy  -17.42769185 # occ.  1.00000000

ion      s     py     pz     px    dxy    dyz    dz2    dxz  x2-y2    tot
    1  0.013  0.000  0.001  0.000  0.000  0.000  0.000  0.000  0.000  0.014
    2  0.014  0.000  0.001  0.000  0.000  0.000  0.000  0.000  0.000  0.014
    3  0.029  0.000  0.001  0.000  0.000  0.000  0.000  0.000  0.000  0.030
    4  0.117  0.000  0.000  0.000  0.000  0.000  0.000  0.000  0.000  0.117
    5  0.117  0.000  0.001  0.002  0.000  0.000  0.000  0.000  0.000  0.120
    6  0.117  0.001  0.001  0.000  0.000  0.000  0.000  0.000  0.000  0.120
    7  0.117  0.001  0.001  0.000  0.000  0.000  0.000  0.000  0.000  0.120
    8  0.036  0.000  0.001  0.000  0.000  0.000  0.000  0.000  0.000  0.037
    9  0.036  0.000  0.001  0.000  0.000  0.000  0.000  0.000  0.000  0.037
   10  0.036  0.000  0.001  0.000  0.000  0.000  0.000  0.000  0.000  0.037
tot    0.631  0.003  0.007  0.003  0.000  0.000  0.000  0.000  0.000  0.646

band     2 # energy  -16.29096537 # occ.  1.00000000

ion      s     py     pz     px    dxy    dyz    dz2    dxz  x2-y2    tot
    1  0.001  0.000  0.007  0.000  0.000  0.000  0.000  0.000  0.000  0.008
    2  0.001  0.000  0.007  0.000  0.000  0.000  0.000  0.000  0.000  0.008
    3  0.042  0.000  0.002  0.000  0.000  0.000  0.000  0.000  0.000  0.044
    4  0.021  0.000  0.001  0.000  0.000  0.000  0.000  0.000  0.000  0.022
    5  0.046  0.000  0.000  0.000  0.000  0.000  0.000  0.000  0.000  0.047
    6  0.046  0.000  0.000  0.000  0.000  0.000  0.000  0.000  0.000  0.047
    7  0.046  0.000  0.000  0.000  0.000  0.000  0.000  0.000  0.000  0.047
    8  0.156  0.000  0.000  0.001  0.000  0.000  0.000  0.000  0.000  0.158
    9  0.156  0.001  0.000  0.000  0.000  0.000  0.000  0.000  0.000  0.158
   10  0.156  0.001  0.000  0.000  0.000  0.000  0.000  0.000  0.000  0.158
tot    0.672  0.003  0.018  0.003  0.000  0.000  0.001  0.000  0.000  0.697

band     3 # energy  -15.39932624 # occ.  1.00000000

ion      s     py     pz     px    dxy    dyz    dz2    dxz  x2-y2    tot
    1  0.000  0.003  0.000  0.002  0.001  0.004  0.000  0.001  0.001  0.013
    2  0.000  0.004  0.000  0.001  0.002  0.005  0.000  0.000  0.001  0.013
    3  0.000  0.000  0.000  0.001  0.000  0.000  0.000  0.000  0.000  0.001
    4  0.000  0.000  0.000  0.018  0.000  0.000  0.000  0.000  0.000  0.018
    5  0.463  0.000  0.002  0.002  0.000  0.000  0.000  0.000  0.000  0.466
    6  0.177  0.001  0.001  0.000  0.000  0.000  0.000  0.000  0.000  0.178
    7  0.068  0.000  0.000  0.000  0.000  0.000  0.000  0.000  0.000  0.068
    8  0.003  0.000  0.000  0.000  0.000  0.000  0.000  0.000  0.000  0.003
    9  0.001  0.000  0.000  0.000  0.000  0.000  0.000  0.000  0.000  0.001
   10  0.000  0.000  0.000  0.000  0.000  0.000  0.000  0.000  0.000  0.000
tot    0.711  0.008  0.003  0.023  0.003  0.009  0.000  0.002  0.002  0.761

band     4 # energy  -15.39929013 # occ.  1.00000000

ion      s     py     pz     px    dxy    dyz    dz2    dxz  x2-y2    tot
    1  0.000  0.002  0.000  0.003  0.001  0.001  0.000  0.004  0.001  0.013
    2  0.000  0.001  0.000  0.004  0.001  0.000  0.000  0.005  0.002  0.013
    3  0.000  0.001  0.000  0.000  0.000  0.000  0.000  0.000  0.000  0.001
    4  0.000  0.018  0.000  0.000  0.000  0.000  0.000  0.000  0.000  0.018
    5  0.009  0.000  0.000  0.000  0.000  0.000  0.000  0.000  0.000  0.009
    6  0.295  0.001  0.001  0.000  0.000  0.000  0.000  0.000  0.000  0.297
    7  0.404  0.001  0.001  0.000  0.000  0.000  0.000  0.000  0.000  0.407
    8  0.000  0.000  0.000  0.000  0.000  0.000  0.000  0.000  0.000  0.000
    9  0.002  0.000  0.000  0.000  0.000  0.000  0.000  0.000  0.000  0.002
   10  0.002  0.000  0.000  0.000  0.000  0.000  0.000  0.000  0.000  0.002
tot    0.711  0.023  0.003  0.008  0.002  0.002  0.000  0.009  0.003  0.761

band     5 # energy  -15.15042743 # occ.  1.00000000

ion      s     py     pz     px    dxy    dyz    dz2    dxz  x2-y2    tot
    1  0.000  0.004  0.000  0.000  0.001  0.003  0.000  0.001  0.000  0.010
    2  0.000  0.003  0.000  0.001  0.001  0.002  0.000  0.002  0.001  0.010
    3  0.000  0.000  0.000  0.016  0.000  0.000  0.000  0.000  0.000  0.017
    4  0.000  0.000  0.000  0.000  0.000  0.000  0.000  0.000  0.000  0.000
    5  0.003  0.000  0.000  0.000  0.000  0.000  0.000  0.000  0.000  0.003
    6  0.001  0.000  0.000  0.000  0.000  0.000  0.000  0.000  0.000  0.001
    7  0.000  0.000  0.000  0.000  0.000  0.000  0.000  0.000  0.000  0.000
    8  0.462  0.000  0.002  0.002  0.000  0.000  0.000  0.000  0.000  0.467
    9  0.191  0.001  0.001  0.000  0.000  0.000  0.000  0.000  0.000  0.193
   10  0.059  0.000  0.000  0.000  0.000  0.000  0.000  0.000  0.000  0.060
tot    0.718  0.009  0.003  0.020  0.002  0.005  0.000  0.002  0.002  0.761

band     6 # energy  -15.15039598 # occ.  1.00000000

ion      s     py     pz     px    dxy    dyz    dz2    dxz  x2-y2    tot
    1  0.000  0.000  0.000  0.004  0.000  0.001  0.000  0.003  0.001  0.010
    2  0.000  0.001  0.000  0.003  0.001  0.002  0.000  0.002  0.001  0.010
    3  0.000  0.016  0.000  0.000  0.000  0.000  0.000  0.000  0.000  0.017
    4  0.000  0.000  0.000  0.000  0.000  0.000  0.000  0.000  0.000  0.000
    5  0.000  0.000  0.000  0.000  0.000  0.000  0.000  0.000  0.000  0.000
    6  0.002  0.000  0.000  0.000  0.000  0.000  0.000  0.000  0.000  0.002
    7  0.003  0.000  0.000  0.000  0.000  0.000  0.000  0.000  0.000  0.003
    8  0.013  0.000  0.000  0.000  0.000  0.000  0.000  0.000  0.000  0.013
    9  0.284  0.001  0.001  0.000  0.000  0.000  0.000  0.000  0.000  0.287
   10  0.416  0.001  0.002  0.000  0.000  0.000  0.000  0.000  0.000  0.420
tot    0.718  0.020  0.003  0.009  0.002  0.002  0.000  0.005  0.002  0.761

band     7 # energy  -13.04552946 # occ.  1.00000000

ion      s     py     pz     px    dxy    dyz    dz2    dxz  x2-y2    tot
    1  0.012  0.000  0.001  0.000  0.000  0.000  0.001  0.000  0.000  0.014
    2  0.012  0.000  0.001  0.000  0.000  0.000  0.001  0.000  0.000  0.014
    3  0.050  0.000  0.014  0.000  0.000  0.000  0.000  0.000  0.000  0.064
    4  0.294  0.000  0.010  0.000  0.000  0.000  0.000  0.000  0.000  0.303
    5  0.057  0.000  0.000  0.015  0.000  0.000  0.000  0.000  0.001  0.073
    6  0.057  0.011  0.000  0.004  0.001  0.000  0.000  0.000  0.000  0.073
    7  0.057  0.011  0.000  0.004  0.001  0.000  0.000  0.000  0.000  0.073
    8  0.008  0.000  0.000  0.002  0.000  0.000  0.000  0.000  0.000  0.011
    9  0.008  0.002  0.000  0.001  0.000  0.000  0.000  0.000  0.000  0.011
   10  0.008  0.002  0.000  0.001  0.000  0.000  0.000  0.000  0.000  0.011
tot    0.561  0.026  0.027  0.026  0.002  0.001  0.001  0.001  0.002  0.646

band     8 # energy   -9.78266213 # occ.  1.00000000

ion      s     py     pz     px    dxy    dyz    dz2    dxz  x2-y2    tot
    1  0.000  0.000  0.007  0.000  0.000  0.000  0.001  0.000  0.000  0.008
    2  0.000  0.000  0.007  0.000  0.000  0.000  0.001  0.000  0.000  0.008
    3  0.234  0.000  0.000  0.000  0.000  0.000  0.000  0.000  0.000  0.235
    4  0.063  0.000  0.032  0.000  0.000  0.000  0.000  0.000  0.000  0.095
    5  0.004  0.000  0.000  0.011  0.000  0.000  0.000  0.000  0.001  0.017
    6  0.004  0.008  0.000  0.003  0.000  0.000  0.000  0.000  0.000  0.017
    7  0.004  0.008  0.000  0.003  0.000  0.000  0.000  0.000  0.000  0.017
    8  0.023  0.000  0.001  0.042  0.000  0.000  0.000  0.000  0.002  0.068
    9  0.023  0.031  0.001  0.010  0.001  0.000  0.000  0.000  0.000  0.068
   10  0.023  0.031  0.001  0.010  0.001  0.000  0.000  0.000  0.000  0.068
tot    0.379  0.079  0.052  0.079  0.004  0.001  0.002  0.001  0.004  0.601

band     9 # energy   -8.25680970 # occ.  1.00000000

ion      s     py     pz     px    dxy    dyz    dz2    dxz  x2-y2    tot
    1  0.000  0.006  0.000  0.000  0.004  0.023  0.000  0.006  0.000  0.039
    2  0.000  0.000  0.000  0.006  0.000  0.011  0.000  0.019  0.004  0.039
    3  0.000  0.006  0.000  0.009  0.000  0.000  0.000  0.000  0.000  0.015
    4  0.000  0.046  0.000  0.065  0.000  0.000  0.000  0.000  0.000  0.111
    5  0.007  0.013  0.001  0.076  0.000  0.000  0.000  0.001  0.000  0.098
    6  0.011  0.104  0.001  0.014  0.000  0.001  0.000  0.000  0.000  0.131
    7  0.000  0.001  0.000  0.033  0.000  0.000  0.000  0.000  0.001  0.036
    8  0.003  0.002  0.003  0.008  0.000  0.000  0.000  0.000  0.000  0.017
    9  0.005  0.012  0.005  0.001  0.000  0.000  0.000  0.000  0.000  0.023
   10  0.000  0.000  0.000  0.005  0.000  0.000  0.000  0.000  0.000  0.006
tot    0.027  0.190  0.009  0.216  0.005  0.035  0.000  0.026  0.005  0.514

band    10 # energy   -8.25679067 # occ.  1.00000000

ion      s     py     pz     px    dxy    dyz    dz2    dxz  x2-y2    tot
    1  0.000  0.000  0.000  0.006  0.000  0.006  0.000  0.023  0.004  0.039
    2  0.000  0.006  0.000  0.000  0.004  0.019  0.000  0.011  0.000  0.039
    3  0.000  0.009  0.000  0.006  0.000  0.000  0.000  0.000  0.000  0.015
    4  0.000  0.065  0.000  0.046  0.000  0.000  0.000  0.000  0.000  0.111
    5  0.005  0.018  0.000  0.054  0.001  0.000  0.000  0.000  0.000  0.079
    6  0.001  0.001  0.000  0.042  0.000  0.000  0.000  0.000  0.001  0.045
    7  0.012  0.104  0.001  0.023  0.000  0.001  0.000  0.000  0.000  0.141
    8  0.002  0.003  0.002  0.006  0.000  0.000  0.000  0.000  0.000  0.014
    9  0.001  0.000  0.001  0.006  0.000  0.000  0.000  0.000  0.000  0.008
   10  0.006  0.011  0.005  0.002  0.000  0.000  0.000  0.000  0.000  0.025
tot    0.027  0.216  0.009  0.190  0.005  0.026  0.000  0.035  0.005  0.514

band    11 # energy   -7.89846149 # occ.  1.00000000

ion      s     py     pz     px    dxy    dyz    dz2    dxz  x2-y2    tot
    1  0.044  0.000  0.000  0.000  0.000  0.000  0.010  0.000  0.000  0.054
    2  0.044  0.000  0.000  0.000  0.000  0.000  0.010  0.000  0.000  0.054
    3  0.007  0.000  0.052  0.000  0.000  0.000  0.000  0.000  0.000  0.059
    4  0.001  0.000  0.065  0.000  0.000  0.000  0.000  0.000  0.000  0.065
    5  0.003  0.000  0.034  0.007  0.000  0.000  0.000  0.000  0.000  0.044
    6  0.003  0.005  0.034  0.002  0.000  0.000  0.000  0.000  0.000  0.044
    7  0.003  0.005  0.034  0.002  0.000  0.000  0.000  0.000  0.000  0.044
    8  0.001  0.000  0.024  0.019  0.000  0.000  0.001  0.000  0.001  0.046
    9  0.001  0.014  0.024  0.005  0.000  0.000  0.001  0.000  0.000  0.046
   10  0.001  0.014  0.024  0.005  0.000  0.000  0.001  0.000  0.000  0.046
tot    0.107  0.039  0.293  0.039  0.001  0.000  0.022  0.000  0.001  0.502

band    12 # energy   -7.40224363 # occ.  1.00000000

ion      s     py     pz     px    dxy    dyz    dz2    dxz  x2-y2    tot
    1  0.079  0.000  0.002  0.000  0.000  0.000  0.026  0.000  0.000  0.108
    2  0.079  0.000  0.002  0.000  0.000  0.000  0.026  0.000  0.000  0.108
    3  0.000  0.000  0.000  0.000  0.000  0.000  0.000  0.000  0.000  0.000
    4  0.000  0.000  0.000  0.000  0.000  0.000  0.000  0.000  0.000  0.000
    5  0.000  0.086  0.000  0.000  0.001  0.000  0.000  0.000  0.000  0.087
    6  0.000  0.021  0.000  0.064  0.000  0.000  0.000  0.000  0.000  0.087
    7  0.000  0.021  0.000  0.064  0.000  0.000  0.000  0.000  0.000  0.087
    8  0.000  0.034  0.000  0.000  0.000  0.000  0.000  0.000  0.000  0.034
    9  0.000  0.008  0.000  0.025  0.000  0.000  0.000  0.000  0.000  0.034
   10  0.000  0.008  0.000  0.025  0.000  0.000  0.000  0.000  0.000  0.034
tot    0.158  0.179  0.005  0.179  0.001  0.001  0.053  0.001  0.001  0.579

band    13 # energy   -7.36228869 # occ.  1.00000000

ion      s     py     pz     px    dxy    dyz    dz2    dxz  x2-y2    tot
    1  0.000  0.011  0.000  0.007  0.000  0.001  0.000  0.015  0.010  0.045
    2  0.000  0.016  0.000  0.001  0.006  0.014  0.000  0.002  0.005  0.045
    3  0.000  0.014  0.000  0.050  0.000  0.000  0.000  0.000  0.000  0.063
    4  0.000  0.002  0.000  0.008  0.000  0.000  0.000  0.000  0.000  0.011
    5  0.000  0.001  0.008  0.020  0.000  0.000  0.000  0.000  0.000  0.030
    6  0.000  0.018  0.007  0.001  0.000  0.000  0.000  0.000  0.000  0.028
    7  0.000  0.002  0.000  0.004  0.000  0.000  0.000  0.000  0.000  0.006
    8  0.002  0.010  0.000  0.111  0.000  0.000  0.000  0.001  0.000  0.125
    9  0.002  0.110  0.000  0.004  0.000  0.001  0.000  0.000  0.000  0.118
   10  0.000  0.014  0.000  0.031  0.000  0.000  0.000  0.000  0.001  0.047
tot    0.005  0.199  0.017  0.237  0.006  0.016  0.002  0.019  0.017  0.517

band    14 # energy   -7.36227064 # occ.  1.00000000

ion      s     py     pz     px    dxy    dyz    dz2    dxz  x2-y2    tot
    1  0.000  0.007  0.000  0.011  0.010  0.015  0.000  0.001  0.000  0.045
    2  0.000  0.001  0.000  0.016  0.005  0.002  0.000  0.014  0.006  0.045
    3  0.000  0.050  0.000  0.014  0.000  0.000  0.000  0.000  0.000  0.063
    4  0.000  0.008  0.000  0.002  0.000  0.000  0.000  0.000  0.000  0.011
    5  0.000  0.004  0.002  0.005  0.000  0.000  0.000  0.000  0.000  0.012
    6  0.000  0.002  0.003  0.009  0.000  0.000  0.000  0.000  0.000  0.014
    7  0.000  0.018  0.011  0.007  0.000  0.000  0.001  0.000  0.000  0.036
    8  0.001  0.036  0.000  0.030  0.001  0.000  0.000  0.000  0.000  0.068
    9  0.001  0.007  0.000  0.066  0.000  0.000  0.000  0.000  0.000  0.075
   10  0.003  0.103  0.001  0.038  0.000  0.001  0.000  0.000  0.000  0.147
tot    0.005  0.237  0.017  0.199  0.017  0.019  0.002  0.016  0.006  0.517

band    15 # energy   -6.02692448 # occ.  1.00000000

ion      s     py     pz     px    dxy    dyz    dz2    dxz  x2-y2    tot
    1  0.003  0.000  0.047  0.000  0.000  0.000  0.001  0.000  0.000  0.051
    2  0.002  0.000  0.047  0.000  0.000  0.000  0.001  0.000  0.000  0.051
    3  0.000  0.000  0.000  0.000  0.000  0.000  0.000  0.000  0.000  0.000
    4  0.000  0.000  0.000  0.000  0.000  0.000  0.000  0.000  0.000  0.000
    5  0.000  0.048  0.000  0.000  0.000  0.000  0.000  0.000  0.000  0.048
    6  0.000  0.012  0.000  0.036  0.000  0.000  0.000  0.000  0.000  0.048
    7  0.000  0.012  0.000  0.036  0.000  0.000  0.000  0.000  0.000  0.048
    8  0.000  0.098  0.000  0.000  0.001  0.000  0.000  0.000  0.000  0.099
    9  0.000  0.024  0.000  0.074  0.000  0.000  0.000  0.000  0.000  0.099
   10  0.000  0.025  0.000  0.073  0.000  0.000  0.000  0.000  0.000  0.099
tot    0.005  0.219  0.095  0.219  0.001  0.000  0.003  0.000  0.001  0.544

band    16 # energy   -5.43220354 # occ.  1.00000000

ion      s     py     pz     px    dxy    dyz    dz2    dxz  x2-y2    tot
    1  0.000  0.001  0.000  0.000  0.000  0.000  0.000  0.098  0.124  0.224
    2  0.000  0.002  0.000  0.000  0.002  0.002  0.000  0.098  0.125  0.229
    3  0.000  0.000  0.000  0.000  0.000  0.000  0.000  0.000  0.000  0.000
    4  0.000  0.000  0.000  0.000  0.000  0.000  0.000  0.000  0.000  0.000
    5  0.002  0.000  0.064  0.006  0.000  0.000  0.000  0.000  0.000  0.074
    6  0.001  0.004  0.018  0.038  0.000  0.000  0.000  0.001  0.000  0.062
    7  0.000  0.006  0.014  0.041  0.000  0.000  0.000  0.001  0.000  0.062
    8  0.001  0.000  0.023  0.002  0.000  0.000  0.000  0.000  0.000  0.028
    9  0.000  0.004  0.007  0.028  0.000  0.000  0.000  0.001  0.000  0.041
   10  0.000  0.006  0.005  0.031  0.000  0.000  0.000  0.001  0.000  0.042
tot    0.005  0.023  0.131  0.148  0.002  0.003  0.001  0.199  0.250  0.762

band    17 # energy   -5.43219174 # occ.  1.00000000

ion      s     py     pz     px    dxy    dyz    dz2    dxz  x2-y2    tot
    1  0.000  0.000  0.000  0.001  0.124  0.098  0.000  0.000  0.000  0.224
    2  0.000  0.000  0.000  0.002  0.125  0.098  0.000  0.002  0.002  0.229
    3  0.000  0.000  0.000  0.000  0.000  0.000  0.000  0.000  0.000  0.000
    4  0.000  0.000  0.000  0.000  0.000  0.000  0.000  0.000  0.000  0.000
    5  0.000  0.057  0.000  0.000  0.000  0.001  0.000  0.000  0.000  0.058
    6  0.001  0.015  0.046  0.006  0.000  0.000  0.000  0.000  0.000  0.070
    7  0.002  0.014  0.050  0.003  0.000  0.000  0.000  0.000  0.000  0.070
    8  0.000  0.045  0.000  0.000  0.000  0.001  0.000  0.000  0.000  0.046
    9  0.001  0.009  0.016  0.006  0.000  0.000  0.000  0.000  0.000  0.033
   10  0.001  0.008  0.019  0.004  0.000  0.000  0.000  0.000  0.000  0.032
tot    0.005  0.148  0.131  0.023  0.250  0.199  0.001  0.003  0.002  0.762

band    18 # energy   -5.32641300 # occ.  1.00000000

ion      s     py     pz     px    dxy    dyz    dz2    dxz  x2-y2    tot
    1  0.006  0.000  0.000  0.000  0.000  0.000  0.117  0.000  0.000  0.123
    2  0.006  0.000  0.000  0.000  0.000  0.000  0.118  0.000  0.000  0.124
    3  0.001  0.000  0.053  0.000  0.000  0.000  0.000  0.000  0.000  0.055
    4  0.002  0.000  0.113  0.000  0.000  0.000  0.000  0.000  0.000  0.116
    5  0.000  0.000  0.013  0.015  0.000  0.000  0.000  0.001  0.001  0.030
    6  0.000  0.012  0.013  0.004  0.000  0.000  0.000  0.000  0.000  0.030
    7  0.000  0.011  0.013  0.004  0.000  0.000  0.000  0.000  0.000  0.030
    8  0.000  0.000  0.021  0.012  0.000  0.000  0.000  0.000  0.000  0.034
    9  0.000  0.009  0.021  0.003  0.000  0.000  0.000  0.000  0.000  0.034
   10  0.000  0.009  0.021  0.003  0.000  0.000  0.000  0.000  0.000  0.034
tot    0.018  0.041  0.269  0.041  0.001  0.001  0.236  0.001  0.001  0.611

band    19 # energy   -5.24965370 # occ.  1.00000000

ion      s     py     pz     px    dxy    dyz    dz2    dxz  x2-y2    tot
    1  0.000  0.000  0.000  0.001  0.080  0.091  0.000  0.001  0.002  0.175
    2  0.000  0.000  0.000  0.001  0.066  0.070  0.000  0.021  0.014  0.172
    3  0.000  0.000  0.000  0.000  0.000  0.000  0.000  0.000  0.000  0.000
    4  0.000  0.000  0.000  0.001  0.000  0.000  0.000  0.000  0.000  0.002
    5  0.005  0.001  0.091  0.001  0.000  0.000  0.000  0.000  0.000  0.099
    6  0.003  0.004  0.052  0.004  0.000  0.000  0.000  0.000  0.000  0.063
    7  0.000  0.004  0.005  0.010  0.000  0.000  0.000  0.000  0.000  0.021
    8  0.005  0.000  0.087  0.007  0.000  0.000  0.000  0.000  0.000  0.100
    9  0.003  0.005  0.051  0.000  0.000  0.000  0.000  0.000  0.000  0.059
   10  0.000  0.001  0.005  0.001  0.000  0.000  0.000  0.000  0.000  0.007
tot    0.017  0.017  0.292  0.027  0.147  0.161  0.000  0.022  0.016  0.699

band    20 # energy   -5.24963653 # occ.  1.00000000

ion      s     py     pz     px    dxy    dyz    dz2    dxz  x2-y2    tot
    1  0.000  0.001  0.000  0.000  0.002  0.001  0.000  0.091  0.080  0.175
    2  0.000  0.001  0.000  0.000  0.014  0.021  0.000  0.070  0.066  0.172
    3  0.000  0.000  0.000  0.000  0.000  0.000  0.000  0.000  0.000  0.000
    4  0.000  0.001  0.000  0.000  0.000  0.000  0.000  0.000  0.000  0.002
    5  0.000  0.014  0.008  0.000  0.000  0.000  0.000  0.000  0.000  0.023
    6  0.003  0.001  0.047  0.008  0.000  0.000  0.000  0.000  0.000  0.059
    7  0.006  0.000  0.094  0.002  0.000  0.000  0.000  0.000  0.000  0.101
    8  0.000  0.002  0.008  0.001  0.000  0.000  0.000  0.000  0.000  0.011
    9  0.003  0.001  0.044  0.003  0.000  0.000  0.000  0.000  0.000  0.052
   10  0.005  0.005  0.090  0.003  0.000  0.000  0.000  0.000  0.000  0.103
tot    0.017  0.027  0.292  0.017  0.016  0.022  0.000  0.161  0.147  0.699

band    21 # energy   -4.56782339 # occ.  1.00000000

ion      s     py     pz     px    dxy    dyz    dz2    dxz  x2-y2    tot
    1  0.000  0.000  0.012  0.000  0.000  0.000  0.004  0.000  0.000  0.016
    2  0.000  0.000  0.012  0.000  0.000  0.000  0.004  0.000  0.000  0.017
    3  0.004  0.000  0.010  0.000  0.000  0.000  0.000  0.000  0.000  0.014
    4  0.001  0.000  0.005  0.000  0.000  0.000  0.000  0.000  0.000  0.006
    5  0.000  0.000  0.072  0.000  0.000  0.000  0.000  0.000  0.000  0.072
    6  0.000  0.000  0.072  0.000  0.000  0.000  0.000  0.000  0.000  0.072
    7  0.000  0.000  0.072  0.000  0.000  0.000  0.000  0.000  0.000  0.072
    8  0.000  0.000  0.078  0.001  0.000  0.000  0.000  0.000  0.000  0.079
    9  0.000  0.001  0.078  0.000  0.000  0.000  0.000  0.000  0.000  0.079
   10  0.000  0.001  0.078  0.000  0.000  0.000  0.000  0.000  0.000  0.079
tot    0.005  0.001  0.491  0.001  0.000  0.000  0.008  0.000  0.000  0.507

band    22 # energy   -4.55284843 # occ.  1.00000000

ion      s     py     pz     px    dxy    dyz    dz2    dxz  x2-y2    tot
    1  0.000  0.017  0.000  0.000  0.003  0.000  0.000  0.033  0.000  0.053
    2  0.000  0.017  0.000  0.001  0.002  0.000  0.000  0.033  0.000  0.053
    3  0.000  0.000  0.000  0.014  0.000  0.000  0.000  0.000  0.000  0.014
    4  0.000  0.000  0.000  0.023  0.000  0.000  0.000  0.000  0.000  0.023
    5  0.006  0.000  0.075  0.028  0.000  0.000  0.000  0.000  0.001  0.110
    6  0.002  0.000  0.022  0.031  0.000  0.000  0.000  0.000  0.000  0.056
    7  0.001  0.000  0.016  0.031  0.000  0.000  0.000  0.001  0.000  0.049
    8  0.006  0.000  0.123  0.025  0.000  0.000  0.000  0.000  0.001  0.155
    9  0.002  0.001  0.036  0.017  0.000  0.000  0.000  0.000  0.000  0.056
   10  0.001  0.000  0.025  0.016  0.000  0.000  0.000  0.000  0.000  0.044
tot    0.018  0.035  0.297  0.187  0.006  0.001  0.000  0.068  0.003  0.614

band    23 # energy   -4.55283651 # occ.  1.00000000

ion      s     py     pz     px    dxy    dyz    dz2    dxz  x2-y2    tot
    1  0.000  0.000  0.000  0.017  0.000  0.033  0.000  0.000  0.003  0.053
    2  0.000  0.001  0.000  0.017  0.000  0.033  0.000  0.000  0.002  0.053
    3  0.000  0.014  0.000  0.000  0.000  0.000  0.000  0.000  0.000  0.014
    4  0.000  0.023  0.000  0.000  0.000  0.000  0.000  0.000  0.000  0.023
    5  0.000  0.032  0.000  0.000  0.000  0.001  0.000  0.000  0.000  0.034
    6  0.004  0.029  0.053  0.000  0.001  0.000  0.000  0.000  0.000  0.088
    7  0.005  0.029  0.059  0.000  0.001  0.000  0.000  0.000  0.000  0.094
    8  0.000  0.014  0.000  0.000  0.000  0.001  0.000  0.000  0.000  0.015
    9  0.004  0.022  0.087  0.000  0.000  0.000  0.000  0.000  0.000  0.114
   10  0.005  0.022  0.097  0.001  0.000  0.000  0.000  0.000  0.000  0.126
tot    0.018  0.187  0.297  0.035  0.003  0.068  0.000  0.001  0.006  0.614

band    24 # energy   -3.74134257 # occ.  1.00000000

ion      s     py     pz     px    dxy    dyz    dz2    dxz  x2-y2    tot
    1  0.000  0.005  0.000  0.001  0.003  0.000  0.000  0.140  0.197  0.345
    2  0.000  0.000  0.000  0.005  0.162  0.095  0.000  0.053  0.048  0.364
    3  0.000  0.000  0.000  0.002  0.000  0.000  0.000  0.000  0.000  0.002
    4  0.000  0.005  0.000  0.021  0.000  0.000  0.000  0.000  0.000  0.027
    5  0.001  0.001  0.005  0.004  0.000  0.000  0.000  0.000  0.002  0.015
    6  0.000  0.001  0.000  0.005  0.000  0.000  0.000  0.000  0.001  0.008
    7  0.001  0.001  0.005  0.005  0.001  0.000  0.000  0.000  0.001  0.014
    8  0.001  0.005  0.007  0.007  0.000  0.000  0.000  0.000  0.000  0.021
    9  0.000  0.005  0.000  0.020  0.000  0.000  0.000  0.000  0.001  0.026
   10  0.001  0.001  0.007  0.013  0.000  0.000  0.000  0.000  0.000  0.022
tot    0.004  0.026  0.024  0.083  0.167  0.096  0.001  0.193  0.251  0.843

band    25 # energy   -3.74133733 # occ.  1.00000000

ion      s     py     pz     px    dxy    dyz    dz2    dxz  x2-y2    tot
    1  0.000  0.001  0.000  0.005  0.197  0.140  0.000  0.000  0.003  0.345
    2  0.000  0.005  0.000  0.000  0.048  0.053  0.000  0.095  0.162  0.364
    3  0.000  0.002  0.000  0.000  0.000  0.000  0.000  0.000  0.000  0.002
    4  0.000  0.021  0.000  0.005  0.000  0.000  0.000  0.000  0.000  0.027
    5  0.000  0.006  0.002  0.001  0.001  0.000  0.000  0.000  0.001  0.010
    6  0.001  0.004  0.007  0.001  0.002  0.000  0.000  0.000  0.001  0.017
    7  0.000  0.005  0.002  0.002  0.001  0.000  0.000  0.000  0.000  0.010
    8  0.000  0.020  0.002  0.002  0.001  0.000  0.000  0.000  0.000  0.025
    9  0.001  0.007  0.009  0.001  0.000  0.000  0.000  0.000  0.000  0.020
   10  0.000  0.012  0.003  0.008  0.000  0.000  0.000  0.000  0.001  0.024
tot    0.004  0.083  0.024  0.026  0.251  0.193  0.001  0.096  0.167  0.843

band    26 # energy   -3.61329152 # occ.  1.00000000

ion      s     py     pz     px    dxy    dyz    dz2    dxz  x2-y2    tot
    1  0.000  0.000  0.000  0.003  0.202  0.137  0.000  0.019  0.009  0.371
    2  0.000  0.002  0.000  0.001  0.048  0.018  0.000  0.132  0.153  0.354
    3  0.000  0.004  0.000  0.018  0.000  0.000  0.000  0.000  0.000  0.022
    4  0.000  0.001  0.000  0.005  0.000  0.000  0.000  0.000  0.000  0.006
    5  0.002  0.002  0.003  0.004  0.000  0.000  0.001  0.000  0.000  0.012
    6  0.000  0.003  0.000  0.012  0.000  0.000  0.000  0.000  0.001  0.016
    7  0.001  0.000  0.003  0.008  0.000  0.000  0.001  0.000  0.000  0.013
    8  0.001  0.001  0.000  0.026  0.000  0.000  0.000  0.000  0.002  0.031
    9  0.000  0.001  0.000  0.009  0.000  0.000  0.000  0.000  0.000  0.011
   10  0.001  0.008  0.000  0.015  0.001  0.000  0.000  0.000  0.001  0.027
tot    0.006  0.023  0.007  0.101  0.252  0.155  0.002  0.151  0.166  0.862

band    27 # energy   -3.61327920 # occ.  1.00000000

ion      s     py     pz     px    dxy    dyz    dz2    dxz  x2-y2    tot
    1  0.000  0.003  0.000  0.000  0.009  0.019  0.000  0.137  0.202  0.371
    2  0.000  0.001  0.000  0.002  0.153  0.132  0.000  0.018  0.048  0.354
    3  0.000  0.018  0.000  0.004  0.000  0.000  0.000  0.000  0.000  0.022
    4  0.000  0.005  0.000  0.001  0.000  0.000  0.000  0.000  0.000  0.006
    5  0.000  0.013  0.001  0.001  0.001  0.000  0.000  0.000  0.000  0.016
    6  0.002  0.004  0.004  0.000  0.000  0.000  0.001  0.000  0.000  0.012
    7  0.001  0.007  0.001  0.004  0.000  0.000  0.000  0.000  0.001  0.014
    8  0.000  0.009  0.000  0.005  0.000  0.000  0.000  0.000  0.000  0.014
    9  0.002  0.025  0.000  0.006  0.002  0.000  0.000  0.000  0.001  0.035
   10  0.001  0.017  0.000  0.000  0.001  0.000  0.000  0.000  0.000  0.019
tot    0.006  0.101  0.006  0.023  0.166  0.151  0.002  0.155  0.252  0.862

band    28 # energy   -3.50291575 # occ.  1.00000000

ion      s     py     pz     px    dxy    dyz    dz2    dxz  x2-y2    tot
    1  0.014  0.000  0.000  0.000  0.000  0.000  0.421  0.000  0.000  0.435
    2  0.013  0.000  0.000  0.000  0.000  0.000  0.448  0.000  0.000  0.461
    3  0.000  0.000  0.000  0.000  0.000  0.000  0.000  0.000  0.000  0.000
    4  0.000  0.000  0.000  0.000  0.000  0.000  0.000  0.000  0.000  0.000
    5  0.000  0.003  0.000  0.000  0.000  0.000  0.000  0.000  0.000  0.004
    6  0.000  0.001  0.000  0.002  0.000  0.000  0.000  0.000  0.000  0.004
    7  0.000  0.001  0.000  0.002  0.000  0.000  0.000  0.000  0.000  0.004
    8  0.000  0.003  0.000  0.000  0.000  0.000  0.000  0.000  0.000  0.004
    9  0.000  0.001  0.000  0.003  0.000  0.000  0.000  0.000  0.000  0.004
   10  0.000  0.001  0.000  0.003  0.000  0.000  0.000  0.000  0.000  0.004
tot    0.027  0.010  0.000  0.010  0.000  0.001  0.869  0.001  0.000  0.920

band    29 # energy   -3.42711288 # occ.  1.00000000

ion      s     py     pz     px    dxy    dyz    dz2    dxz  x2-y2    tot
    1  0.013  0.000  0.000  0.000  0.000  0.000  0.317  0.000  0.000  0.330
    2  0.014  0.000  0.000  0.000  0.000  0.000  0.288  0.000  0.000  0.303
    3  0.001  0.000  0.020  0.000  0.000  0.000  0.000  0.000  0.000  0.020
    4  0.002  0.000  0.034  0.000  0.000  0.000  0.000  0.000  0.000  0.036
    5  0.002  0.000  0.022  0.000  0.000  0.000  0.001  0.000  0.000  0.025
    6  0.002  0.000  0.022  0.000  0.000  0.000  0.001  0.000  0.000  0.025
    7  0.002  0.000  0.022  0.000  0.000  0.000  0.001  0.000  0.000  0.025
    8  0.002  0.000  0.010  0.002  0.000  0.000  0.001  0.000  0.000  0.015
    9  0.002  0.002  0.010  0.000  0.000  0.000  0.001  0.000  0.000  0.015
   10  0.002  0.001  0.010  0.001  0.000  0.000  0.001  0.000  0.000  0.015
tot    0.043  0.003  0.148  0.003  0.000  0.000  0.612  0.000  0.000  0.810

band    30 # energy   -3.15437278 # occ.  1.00000000

ion      s     py     pz     px    dxy    dyz    dz2    dxz  x2-y2    tot
    1  0.000  0.000  0.000  0.018  0.102  0.018  0.000  0.006  0.004  0.148
    2  0.000  0.000  0.000  0.018  0.104  0.021  0.000  0.001  0.001  0.146
    3  0.000  0.000  0.000  0.002  0.000  0.000  0.000  0.000  0.000  0.002
    4  0.000  0.000  0.000  0.001  0.000  0.000  0.000  0.000  0.000  0.001
    5  0.000  0.002  0.010  0.018  0.000  0.000  0.000  0.000  0.000  0.030
    6  0.000  0.011  0.001  0.080  0.000  0.000  0.000  0.000  0.000  0.092
    7  0.000  0.003  0.004  0.068  0.000  0.000  0.000  0.000  0.000  0.075
    8  0.000  0.002  0.011  0.036  0.000  0.000  0.000  0.000  0.001  0.051
    9  0.000  0.009  0.002  0.095  0.000  0.000  0.000  0.000  0.000  0.106
   10  0.000  0.001  0.004  0.084  0.000  0.000  0.000  0.000  0.000  0.090
tot    0.001  0.029  0.032  0.419  0.207  0.039  0.000  0.008  0.006  0.741

band    31 # energy   -3.15435724 # occ.  1.00000000

ion      s     py     pz     px    dxy    dyz    dz2    dxz  x2-y2    tot
    1  0.000  0.018  0.000  0.000  0.004  0.006  0.000  0.018  0.102  0.148
    2  0.000  0.018  0.000  0.000  0.001  0.001  0.000  0.021  0.104  0.146
    3  0.000  0.002  0.000  0.000  0.000  0.000  0.000  0.000  0.000  0.002
    4  0.000  0.001  0.000  0.000  0.000  0.000  0.000  0.000  0.000  0.001
    5  0.000  0.101  0.000  0.000  0.000  0.000  0.000  0.000  0.000  0.101
    6  0.000  0.028  0.008  0.002  0.000  0.000  0.000  0.000  0.000  0.039
    7  0.000  0.036  0.006  0.014  0.000  0.000  0.000  0.000  0.000  0.057
    8  0.000  0.113  0.000  0.001  0.000  0.000  0.000  0.000  0.000  0.114
    9  0.000  0.047  0.010  0.001  0.000  0.000  0.000  0.000  0.000  0.059