<?xml version="1.0" encoding="ISO-8859-1"?>
<modeling>
 <generator>
  <i name="program" type="string">vasp </i>
  <i name="version" type="string">5.4.4.18Apr17-6-g9f103f2a35  </i>
  <i name="subversion" type="string">(build May  1 2020 15:48:39) complex            parallel </i>
  <i name="platform" type="string">LinuxGNU </i>
  <i name="date" type="string">2020 06 16 </i>
  <i name="time" type="string">04:52:04 </i>
 </generator>
 <incar>
  <i type="int" name="ISTART">     1</i>
  <i type="string" name="PREC">accurate</i>
  <i type="string" name="ALGO"> Normal</i>
  <i type="int" name="ISPIN">     2</i>
  <i name="AMIN">      0.01000000</i>
  <i type="int" name="NELM">   400</i>
  <i type="int" name="IBRION">     2</i>
  <i name="EDIFF">      0.00010000</i>
  <i type="int" name="NSW">    99</i>
  <i type="int" name="ISIF">     3</i>
  <i name="ENCUT">    520.00000000</i>
  <v name="MAGMOM">      5.00000000      5.00000000      0.60000000      0.60000000      0.60000000      0.60000000      0.60000000      0.60000000      0.60000000      0.60000000</v>
  <i type="string" name="LREAL"> Auto</i>
  <i type="int" name="ISMEAR">    -5</i>
  <i name="SIGMA">      0.05000000</i>
  <i type="logical" name="LWAVE"> F  </i>
  <i type="int" name="LORBIT">    11</i>
  <v type="int" name="KPOINT_BSE">    -1     0     0     0</v>
  <i type="int" name="NELM">   400</i>
  <i type="string" name="GGA"> Bo</i>
  <i name="PARAM1">      0.18333333</i>
  <i name="PARAM2">      0.22000000</i>
  <i type="logical" name="LUSE_VDW"> T  </i>
  <i name="AGGAC">      0.00000000</i>
 </incar>
 <structure name="primitive_cell" >
  <crystal>
   <varray name="basis" >
    <v>       6.90777700      -0.00000000       0.00000000 </v>
    <v>       3.45388800       5.98231000       0.00000000 </v>
    <v>       0.00000000       0.00000000      23.44458800 </v>
   </varray>
   <i name="volume">    968.83501932 </i>
   <varray name="rec_basis" >
    <v>       0.14476437      -0.08357974       0.00000000 </v>
    <v>       0.00000000       0.16715951      -0.00000000 </v>
    <v>      -0.00000000       0.00000000       0.04265377 </v>
   </varray>
  </crystal>
  <varray name="positions" >
   <v>       0.33333300       0.33333300       0.49992500 </v>
   <v>       0.00042000       0.37322400      -0.42624800 </v>
   <v>      -0.37364300       0.00042000      -0.42624800 </v>
   <v>       0.37322400      -0.37364300      -0.42624800 </v>
   <v>       0.37364300      -0.00042000       0.42624800 </v>
   <v>      -0.37322400       0.37364300       0.42624800 </v>
   <v>      -0.00042000      -0.37322400       0.42624800 </v>
   <v>      -0.33333300      -0.33333300      -0.49992500 </v>
   <v>       0.00000000       0.00000000       0.44821600 </v>
   <v>       0.00000000       0.00000000      -0.44821600 </v>
  </varray>
 </structure>
 <varray name="primitive_index" >
  <v type="int" >        1 </v>
  <v type="int" >        6 </v>
  <v type="int" >        5 </v>
  <v type="int" >        7 </v>
  <v type="int" >        8 </v>
  <v type="int" >       10 </v>
  <v type="int" >        9 </v>
  <v type="int" >        2 </v>
  <v type="int" >        3 </v>
  <v type="int" >        4 </v>
 </varray>
 <kpoints>
  <generation param="Gamma">
   <v type="int" name="divisions">       5        5        1 </v>
   <v name="usershift">      0.00000000       0.00000000       0.00000000 </v>
   <v name="genvec1">      0.20000000       0.00000000       0.00000000 </v>
   <v name="genvec2">      0.00000000       0.20000000       0.00000000 </v>
   <v name="genvec3">      0.00000000       0.00000000       1.00000000 </v>
   <v name="shift">      0.00000000       0.00000000       0.00000000 </v>
  </generation>
  <varray name="kpointlist" >
   <v>       0.00000000       0.00000000       0.00000000 </v>
   <v>       0.20000000       0.00000000       0.00000000 </v>
   <v>       0.40000000       0.00000000       0.00000000 </v>
   <v>       0.40000000       0.20000000       0.00000000 </v>
   <v>      -0.40000000       0.20000000       0.00000000 </v>
  </varray>
  <varray name="weights" >
   <v>       0.04000000 </v>
   <v>       0.24000000 </v>
   <v>       0.24000000 </v>
   <v>       0.24000000 </v>
   <v>       0.24000000 </v>
  </varray>
  <varray name="tetrahedronlist"  type="int" >
   <v type="int" >        6        1        1        2        2 </v>
   <v type="int" >       12        1        2        2        2 </v>
   <v type="int" >       12        2        2        3        4 </v>
   <v type="int" >       12        2        2        2        4 </v>
   <v type="int" >       12        2        3        3        4 </v>
   <v type="int" >       12        2        3        4        4 </v>
   <v type="int" >        6        2        2        4        4 </v>
   <v type="int" >       12        3        3        3        5 </v>
   <v type="int" >       12        3        3        4        5 </v>
   <v type="int" >       12        3        4        4        5 </v>
   <v type="int" >        6        3        3        5        5 </v>
   <v type="int" >       12        3        4        5        5 </v>
   <v type="int" >        6        4        4        5        5 </v>
   <v type="int" >       12        4        5        5        5 </v>
   <v type="int" >        6        5        5        5        5 </v>
  </varray>
  <i name="volumeweight">      0.00666667 </i>
 </kpoints>
 <parameters>
  <separator name="general" >
   <i type="string" name="SYSTEM">unknown system</i>
   <i type="logical" name="LCOMPAT"> F  </i>
  </separator>
  <separator name="electronic" >
   <i type="string" name="PREC">accura</i>
   <i name="ENMAX">    520.00000000</i>
   <i name="ENAUG">    446.84200000</i>
   <i name="EDIFF">      0.00010000</i>
   <i type="int" name="IALGO">    38</i>
   <i type="int" name="IWAVPR">    11</i>
   <i type="int" name="NBANDS">    48</i>
   <i name="NELECT">     57.00000000</i>
   <i type="int" name="TURBO">     0</i>
   <i type="int" name="IRESTART">     0</i>
   <i type="int" name="NREBOOT">     0</i>
   <i type="int" name="NMIN">     0</i>
   <i name="EREF">      0.00000000</i>
   <separator name="electronic smearing" >
    <i type="int" name="ISMEAR">    -5</i>
    <i name="SIGMA">      0.05000000</i>
    <i name="KSPACING">      0.50000000</i>
    <i type="logical" name="KGAMMA"> T  </i>
   </separator>
   <separator name="electronic projectors" >
    <i type="logical" name="LREAL"> T  </i>
    <v name="ROPT">     -0.00025000     -0.00025000     -0.00025000     -0.00025000</v>
    <i type="int" name="LMAXPAW">  -100</i>
    <i type="int" name="LMAXMIX">     2</i>
    <i type="logical" name="NLSPLINE"> F  </i>
   </separator>
   <separator name="electronic startup" >
    <i type="int" name="ISTART">     0</i>
    <i type="int" name="ICHARG">     2</i>
    <i type="int" name="INIWAV">     1</i>
   </separator>
   <separator name="electronic spin" >
    <i type="int" name="ISPIN">     2</i>
    <i type="logical" name="LNONCOLLINEAR"> F  </i>
    <v name="MAGMOM">      5.00000000      5.00000000      0.60000000      0.60000000      0.60000000      0.60000000      0.60000000      0.60000000      0.60000000      0.60000000</v>
    <i name="NUPDOWN">     -1.00000000</i>
    <i type="logical" name="LSORBIT"> F  </i>
    <v name="SAXIS">      0.00000000      0.00000000      1.00000000</v>
    <i type="logical" name="LSPIRAL"> F  </i>
    <v name="QSPIRAL">      0.00000000      0.00000000      0.00000000</v>
    <i type="logical" name="LZEROZ"> F  </i>
   </separator>
   <separator name="electronic exchange-correlation" >
    <i type="logical" name="LASPH"> F  </i>
    <i type="logical" name="LMETAGGA"> F  </i>
   </separator>
   <separator name="electronic convergence" >
    <i type="int" name="NELM">   400</i>
    <i type="int" name="NELMDL">     0</i>
    <i type="int" name="NELMIN">     2</i>
    <i name="ENINI">    520.00000000</i>
    <separator name="electronic convergence detail" >
     <i type="logical" name="LDIAG"> T  </i>
     <i type="logical" name="LSUBROT"> F  </i>
     <i name="WEIMIN">      0.00100000</i>
     <i name="EBREAK">      0.00000052</i>
     <i name="DEPER">      0.30000000</i>
     <i type="int" name="NRMM">     4</i>
     <i name="TIME">      0.40000000</i>
    </separator>
   </separator>
   <separator name="electronic mixer" >
    <i name="AMIX">      0.40000000</i>
    <i name="BMIX">      1.00000000</i>
    <i name="AMIN">      0.01000000</i>
    <i name="AMIX_MAG">      1.60000000</i>
    <i name="BMIX_MAG">      1.00000000</i>
    <separator name="electronic mixer details" >
     <i type="int" name="IMIX">     4</i>
     <i type="logical" name="MIXFIRST"> F  </i>
     <i type="int" name="MAXMIX">   -45</i>
     <i name="WC">    100.00000000</i>
     <i type="int" name="INIMIX">     1</i>
     <i type="int" name="MIXPRE">     1</i>
     <i type="int" name="MREMOVE">     5</i>
    </separator>
   </separator>
   <separator name="electronic dipolcorrection" >
    <i type="logical" name="LDIPOL"> F  </i>
    <i type="logical" name="LMONO"> F  </i>
    <i type="int" name="IDIPOL">     0</i>
    <i name="EPSILON">      1.00000000</i>
    <v name="DIPOL">   -100.00000000   -100.00000000   -100.00000000</v>
    <i name="EFIELD">      0.00000000</i>
   </separator>
  </separator>
  <separator name="grids" >
   <i type="int" name="NGX">    54</i>
   <i type="int" name="NGY">    54</i>
   <i type="int" name="NGZ">   180</i>
   <i type="int" name="NGXF">   108</i>
   <i type="int" name="NGYF">   108</i>
   <i type="int" name="NGZF">   360</i>
   <i type="logical" name="ADDGRID"> F  </i>
  </separator>
  <separator name="ionic" >
   <i type="int" name="NSW">    99</i>
   <i type="int" name="IBRION">     2</i>
   <i type="int" name="MDALGO">     0</i>
   <i type="int" name="ISIF">     3</i>
   <i name="PSTRESS">      0.00000000</i>
   <i name="EDIFFG">      0.00100000</i>
   <i type="int" name="NFREE">     1</i>
   <i name="POTIM">      0.50000000</i>
   <i name="SMASS">     -3.00000000</i>
   <i name="SCALEE">      1.00000000</i>
  </separator>
  <separator name="ionic md" >
   <i name="TEBEG">      0.00010000</i>
   <i name="TEEND">      0.00010000</i>
   <i type="int" name="NBLOCK">     1</i>
   <i type="int" name="KBLOCK">    99</i>
   <i type="int" name="NPACO">   256</i>
   <i name="APACO">     16.00000000</i>
  </separator>
  <separator name="symmetry" >
   <i type="int" name="ISYM">     2</i>
   <i name="SYMPREC">      0.00001000</i>
  </separator>
  <separator name="dos" >
   <i type="int" name="LORBIT">    11</i>
   <v name="RWIGS">     -1.00000000     -1.00000000     -1.00000000     -1.00000000</v>
   <i type="int" name="NEDOS">   301</i>
   <i name="EMIN">     10.00000000</i>
   <i name="EMAX">    -10.00000000</i>
   <i name="EFERMI">      0.00000000</i>
  </separator>
  <separator name="writing" >
   <i type="int" name="NWRITE">     2</i>
   <i type="logical" name="LWAVE"> F  </i>
   <i type="logical" name="LDOWNSAMPLE"> F  </i>
   <i type="logical" name="LCHARG"> T  </i>
   <i type="logical" name="LPARD"> F  </i>
   <i type="logical" name="LVTOT"> F  </i>
   <i type="logical" name="LVHAR"> F  </i>
   <i type="logical" name="LELF"> F  </i>
   <i type="logical" name="LOPTICS"> F  </i>
   <v name="STM">      0.00000000      0.00000000      0.00000000      0.00000000      0.00000000      0.00000000      0.00000000</v>
  </separator>
  <separator name="performance" >
   <i type="int" name="NPAR">    24</i>
   <i type="int" name="NSIM">     4</i>
   <i type="int" name="NBLK">    -1</i>
   <i type="logical" name="LPLANE"> T  </i>
   <i type="logical" name="LSCALAPACK"> T  </i>
   <i type="logical" name="LSCAAWARE"> F  </i>
   <i type="logical" name="LSCALU"> F  </i>
   <i type="logical" name="LASYNC"> F  </i>
   <i type="logical" name="LORBITALREAL"> F  </i>
  </separator>
  <separator name="miscellaneous" >
   <i type="int" name="IDIOT">     3</i>
   <i type="int" name="ISPECIAL">     0</i>
   <i type="logical" name="LMUSIC"> F  </i>
   <v name="POMASS">     51.99600000     28.08500000     30.97400000     78.96000000</v>
   <v name="DARWINR">      0.00000000      0.00000000      0.00000000      0.00000000</v>
   <v name="DARWINV">      1.00000000      1.00000000      1.00000000      1.00000000</v>
   <i type="logical" name="LCORR"> T  </i>
  </separator>
  <i type="logical" name="GGA_COMPAT"> T  </i>
  <i type="logical" name="LBERRY"> F  </i>
  <i type="int" name="ICORELEVEL">     0</i>
  <i type="logical" name="LDAU"> F  </i>
  <i type="int" name="I_CONSTRAINED_M">     0</i>
  <separator name="electronic exchange-correlation" >
   <i type="string" name="GGA">BO</i>
   <i type="int" name="VOSKOWN">     0</i>
   <i type="logical" name="LHFCALC"> F  </i>
   <i type="string" name="PRECFOCK"></i>
   <i type="logical" name="LSYMGRAD"> F  </i>
   <i type="logical" name="LHFONE"> F  </i>
   <i type="logical" name="LRHFCALC"> F  </i>
   <i type="logical" name="LTHOMAS"> F  </i>
   <i type="logical" name="LMODELHF"> F  </i>
   <i name="ENCUT4O">     -1.00000000</i>
   <i type="int" name="EXXOEP">     0</i>
   <i type="int" name="FOURORBIT">     0</i>
   <i name="AEXX">      0.00000000</i>
   <i name="HFALPHA">      0.00000000</i>
   <i name="MCALPHA">      0.00000000</i>
   <i name="ALDAX">      1.00000000</i>
   <i name="AGGAX">      1.00000000</i>
   <i name="ALDAC">      1.00000000</i>
   <i name="AGGAC">      0.00000000</i>
   <i type="int" name="NKREDX">     1</i>
   <i type="int" name="NKREDY">     1</i>
   <i type="int" name="NKREDZ">     1</i>
   <i type="logical" name="SHIFTRED"> F  </i>
   <i type="logical" name="ODDONLY"> F  </i>
   <i type="logical" name="EVENONLY"> F  </i>
   <i type="int" name="LMAXFOCK">     0</i>
   <i type="int" name="NMAXFOCKAE">     0</i>
   <i type="logical" name="LFOCKAEDFT"> F  </i>
   <i name="HFSCREEN">      0.00000000</i>
   <i name="HFSCREENC">      0.00000000</i>
   <i type="int" name="NBANDSGWLOW">     0</i>
  </separator>
  <separator name="vdW DFT" >
   <i type="logical" name="LUSE_VDW"> T  </i>
   <i name="Zab_VDW">     -0.84910000</i>
   <i name="PARAM1">      0.18333333</i>
   <i name="PARAM2">      0.22000000</i>
   <i name="PARAM3">      0.00000000</i>
  </separator>
  <separator name="model GW" >
   <i type="int" name="MODEL_GW">     0</i>
   <i name="MODEL_EPS0">     58.13010116</i>
   <i name="MODEL_ALPHA">      1.00000000</i>
  </separator>
  <separator name="linear response parameters" >
   <i type="logical" name="LEPSILON"> F  </i>
   <i type="logical" name="LRPA"> F  </i>
   <i type="logical" name="LNABLA"> F  </i>
   <i type="logical" name="LVEL"> F  </i>
   <i type="int" name="KINTER">     0</i>
   <i name="CSHIFT">      0.10000000</i>
   <i name="OMEGAMAX">     -1.00000000</i>
   <i name="DEG_THRESHOLD">      0.00200000</i>
   <i name="RTIME">     -0.10000000</i>
   <i name="WPLASMAI">      0.00000000</i>
   <v name="DFIELD">      0.00000000      0.00000000      0.00000000</v>
   <v name="WPLASMA">      0.00000000      0.00000000      0.00000000      0.00000000      0.00000000      0.00000000      0.00000000      0.00000000      0.00000000</v>
  </separator>
  <separator name="orbital magnetization" >
   <i type="logical" name="NUCIND"> F  </i>
   <v name="MAGPOS">      0.00000000      0.00000000      0.00000000</v>
   <i type="logical" name="LNICSALL"> T  </i>
   <i type="logical" name="ORBITALMAG"> F  </i>
   <i type="logical" name="LMAGBLOCH"> F  </i>
   <i type="logical" name="LCHIMAG"> F  </i>
   <i type="logical" name="LGAUGE"> T  </i>
   <i type="int" name="MAGATOM">     0</i>
   <v name="MAGDIPOL">      0.00000000      0.00000000      0.00000000</v>
   <v name="AVECCONST">      0.00000000      0.00000000      0.00000000</v>
  </separator>
  <separator name="response functions" >
   <i type="logical" name="LADDER"> F  </i>
   <i type="logical" name="LRPAFORCE"> F  </i>
   <i type="logical" name="LFXC"> F  </i>
   <i type="logical" name="LHARTREE"> T  </i>
   <i type="int" name="IBSE">     0</i>
   <v type="int" name="KPOINT">    -1     0     0     0</v>
   <i type="logical" name="LTCTE"> F  </i>
   <i type="logical" name="LTETE"> F  </i>
   <i type="logical" name="LTRIPLET"> F  </i>
   <i type="logical" name="LFXCEPS"> F  </i>
   <i type="logical" name="LFXHEG"> F  </i>
   <i type="int" name="NATURALO">     2</i>
   <i type="logical" name="L2ORDER"> F  </i>
   <i type="logical" name="LMP2LT"> F  </i>
   <i type="logical" name="LUSEW"> F  </i>
   <i name="ENCUTGW">     -2.00000000</i>
   <i name="ENCUTGWSOFT">     -2.00000000</i>
   <i name="ENCUTLF">     -1.00000000</i>
   <i type="int" name="LMAXMP2">    -1</i>
   <i name="SCISSOR">      0.00000000</i>
   <i type="int" name="NOMEGA">     0</i>
   <i type="int" name="NOMEGAR">     0</i>
   <i type="int" name="NBANDSGW">    -1</i>
   <i type="int" name="NBANDSO">    -1</i>
   <i type="int" name="NBANDSV">    -1</i>
   <i type="int" name="NELM">   400</i>
   <i type="int" name="NELMHF">     1</i>
   <i type="int" name="DIM">     3</i>
   <i type="int" name="ANTIRES">     0</i>
   <i name="OMEGAMAX">    -30.00000000</i>
   <i name="OMEGAMIN">    -30.00000000</i>
   <i name="OMEGATL">   -200.00000000</i>
   <i type="int" name="OMEGAGRID">   140</i>
   <i name="CSHIFT">     -0.10000000</i>
   <i type="logical" name="SELFENERGY"> F  </i>
   <i type="logical" name="LSPECTRAL"> F  </i>
   <i type="logical" name="LSPECTRALGW"> F  </i>
   <i type="logical" name="LSINGLES"> F  </i>
   <i type="logical" name="LFERMIGW"> F  </i>
   <i type="logical" name="ODDONLYGW"> F  </i>
   <i type="logical" name="EVENONLYGW"> F  </i>
   <i type="int" name="NKREDLFX">     1</i>
   <i type="int" name="NKREDLFY">     1</i>
   <i type="int" name="NKREDLFZ">     1</i>
   <i type="int" name="MAXMEM">  2800</i>
   <i type="int" name="TELESCOPE">     0</i>
   <i type="int" name="TAUPAR">     1</i>
   <i type="int" name="OMEGAPAR">    -1</i>
   <i name="LAMBDA">      1.00000000</i>
  </separator>
  <separator name="External order field" >
   <i name="OFIELD_KAPPA">      0.00000000</i>
   <v name="OFIELD_K">      0.00000000      0.00000000      0.00000000</v>
   <i name="OFIELD_Q6_NEAR">      0.00000000</i>
   <i name="OFIELD_Q6_FAR">      0.00000000</i>
   <i name="OFIELD_A">      0.00000000</i>
  </separator>
 </parameters>
 <atominfo>
  <atoms>      10 </atoms>
  <types>       4 </types>
  <array name="atoms" >
   <dimension dim="1">ion</dimension>
   <field type="string">element</field>
   <field type="int">atomtype</field>
   <set>
    <rc><c>Cr</c><c>   1</c></rc>
    <rc><c>Cr</c><c>   1</c></rc>
    <rc><c>Si</c><c>   2</c></rc>
    <rc><c>P </c><c>   3</c></rc>
    <rc><c>Se</c><c>   4</c></rc>
    <rc><c>Se</c><c>   4</c></rc>
    <rc><c>Se</c><c>   4</c></rc>
    <rc><c>Se</c><c>   4</c></rc>
    <rc><c>Se</c><c>   4</c></rc>
    <rc><c>Se</c><c>   4</c></rc>
   </set>
  </array>
  <array name="atomtypes" >
   <dimension dim="1">type</dimension>
   <field type="int">atomspertype</field>
   <field type="string">element</field>
   <field>mass</field>
   <field>valence</field>
   <field type="string">pseudopotential</field>
   <set>
    <rc><c>   2</c><c>Cr</c><c>     51.99600000</c><c>      6.00000000</c><c> PAW_PBE Cr 06Sep2000                   </c></rc>
    <rc><c>   1</c><c>Si</c><c>     28.08500000</c><c>      4.00000000</c><c> PAW_PBE Si 05Jan2001                   </c></rc>
    <rc><c>   1</c><c>P </c><c>     30.97400000</c><c>      5.00000000</c><c>  PAW_PBE P 17Jan2003                   </c></rc>
    <rc><c>   6</c><c>Se</c><c>     78.96000000</c><c>      6.00000000</c><c> PAW_PBE Se 06Sep2000                   </c></rc>
   </set>
  </array>
 </atominfo>
 <structure name="initialpos" >
  <crystal>
   <varray name="basis" >
    <v>       6.90777700      -0.00000000       0.00000000 </v>
    <v>       3.45388800       5.98231000       0.00000000 </v>
    <v>       0.00000000       0.00000000      23.44458800 </v>
   </varray>
   <i name="volume">    968.83501932 </i>
   <varray name="rec_basis" >
    <v>       0.14476437      -0.08357974       0.00000000 </v>
    <v>       0.00000000       0.16715951      -0.00000000 </v>
    <v>      -0.00000000       0.00000000       0.04265377 </v>
   </varray>
  </crystal>
  <varray name="positions" >
   <v>       0.33333300       0.33333300       0.49992500 </v>
   <v>       0.66666700       0.66666700       0.50007500 </v>
   <v>       0.00000000       0.00000000       0.44821600 </v>
   <v>       0.00000000       0.00000000       0.55178400 </v>
   <v>       0.62635700       0.00042000       0.57375200 </v>
   <v>       0.00042000       0.37322400       0.57375200 </v>
   <v>       0.37322400       0.62635700       0.57375200 </v>
   <v>       0.37364300       0.99958000       0.42624800 </v>
   <v>       0.99958000       0.62677600       0.42624800 </v>
   <v>       0.62677600       0.37364300       0.42624800 </v>
  </varray>
  <varray name="selective"  type="logical" >
   <v type="logical" >  F  F  F </v>
   <v type="logical" >  F  F  F </v>
   <v type="logical" >  T  T  T </v>
   <v type="logical" >  T  T  T </v>
   <v type="logical" >  T  T  T </v>
   <v type="logical" >  T  T  T </v>
   <v type="logical" >  T  T  T </v>
   <v type="logical" >  T  T  T </v>
   <v type="logical" >  T  T  T </v>
   <v type="logical" >  T  T  T </v>
  </varray>
  <nose>
   <v>      -3.00000000       0.00000000       0.00010000       0.00010000 </v>
  </nose>
 </structure>
 <calculation>
  <scstep>
   <time name="dav">   20.77   31.49</time>
   <time name="total">   60.78   92.66</time>
   <energy>
    <i name="alphaZ">     30.28140400 </i>
    <i name="ewald">   6221.61188061 </i>
    <i name="hartreedc">  -8316.22053951 </i>
    <i name="XCdc">    -53.67698187 </i>
    <i name="pawpsdc">   1164.73594949 </i>
    <i name="pawaedc">  -1009.14191411 </i>
    <i name="eentropy">      0.00000000 </i>
    <i name="bandstr">    -38.73299092 </i>
    <i name="atom">   2386.47938694 </i>
    <i name="e_fr_energy">    385.33619464 </i>
    <i name="e_wo_entrp">    385.33619464 </i>
    <i name="e_0_energy">    385.33619464 </i>
   </energy>
  </scstep>
  <scstep>
   <time name="dav">   28.87   43.79</time>
   <time name="total">   28.88   43.80</time>
   <energy>
    <i name="e_fr_energy">      1.43243054 </i>
    <i name="e_wo_entrp">      1.43243054 </i>
    <i name="e_0_energy">      1.43243054 </i>
   </energy>
  </scstep>
  <scstep>
   <time name="dav">   25.86   39.20</time>
   <time name="total">   25.86   39.21</time>
   <energy>
    <i name="e_fr_energy">    -48.05966308 </i>
    <i name="e_wo_entrp">    -48.05966308 </i>
    <i name="e_0_energy">    -48.05966308 </i>
   </energy>
  </scstep>
  <scstep>
   <time name="dav">   23.76   37.43</time>
   <time name="total">   23.77   37.45</time>
   <energy>
    <i name="e_fr_energy">    -49.88451964 </i>
    <i name="e_wo_entrp">    -49.88451964 </i>
    <i name="e_0_energy">    -49.88451964 </i>
   </energy>
  </scstep>
  <scstep>
   <time name="dav">   25.78   39.67</time>
   <time name="total">   27.57   42.14</time>
   <energy>
    <i name="e_fr_energy">    -49.94984229 </i>
    <i name="e_wo_entrp">    -49.94984229 </i>
    <i name="e_0_energy">    -49.94984229 </i>
   </energy>
  </scstep>
  <scstep>
   <time name="dav">   26.66   39.86</time>
   <time name="total">   67.93  101.74</time>
   <energy>
    <i name="e_fr_energy">    -85.77712190 </i>
    <i name="e_wo_entrp">    -85.77712190 </i>
    <i name="e_0_energy">    -85.77712190 </i>
   </energy>
  </scstep>
  <scstep>
   <time name="dav">   22.63   34.63</time>
   <time name="total">   63.46   96.47</time>
   <energy>
    <i name="e_fr_energy">    -42.74797939 </i>
    <i name="e_wo_entrp">    -42.74797939 </i>
    <i name="e_0_energy">    -42.74797939 </i>
   </energy>
  </scstep>
  <scstep>
   <time name="dav">   27.94   42.23</time>
   <time name="total">   67.36  104.52</time>
   <energy>
    <i name="e_fr_energy">    -44.57548716 </i>
    <i name="e_wo_entrp">    -44.57548716 </i>
    <i name="e_0_energy">    -44.57548716 </i>
   </energy>
  </scstep>
  <scstep>
   <time name="dav">   25.19   37.34</time>
   <time name="total">   65.17   98.56</time>
   <energy>
    <i name="e_fr_energy">    -45.47106360 </i>
    <i name="e_wo_entrp">    -45.47106360 </i>
    <i name="e_0_energy">    -45.47106360 </i>
   </energy>
  </scstep>
  <scstep>
   <time name="dav">   28.68   42.90</time>
   <time name="total">   70.54  104.91</time>
   <energy>
    <i name="e_fr_energy">    -45.89310098 </i>
    <i name="e_wo_entrp">    -45.89310098 </i>
    <i name="e_0_energy">    -45.89310098 </i>
   </energy>
  </scstep>
  <scstep>
   <time name="dav">   25.40   38.53</time>
   <time name="total">   65.90   99.90</time>
   <energy>
    <i name="e_fr_energy">    -46.09350276 </i>
    <i name="e_wo_entrp">    -46.09350276 </i>
    <i name="e_0_energy">    -46.09350276 </i>
   </energy>
  </scstep>
  <scstep>
   <time name="dav">   23.22   35.28</time>
   <time name="total">   65.40   97.54</time>
   <energy>
    <i name="e_fr_energy">    -46.11853207 </i>
    <i name="e_wo_entrp">    -46.11853207 </i>
    <i name="e_0_energy">    -46.11853207 </i>
   </energy>
  </scstep>
  <scstep>
   <time name="dav">   24.56   37.31</time>
   <time name="total">   64.54   98.70</time>
   <energy>
    <i name="e_fr_energy">    -46.31482734 </i>
    <i name="e_wo_entrp">    -46.31482734 </i>
    <i name="e_0_energy">    -46.31482734 </i>
   </energy>
  </scstep>
  <scstep>
   <time name="dav">   24.48   37.09</time>
   <time name="total">   64.50   98.76</time>
   <energy>
    <i name="e_fr_energy">    -46.42909415 </i>
    <i name="e_wo_entrp">    -46.42909415 </i>
    <i name="e_0_energy">    -46.42909415 </i>
   </energy>
  </scstep>
  <scstep>
   <time name="dav">   20.68   31.83</time>
   <time name="total">   60.93   93.48</time>
   <energy>
    <i name="e_fr_energy">    -46.45795323 </i>
    <i name="e_wo_entrp">    -46.45795323 </i>
    <i name="e_0_energy">    -46.45795323 </i>
   </energy>
  </scstep>
  <scstep>
   <time name="dav">   24.54   35.74</time>
   <time name="total">   63.60   96.25</time>
   <energy>
    <i name="e_fr_energy">    -46.46685433 </i>
    <i name="e_wo_entrp">    -46.46685433 </i>
    <i name="e_0_energy">    -46.46685433 </i>
   </energy>
  </scstep>
  <scstep>
   <time name="dav">   23.59   34.92</time>
   <time name="total">   63.58   96.01</time>
   <energy>
    <i name="e_fr_energy">    -46.47319290 </i>
    <i name="e_wo_entrp">    -46.47319290 </i>
    <i name="e_0_energy">    -46.47319290 </i>
   </energy>
  </scstep>
  <scstep>
   <time name="dav">   21.82   32.56</time>
   <time name="total">   63.07   94.91</time>
   <energy>
    <i name="e_fr_energy">    -46.47617052 </i>
    <i name="e_wo_entrp">    -46.47617052 </i>
    <i name="e_0_energy">    -46.47617052 </i>
   </energy>
  </scstep>
  <scstep>
   <time name="dav">   20.41   31.23</time>
   <time name="total">   61.53   92.59</time>
   <energy>
    <i name="e_fr_energy">    -46.47969446 </i>
    <i name="e_wo_entrp">    -46.47969446 </i>
    <i name="e_0_energy">    -46.47969446 </i>
   </energy>
  </scstep>
  <scstep>
   <time name="dav">   20.32   29.65</time>
   <time name="total">   60.18   90.77</time>
   <energy>
    <i name="e_fr_energy">    -46.48138586 </i>
    <i name="e_wo_entrp">    -46.48138586 </i>
    <i name="e_0_energy">    -46.48138586 </i>
   </energy>
  </scstep>
  <scstep>
   <time name="dav">   20.68   31.22</time>
   <time name="total">   60.71   91.53</time>
   <energy>
    <i name="e_fr_energy">    -46.48343362 </i>
    <i name="e_wo_entrp">    -46.48343362 </i>
    <i name="e_0_energy">    -46.48343362 </i>
   </energy>
  </scstep>
  <scstep>
   <time name="dav">   19.94   30.05</time>
   <time name="total">   60.94   90.51</time>
   <energy>
    <i name="e_fr_energy">    -46.48576467 </i>
    <i name="e_wo_entrp">    -46.48576467 </i>
    <i name="e_0_energy">    -46.48576467 </i>
   </energy>
  </scstep>
  <scstep>
   <time name="dav">   20.08   29.91</time>
   <time name="total">   59.65   90.86</time>
   <energy>
    <i name="e_fr_energy">    -46.48862594 </i>
    <i name="e_wo_entrp">    -46.48862594 </i>
    <i name="e_0_energy">    -46.48862594 </i>
   </energy>
  </scstep>
  <scstep>
   <time name="dav">   21.66   32.01</time>
   <time name="total">   62.89   94.10</time>
   <energy>
    <i name="e_fr_energy">    -46.49002360 </i>
    <i name="e_wo_entrp">    -46.49002360 </i>
    <i name="e_0_energy">    -46.49002360 </i>
   </energy>
  </scstep>
  <scstep>
   <time name="dav">   20.81   32.20</time>
   <time name="total">   62.61   93.87</time>
   <energy>
    <i name="e_fr_energy">    -46.49023548 </i>
    <i name="e_wo_entrp">    -46.49023548 </i>
    <i name="e_0_energy">    -46.49023548 </i>
   </energy>
  </scstep>
  <scstep>
   <time name="dav">   18.61   27.99</time>
   <time name="total">   59.99   89.04</time>
   <energy>
    <i name="e_fr_energy">    -46.49057892 </i>
    <i name="e_wo_entrp">    -46.49057892 </i>
    <i name="e_0_energy">    -46.49057892 </i>
   </energy>
  </scstep>
  <scstep>
   <time name="dav">   18.62   28.36</time>
   <time name="total">   58.87   88.01</time>
   <energy>
    <i name="alphaZ">     30.28140400 </i>
    <i name="ewald">   6221.61188061 </i>
    <i name="hartreedc">  -8317.40653670 </i>
    <i name="XCdc">    -54.05443979 </i>
    <i name="pawpsdc">   1187.72264127 </i>
    <i name="pawaedc">  -1032.41247214 </i>
    <i name="eentropy">      0.00000000 </i>
    <i name="bandstr">   -468.71246911 </i>
    <i name="atom">   2386.47938694 </i>
    <i name="e_fr_energy">    -46.49060491 </i>
    <i name="e_wo_entrp">    -46.49060491 </i>
    <i name="e_0_energy">    -46.49060491 </i>
   </energy>
  </scstep>
  <structure>
   <crystal>
    <varray name="basis" >
     <v>       6.90777700      -0.00000000       0.00000000 </v>
     <v>       3.45388800       5.98231000       0.00000000 </v>
     <v>       0.00000000       0.00000000      23.44458800 </v>
    </varray>
    <i name="volume">    968.83501932 </i>
    <varray name="rec_basis" >
     <v>       0.14476437      -0.08357974       0.00000000 </v>
     <v>       0.00000000       0.16715951      -0.00000000 </v>
     <v>      -0.00000000       0.00000000       0.04265377 </v>
    </varray>
   </crystal>
   <varray name="positions" >
    <v>       0.33333300       0.33333300       0.49992500 </v>
    <v>       0.66666700       0.66666700       0.50007500 </v>
    <v>       0.00000000       0.00000000       0.44821600 </v>
    <v>       0.00000000       0.00000000       0.55178400 </v>
    <v>       0.62635700       0.00042000       0.57375200 </v>
    <v>       0.00042000       0.37322400       0.57375200 </v>
    <v>       0.37322400       0.62635700       0.57375200 </v>
    <v>       0.37364300       0.99958000       0.42624800 </v>
    <v>       0.99958000       0.62677600       0.42624800 </v>
    <v>       0.62677600       0.37364300       0.42624800 </v>
   </varray>
  </structure>
  <varray name="forces" >
   <v>       0.00000000       0.00000000       0.27636431 </v>
   <v>       0.00000000       0.00000000       0.26517744 </v>
   <v>       0.00000000       0.00000000       0.62781446 </v>
   <v>       0.00000000       0.00000000      -0.13480223 </v>
   <v>       0.41567074      -0.00619235      -1.44075899 </v>
   <v>      -0.21319807      -0.35688522      -1.44075899 </v>
   <v>      -0.20247266       0.36307757      -1.44075899 </v>
   <v>      -1.13804826       0.00639433       1.09590766 </v>
   <v>       0.57456170       0.98238148       1.09590766 </v>
   <v>       0.56348656      -0.98877580       1.09590766 </v>
  </varray>
  <varray name="stress" >
   <v>     -34.74254896       0.00000246      -0.00000000 </v>
   <v>       0.00000334     -34.74254471       0.00000000 </v>
   <v>      -0.00000000       0.00000000     -23.33786105 </v>
  </varray>
  <energy>
   <i name="e_fr_energy">    -46.49060491 </i>
   <i name="e_wo_entrp">    -46.49060491 </i>
   <i name="e_0_energy">      0.00000000 </i>
  </energy>
  <time name="totalsc"> 1675.89 2532.06</time>
 </calculation>
 <calculation>
  <scstep>
   <time name="dav">   26.40   39.46</time>
   <time name="total">   67.35  100.60</time>
   <energy>
    <i name="alphaZ">     40.23638647 </i>
    <i name="ewald">   7457.70403189 </i>
    <i name="hartreedc">  -9732.74112689 </i>
    <i name="XCdc">    -43.55487200 </i>
    <i name="pawpsdc">   1187.72673331 </i>
    <i name="pawaedc">  -1032.41626617 </i>
    <i name="eentropy">      0.00000000 </i>
    <i name="bandstr">   -326.38088178 </i>
    <i name="atom">   2386.47938694 </i>
    <i name="e_fr_energy">    -62.94660823 </i>
    <i name="e_wo_entrp">    -62.94660823 </i>
    <i name="e_0_energy">    -62.94660823 </i>
   </energy>
  </scstep>
  <scstep>
   <time name="dav">   26.20   40.34</time>
   <time name="total">   67.21  102.26</time>
   <energy>
    <i name="e_fr_energy">    -54.10790690 </i>
    <i name="e_wo_entrp">    -54.10790690 </i>
    <i name="e_0_energy">    -54.10790690 </i>
   </energy>
  </scstep>
  <scstep>
   <time name="dav">   27.68   42.36</time>
   <time name="total">   70.83  105.40</time>
   <energy>
    <i name="e_fr_energy">    -52.93039704 </i>
    <i name="e_wo_entrp">    -52.93039704 </i>
    <i name="e_0_energy">    -52.93039704 </i>
   </energy>
  </scstep>
  <scstep>
   <time name="dav">   27.68   42.40</time>
   <time name="total">   68.67  105.06</time>
   <energy>
    <i name="e_fr_energy">    -49.59606254 </i>
    <i name="e_wo_entrp">    -49.59606254 </i>
    <i name="e_0_energy">    -49.59606254 </i>
   </energy>
  </scstep>
  <scstep>
   <time name="dav">   28.50   43.09</time>
   <time name="total">   70.07  105.95</time>
   <energy>
    <i name="e_fr_energy">    -49.55882419 </i>
    <i name="e_wo_entrp">    -49.55882419 </i>
    <i name="e_0_energy">    -49.55882419 </i>
   </energy>
  </scstep>
  <scstep>
   <time name="dav">   23.44   36.59</time>
   <time name="total">   64.50   98.36</time>
   <energy>
    <i name="e_fr_energy">    -49.56817071 </i>
    <i name="e_wo_entrp">    -49.56817071 </i>
    <i name="e_0_energy">    -49.56817071 </i>
   </energy>
  </scstep>
  <scstep>
   <time name="dav">   25.22   37.61</time>
   <time name="total">   64.73   98.14</time>
   <energy>
    <i name="e_fr_energy">    -49.56992410 </i>
    <i name="e_wo_entrp">    -49.56992410 </i>
    <i name="e_0_energy">    -49.56992410 </i>
   </energy>
  </scstep>
  <scstep>
   <time name="dav">   22.17   34.75</time>
   <time name="total">   62.29   97.03</time>
   <energy>
    <i name="e_fr_energy">    -49.56448905 </i>
    <i name="e_wo_entrp">    -49.56448905 </i>
    <i name="e_0_energy">    -49.56448905 </i>
   </energy>
  </scstep>
  <scstep>
   <time name="dav">   24.41   36.59</time>
   <time name="total">   64.31   99.15</time>
   <energy>
    <i name="e_fr_energy">    -49.56597028 </i>
    <i name="e_wo_entrp">    -49.56597028 </i>
    <i name="e_0_energy">    -49.56597028 </i>
   </energy>
  </scstep>
  <scstep>
   <time name="dav">   21.54   31.52</time>
   <time name="total">   62.96   94.23</time>
   <energy>
    <i name="e_fr_energy">    -49.56656559 </i>
    <i name="e_wo_entrp">    -49.56656559 </i>
    <i name="e_0_energy">    -49.56656559 </i>
   </energy>
  </scstep>
  <scstep>
   <time name="dav">   21.57   33.40</time>
   <time name="total">   63.08   95.57</time>
   <energy>
    <i name="e_fr_energy">    -49.56669324 </i>
    <i name="e_wo_entrp">    -49.56669324 </i>
    <i name="e_0_energy">    -49.56669324 </i>
   </energy>
  </scstep>
  <scstep>
   <time name="dav">   21.75   34.43</time>
   <time name="total">   62.67   96.81</time>
   <energy>
    <i name="e_fr_energy">    -49.56568292 </i>
    <i name="e_wo_entrp">    -49.56568292 </i>
    <i name="e_0_energy">    -49.56568292 </i>
   </energy>
  </scstep>
  <scstep>
   <time name="dav">   21.27   31.83</time>
   <time name="total">   61.88   94.13</time>
   <energy>
    <i name="e_fr_energy">    -49.56372809 </i>
    <i name="e_wo_entrp">    -49.56372809 </i>
    <i name="e_0_energy">    -49.56372809 </i>
   </energy>
  </scstep>
  <scstep>
   <time name="dav">   22.37   34.89</time>
   <time name="total">   66.44   97.84</time>
   <energy>
    <i name="e_fr_energy">    -49.56186701 </i>
    <i name="e_wo_entrp">    -49.56186701 </i>
    <i name="e_0_energy">    -49.56186701 </i>
   </energy>
  </scstep>
  <scstep>
   <time name="dav">   19.98   29.76</time>
   <time name="total">   61.53   92.16</time>
   <energy>
    <i name="e_fr_energy">    -49.56052463 </i>
    <i name="e_wo_entrp">    -49.56052463 </i>
    <i name="e_0_energy">    -49.56052463 </i>
   </energy>
  </scstep>
  <scstep>
   <time name="dav">   19.55   28.84</time>
   <time name="total">   60.74   90.82</time>
   <energy>
    <i name="e_fr_energy">    -49.55898802 </i>
    <i name="e_wo_entrp">    -49.55898802 </i>
    <i name="e_0_energy">    -49.55898802 </i>
   </energy>
  </scstep>
  <scstep>
   <time name="dav">   20.44   30.50</time>
   <time name="total">   62.11   93.95</time>
   <energy>
    <i name="e_fr_energy">    -49.55690809 </i>
    <i name="e_wo_entrp">    -49.55690809 </i>
    <i name="e_0_energy">    -49.55690809 </i>
   </energy>
  </scstep>
  <scstep>
   <time name="dav">   21.65   33.28</time>
   <time name="total">   62.24   95.85</time>
   <energy>
    <i name="e_fr_energy">    -49.55655187 </i>
    <i name="e_wo_entrp">    -49.55655187 </i>
    <i name="e_0_energy">    -49.55655187 </i>
   </energy>
  </scstep>
  <scstep>
   <time name="dav">   20.91   32.71</time>
   <time name="total">   61.82   94.58</time>
   <energy>
    <i name="e_fr_energy">    -49.55681909 </i>
    <i name="e_wo_entrp">    -49.55681909 </i>
    <i name="e_0_energy">    -49.55681909 </i>
   </energy>
  </scstep>
  <scstep>
   <time name="dav">   19.36   29.94</time>
   <time name="total">   59.86   92.36</time>
   <energy>
    <i name="e_fr_energy">    -49.55718196 </i>
    <i name="e_wo_entrp">    -49.55718196 </i>
    <i name="e_0_energy">    -49.55718196 </i>
   </energy>
  </scstep>
  <scstep>
   <time name="dav">   20.44   31.49</time>
   <time name="total">   62.68   93.93</time>
   <energy>
    <i name="e_fr_energy">    -49.55752558 </i>
    <i name="e_wo_entrp">    -49.55752558 </i>
    <i name="e_0_energy">    -49.55752558 </i>
   </energy>
  </scstep>
  <scstep>
   <time name="dav">   21.00   32.02</time>
   <time name="total">   60.28   93.46</time>
   <energy>
    <i name="e_fr_energy">    -49.55762669 </i>
    <i name="e_wo_entrp">    -49.55762669 </i>
    <i name="e_0_energy">    -49.55762669 </i>
   </energy>
  </scstep>
  <scstep>
   <time name="dav">   18.18   27.12</time>
   <time name="total">   57.43   86.92</time>
   <energy>
    <i name="alphaZ">     40.23638647 </i>
    <i name="ewald">   7457.70403189 </i>
    <i name="hartreedc">  -9582.88528866 </i>
    <i name="XCdc">    -49.16441803 </i>
    <i name="pawpsdc">   1307.57227558 </i>
    <i name="pawaedc">  -1153.89102387 </i>
    <i name="eentropy">      0.00000000 </i>
    <i name="bandstr">   -455.60903608 </i>
    <i name="atom">   2386.47938694 </i>
    <i name="e_fr_energy">    -49.55768577 </i>
    <i name="e_wo_entrp">    -49.55768577 </i>
    <i name="e_0_energy">    -49.55768577 </i>
   </energy>
  </scstep>
  <structure>
   <crystal>
    <varray name="basis" >
     <v>       6.20766032       0.00000005      -0.00000000 </v>
     <v>       3.10382977       5.37599130       0.00000000 </v>
     <v>      -0.00000000       0.00000000      21.84843656 </v>
    </varray>
    <i name="volume">    729.13318531 </i>
    <varray name="rec_basis" >
     <v>       0.16109129      -0.09300609       0.00000000 </v>
     <v>      -0.00000000       0.18601221      -0.00000000 </v>
     <v>       0.00000000      -0.00000000       0.04576987 </v>
    </varray>
   </crystal>
   <varray name="positions" >
    <v>       0.33333300       0.33333300       0.49992500 </v>
    <v>       0.66666700       0.66666700       0.50007500 </v>
    <v>       0.00000000       0.00000000       0.44950787 </v>
    <v>       0.00000000       0.00000000       0.55150661 </v>
    <v>       0.62928494       0.00037006       0.57078731 </v>
    <v>       0.00037006       0.37034600       0.57078731 </v>
    <v>       0.37034600       0.62928494       0.57078731 </v>
    <v>       0.36566930       0.99963157       0.42850308 </v>
    <v>       0.99963157       0.63469814       0.42850308 </v>
    <v>       0.63469814       0.36566930       0.42850308 </v>
   </varray>
  </structure>
  <varray name="forces" >
   <v>      -0.00000000      -0.00000000       0.10624138 </v>
   <v>       0.00000000      -0.00000000       0.11287576 </v>
   <v>      -0.00000000      -0.00000000       0.05965814 </v>
   <v>      -0.00000000      -0.00000000       0.38940442 </v>
   <v>       0.04800854      -0.01123585       0.30029623 </v>
   <v>      -0.03373481      -0.03595869       0.30029623 </v>
   <v>      -0.01427374       0.04719454       0.30029623 </v>
   <v>      -0.36662339       0.00920285      -0.52302280 </v>
   <v>       0.19128158       0.31290373      -0.52302280 </v>
   <v>       0.17534181      -0.32210658      -0.52302280 </v>
  </varray>
  <varray name="stress" >
   <v>       8.62118573      -0.00000122       0.00000000 </v>
   <v>       0.00000010       8.62118492      -0.00000000 </v>
   <v>       0.00000000       0.00000000       9.23861120 </v>
  </varray>
  <energy>
   <i name="e_fr_energy">    -49.55768577 </i>
   <i name="e_wo_entrp">    -49.55768577 </i>
   <i name="e_0_energy">      0.00000000 </i>
  </energy>
  <time name="totalsc"> 1568.25 2378.10</time>
 </calculation>
 <calculation>
  <scstep>
   <time name="dav">   24.36   36.69</time>
   <time name="total">   65.61   98.05</time>
   <energy>
    <i name="alphaZ">     38.96409731 </i>
    <i name="ewald">   7304.74373120 </i>
    <i name="hartreedc">  -9411.16804128 </i>
    <i name="XCdc">    -50.32717059 </i>
    <i name="pawpsdc">   1307.57385867 </i>
    <i name="pawaedc">  -1153.89260459 </i>
    <i name="eentropy">      0.00000000 </i>
    <i name="bandstr">   -472.15824813 </i>
    <i name="atom">   2386.47938694 </i>
    <i name="e_fr_energy">    -49.78499047 </i>
    <i name="e_wo_entrp">    -49.78499047 </i>
    <i name="e_0_energy">    -49.78499047 </i>
   </energy>
  </scstep>
  <scstep>
   <time name="dav">   24.77   37.51</time>
   <time name="total">   65.87   99.89</time>
   <energy>
    <i name="e_fr_energy">    -49.69031106 </i>
    <i name="e_wo_entrp">    -49.69031106 </i>
    <i name="e_0_energy">    -49.69031106 </i>
   </energy>
  </scstep>
  <scstep>
   <time name="dav">   23.92   38.07</time>
   <time name="total">   64.45   99.92</time>
   <energy>
    <i name="e_fr_energy">    -49.65852775 </i>
    <i name="e_wo_entrp">    -49.65852775 </i>
    <i name="e_0_energy">    -49.65852775 </i>
   </energy>
  </scstep>
  <scstep>
   <time name="dav">   25.63   39.54</time>
   <time name="total">   68.59  102.31</time>
   <energy>
    <i name="e_fr_energy">    -49.62801944 </i>
    <i name="e_wo_entrp">    -49.62801944 </i>
    <i name="e_0_energy">    -49.62801944 </i>
   </energy>
  </scstep>
  <scstep>
   <time name="dav">   25.95   39.34</time>
   <time name="total">   66.91  100.90</time>
   <energy>
    <i name="e_fr_energy">    -49.62684417 </i>
    <i name="e_wo_entrp">    -49.62684417 </i>
    <i name="e_0_energy">    -49.62684417 </i>
   </energy>
  </scstep>
  <scstep>
   <time name="dav">   22.06   32.81</time>
   <time name="total">   63.34   95.44</time>
   <energy>
    <i name="e_fr_energy">    -49.62653664 </i>
    <i name="e_wo_entrp">    -49.62653664 </i>
    <i name="e_0_energy">    -49.62653664 </i>
   </energy>
  </scstep>
  <scstep>
   <time name="dav">   19.57   29.34</time>
   <time name="total">   59.38   89.60</time>
   <energy>
    <i name="alphaZ">     38.96409731 </i>
    <i name="ewald">   7304.74373120 </i>
    <i name="hartreedc">  -9423.65566510 </i>
    <i name="XCdc">    -49.83575748 </i>
    <i name="pawpsdc">   1289.94623373 </i>
    <i name="pawaedc">  -1136.00406462 </i>
    <i name="eentropy">      0.00000000 </i>
    <i name="bandstr">   -460.26444678 </i>
    <i name="atom">   2386.47938694 </i>
    <i name="e_fr_energy">    -49.62648479 </i>
    <i name="e_wo_entrp">    -49.62648479 </i>
    <i name="e_0_energy">    -49.62648479 </i>
   </energy>
  </scstep>
  <structure>
   <crystal>
    <varray name="basis" >
     <v>       6.28341076       0.00000004      -0.00000000 </v>
     <v>       3.14170498       5.44159310       0.00000000 </v>
     <v>      -0.00000000       0.00000000      22.02113518 </v>
    </varray>
    <i name="volume">    752.94146815 </i>
    <varray name="rec_basis" >
     <v>       0.15914923      -0.09188484       0.00000000 </v>
     <v>      -0.00000000       0.18376971      -0.00000000 </v>
     <v>       0.00000000      -0.00000000       0.04541092 </v>
    </varray>
   </crystal>
   <varray name="positions" >
    <v>       0.33333300       0.33333300       0.49992500 </v>
    <v>       0.66666700       0.66666700       0.50007500 </v>
    <v>       0.00000000       0.00000000       0.44935789 </v>
    <v>       0.00000000       0.00000000       0.55153882 </v>
    <v>       0.62893241       0.00037608       0.57113151 </v>
    <v>       0.00037608       0.37069251       0.57113151 </v>
    <v>       0.37069251       0.62893241       0.57113151 </v>
    <v>       0.36662933       0.99962536       0.42824127 </v>
    <v>       0.99962536       0.63374432       0.42824127 </v>
    <v>       0.63374432       0.36662933       0.42824127 </v>
   </varray>
  </structure>
  <varray name="forces" >
   <v>       0.00000000      -0.00000000       0.15273853 </v>
   <v>       0.00000000       0.00000000       0.15624421 </v>
   <v>       0.00000000       0.00000000       0.12386654 </v>
   <v>       0.00000000       0.00000000       0.32531722 </v>
   <v>       0.10503437      -0.00881571      -0.00781667 </v>
   <v>      -0.06015181      -0.08655457      -0.00781667 </v>
   <v>      -0.04488256       0.09537029      -0.00781667 </v>
   <v>      -0.53944839       0.00610107      -0.24490550 </v>
   <v>       0.27500785       0.46412545      -0.24490550 </v>
   <v>       0.26444054      -0.47022653      -0.24490550 </v>
  </varray>
  <varray name="stress" >
   <v>      -0.37381069      -0.00000069       0.00000000 </v>
   <v>       0.00000074      -0.37381066       0.00000000 </v>
   <v>       0.00000000       0.00000000       3.51598048 </v>
  </varray>
  <energy>
   <i name="e_fr_energy">    -49.62648479 </i>
   <i name="e_wo_entrp">    -49.62648479 </i>
   <i name="e_0_energy">      0.00000000 </i>
  </energy>
  <time name="totalsc">  555.87  837.60</time>
 </calculation>
 <calculation>
  <scstep>
   <time name="dav">   21.07   31.45</time>
   <time name="total">   62.15   93.65</time>
   <energy>
    <i name="alphaZ">     38.88108785 </i>
    <i name="ewald">   7404.00194004 </i>
    <i name="hartreedc">  -9514.49225139 </i>
    <i name="XCdc">    -49.88532219 </i>
    <i name="pawpsdc">   1289.40666287 </i>
    <i name="pawaedc">  -1135.45107126 </i>
    <i name="eentropy">      0.00000000 </i>
    <i name="bandstr">   -468.61764411 </i>
    <i name="atom">   2386.47938694 </i>
    <i name="e_fr_energy">    -49.67721126 </i>
    <i name="e_wo_entrp">    -49.67721126 </i>
    <i name="e_0_energy">    -49.67721126 </i>
   </energy>
  </scstep>
  <scstep>
   <time name="dav">   21.69   32.33</time>
   <time name="total">   61.82   95.99</time>
   <energy>
    <i name="e_fr_energy">    -49.68245513 </i>
    <i name="e_wo_entrp">    -49.68245513 </i>
    <i name="e_0_energy">    -49.68245513 </i>
   </energy>
  </scstep>
  <scstep>
   <time name="dav">   22.21   32.80</time>
   <time name="total">   63.04   94.90</time>
   <energy>
    <i name="e_fr_energy">    -49.67842472 </i>
    <i name="e_wo_entrp">    -49.67842472 </i>
    <i name="e_0_energy">    -49.67842472 </i>
   </energy>
  </scstep>
  <scstep>
   <time name="dav">   24.92   37.10</time>
   <time name="total">   65.44   99.26</time>
   <energy>
    <i name="e_fr_energy">    -49.67802915 </i>
    <i name="e_wo_entrp">    -49.67802915 </i>
    <i name="e_0_energy">    -49.67802915 </i>
   </energy>
  </scstep>
  <scstep>
   <time name="dav">   27.25   41.06</time>
   <time name="total">   67.21  102.39</time>
   <energy>
    <i name="e_fr_energy">    -49.67653634 </i>
    <i name="e_wo_entrp">    -49.67653634 </i>
    <i name="e_0_energy">    -49.67653634 </i>
   </energy>
  </scstep>
  <scstep>
   <time name="dav">   18.55   29.14</time>
   <time name="total">   61.00   92.04</time>
   <energy>
    <i name="e_fr_energy">    -49.67631482 </i>
    <i name="e_wo_entrp">    -49.67631482 </i>
    <i name="e_0_energy">    -49.67631482 </i>
   </energy>
  </scstep>
  <scstep>
   <time name="dav">   19.06   28.64</time>
   <time name="total">   59.80   88.01</time>
   <energy>
    <i name="alphaZ">     38.88108785 </i>
    <i name="ewald">   7404.00194004 </i>
    <i name="hartreedc">  -9519.74582558 </i>
    <i name="XCdc">    -49.76439568 </i>
    <i name="pawpsdc">   1287.56568336 </i>
    <i name="pawaedc">  -1133.60288277 </i>
    <i name="eentropy">      0.00000000 </i>
    <i name="bandstr">   -463.49124965 </i>
    <i name="atom">   2386.47938694 </i>
    <i name="e_fr_energy">    -49.67625551 </i>
    <i name="e_wo_entrp">    -49.67625551 </i>
    <i name="e_0_energy">    -49.67625551 </i>
   </energy>
  </scstep>
  <structure>
   <crystal>
    <varray name="basis" >
     <v>       6.26884204       0.00000004      -0.00000000 </v>
     <v>       3.13442063       5.42897622       0.00000000 </v>
     <v>      -0.00000000       0.00000000      22.17084081 </v>
    </varray>
    <i name="volume">    754.54896602 </i>
    <varray name="rec_basis" >
     <v>       0.15951909      -0.09209838       0.00000000 </v>
     <v>      -0.00000000       0.18419679      -0.00000000 </v>
     <v>       0.00000000      -0.00000000       0.04510429 </v>
    </varray>
   </crystal>
   <varray name="positions" >
    <v>       0.33333300       0.33333300       0.49992500 </v>
    <v>       0.66666700       0.66666700       0.50007500 </v>
    <v>       0.00000000       0.00000000       0.44964359 </v>
    <v>       0.00000000       0.00000000       0.55223174 </v>
    <v>       0.62980693       0.00029880       0.57106837 </v>
    <v>       0.00029880       0.36989526       0.57106837 </v>
    <v>       0.36989526       0.62980693       0.57106837 </v>
    <v>       0.36242190       0.99967911       0.42775163 </v>
    <v>       0.99967911       0.63789799       0.42775163 </v>
    <v>       0.63789799       0.36242190       0.42775163 </v>
   </varray>
  </structure>
  <varray name="forces" >
   <v>       0.00000000      -0.00000000       0.03952623 </v>
   <v>      -0.00000000      -0.00000000       0.03467793 </v>
   <v>      -0.00000000      -0.00000000       0.45018441 </v>
   <v>      -0.00000000      -0.00000000      -0.05454346 </v>
   <v>      -0.00868946      -0.00499736      -0.01940863 </v>
   <v>       0.00001689       0.01002397      -0.01940863 </v>
   <v>       0.00867257      -0.00502661      -0.01940863 </v>
   <v>      -0.27730995       0.00550706      -0.13720641 </v>
   <v>       0.14342422       0.23740392      -0.13720641 </v>
   <v>       0.13388573      -0.24291098      -0.13720641 </v>
  </varray>
  <varray name="stress" >
   <v>       1.21331473      -0.00000067      -0.00000000 </v>
   <v>       0.00000051       1.21331461       0.00000000 </v>
   <v>      -0.00000000       0.00000000       1.33630513 </v>
  </varray>
  <energy>
   <i name="e_fr_energy">    -49.67625551 </i>
   <i name="e_wo_entrp">    -49.67625551 </i>
   <i name="e_0_energy">      0.00000000 </i>
  </energy>
  <time name="totalsc">  540.67  818.28</time>
 </calculation>
 <calculation>
  <scstep>
   <time name="dav">   19.30   30.08</time>
   <time name="total">   60.34   91.89</time>
   <energy>
    <i name="alphaZ">     38.82071284 </i>
    <i name="ewald">   7478.60175369 </i>
    <i name="hartreedc">  -9588.80931938 </i>
    <i name="XCdc">    -49.78795186 </i>
    <i name="pawpsdc">   1287.17519742 </i>
    <i name="pawaedc">  -1133.20548349 </i>
    <i name="eentropy">      0.00000000 </i>
    <i name="bandstr">   -468.96079915 </i>
    <i name="atom">   2386.47938694 </i>
    <i name="e_fr_energy">    -49.68650298 </i>
    <i name="e_wo_entrp">    -49.68650298 </i>
    <i name="e_0_energy">    -49.68650298 </i>
   </energy>
  </scstep>
  <scstep>
   <time name="dav">   21.19   31.67</time>
   <time name="total">   63.10   93.86</time>
   <energy>
    <i name="e_fr_energy">    -49.68910587 </i>
    <i name="e_wo_entrp">    -49.68910587 </i>
    <i name="e_0_energy">    -49.68910587 </i>
   </energy>
  </scstep>
  <scstep>
   <time name="dav">   20.16   30.55</time>
   <time name="total">   61.83   92.84</time>
   <energy>
    <i name="e_fr_energy">    -49.68665697 </i>
    <i name="e_wo_entrp">    -49.68665697 </i>
    <i name="e_0_energy">    -49.68665697 </i>
   </energy>
  </scstep>
  <scstep>
   <time name="dav">   24.46   35.91</time>
   <time name="total">   66.03   97.68</time>
   <energy>
    <i name="e_fr_energy">    -49.68609102 </i>
    <i name="e_wo_entrp">    -49.68609102 </i>
    <i name="e_0_energy">    -49.68609102 </i>
   </energy>
  </scstep>
  <scstep>
   <time name="dav">   22.37   32.74</time>
   <time name="total">   63.68   94.99</time>
   <energy>
    <i name="e_fr_energy">    -49.68580121 </i>
    <i name="e_wo_entrp">    -49.68580121 </i>
    <i name="e_0_energy">    -49.68580121 </i>
   </energy>
  </scstep>
  <scstep>
   <time name="dav">   17.31   26.10</time>
   <time name="total">   56.83   85.10</time>
   <energy>
    <i name="alphaZ">     38.82071284 </i>
    <i name="ewald">   7478.60175369 </i>
    <i name="hartreedc">  -9593.11079006 </i>
    <i name="XCdc">    -49.69590738 </i>
    <i name="pawpsdc">   1286.36175784 </i>
    <i name="pawaedc">  -1132.40154916 </i>
    <i name="eentropy">      0.00000000 </i>
    <i name="bandstr">   -464.74113022 </i>
    <i name="atom">   2386.47938694 </i>
    <i name="e_fr_energy">    -49.68576550 </i>
    <i name="e_wo_entrp">    -49.68576550 </i>
    <i name="e_0_energy">    -49.68576550 </i>
   </energy>
  </scstep>
  <structure>
   <crystal>
    <varray name="basis" >
     <v>       6.25797520       0.00000003      -0.00000000 </v>
     <v>       3.12898722       5.41956525       0.00000000 </v>
     <v>      -0.00000000       0.00000000      22.28250658 </v>
    </varray>
    <i name="volume">    755.72246070 </i>
    <varray name="rec_basis" >
     <v>       0.15979610      -0.09225831       0.00000000 </v>
     <v>      -0.00000000       0.18451665      -0.00000000 </v>
     <v>       0.00000000      -0.00000000       0.04487825 </v>
    </varray>
   </crystal>
   <varray name="positions" >
    <v>       0.33333300       0.33333300       0.49992500 </v>
    <v>       0.66666700       0.66666700       0.50007500 </v>
    <v>       0.00000000       0.00000000       0.44985525 </v>
    <v>       0.00000000       0.00000000       0.55274511 </v>
    <v>       0.63046075       0.00024103       0.57102159 </v>
    <v>       0.00024103       0.36929922       0.57102159 </v>
    <v>       0.36929922       0.63046075       0.57102159 </v>
    <v>       0.35927628       0.99971930       0.42738888 </v>
    <v>       0.99971930       0.64100342       0.42738888 </v>
    <v>       0.64100342       0.35927628       0.42738888 </v>
   </varray>
  </structure>
  <varray name="forces" >
   <v>      -0.00000000      -0.00000000      -0.04511916 </v>
   <v>      -0.00000000      -0.00000000      -0.05259840 </v>
   <v>      -0.00000000      -0.00000000       0.68452193 </v>
   <v>      -0.00000000      -0.00000000      -0.31903200 </v>
   <v>      -0.09664841      -0.00319269      -0.02563595 </v>
   <v>       0.04555925       0.08529631      -0.02563595 </v>
   <v>       0.05108916      -0.08210363      -0.02563595 </v>
   <v>      -0.05465339       0.00533174      -0.06362150 </v>
   <v>       0.03194412       0.04466535      -0.06362150 </v>
   <v>       0.02270928      -0.04999709      -0.06362150 </v>
  </varray>
  <varray name="stress" >
   <v>       2.33304696      -0.00000046      -0.00000000 </v>
   <v>       0.00000015       2.33304673      -0.00000000 </v>
   <v>      -0.00000000      -0.00000000      -0.89842313 </v>
  </varray>
  <energy>
   <i name="e_fr_energy">    -49.68576550 </i>
   <i name="e_wo_entrp">    -49.68576550 </i>
   <i name="e_0_energy">      0.00000000 </i>
  </energy>
  <time name="totalsc">  471.81  708.88</time>
 </calculation>
 <calculation>
  <scstep>
   <time name="dav">   20.48   30.43</time>
   <time name="total">   63.31   92.45</time>
   <energy>
    <i name="alphaZ">     38.39114731 </i>
    <i name="ewald">   7424.82024848 </i>
    <i name="hartreedc">  -9533.19666633 </i>
    <i name="XCdc">    -50.01953146 </i>
    <i name="pawpsdc">   1286.11082890 </i>
    <i name="pawaedc">  -1132.14230780 </i>
    <i name="eentropy">      0.00000000 </i>
    <i name="bandstr">   -470.16017916 </i>
    <i name="atom">   2386.47938694 </i>
    <i name="e_fr_energy">    -49.71707312 </i>
    <i name="e_wo_entrp">    -49.71707312 </i>
    <i name="e_0_energy">    -49.71707312 </i>
   </energy>
  </scstep>
  <scstep>
   <time name="dav">   22.80   34.62</time>
   <time name="total">   64.60   97.65</time>
   <energy>
    <i name="e_fr_energy">    -49.71244763 </i>
    <i name="e_wo_entrp">    -49.71244763 </i>
    <i name="e_0_energy">    -49.71244763 </i>
   </energy>
  </scstep>
  <scstep>
   <time name="dav">   24.97   37.49</time>
   <time name="total">   67.16  101.63</time>
   <energy>
    <i name="e_fr_energy">    -49.71063700 </i>
    <i name="e_wo_entrp">    -49.71063700 </i>
    <i name="e_0_energy">    -49.71063700 </i>
   </energy>
  </scstep>
  <scstep>
   <time name="dav">   25.40   37.00</time>
   <time name="total">   66.80   99.78</time>
   <energy>
    <i name="e_fr_energy">    -49.70693789 </i>
    <i name="e_wo_entrp">    -49.70693789 </i>
    <i name="e_0_energy">    -49.70693789 </i>
   </energy>
  </scstep>
  <scstep>
   <time name="dav">   23.55   35.76</time>
   <time name="total">   63.59   97.21</time>
   <energy>
    <i name="e_fr_energy">    -49.70675138 </i>
    <i name="e_wo_entrp">    -49.70675138 </i>
    <i name="e_0_energy">    -49.70675138 </i>
   </energy>
  </scstep>
  <scstep>
   <time name="dav">   26.06   39.34</time>
   <time name="total">   68.30  102.10</time>
   <energy>
    <i name="e_fr_energy">    -49.70638316 </i>
    <i name="e_wo_entrp">    -49.70638316 </i>
    <i name="e_0_energy">    -49.70638316 </i>
   </energy>
  </scstep>
  <scstep>
   <time name="dav">   18.45   26.65</time>
   <time name="total">   59.44   88.71</time>
   <energy>
    <i name="e_fr_energy">    -49.70617049 </i>
    <i name="e_wo_entrp">    -49.70617049 </i>
    <i name="e_0_energy">    -49.70617049 </i>
   </energy>
  </scstep>
  <scstep>
   <time name="dav">   19.78   29.97</time>
   <time name="total">   60.22   90.92</time>
   <energy>
    <i name="e_fr_energy">    -49.70573792 </i>
    <i name="e_wo_entrp">    -49.70573792 </i>
    <i name="e_0_energy">    -49.70573792 </i>
   </energy>
  </scstep>
  <scstep>
   <time name="dav">   18.91   28.66</time>
   <time name="total">   58.96   89.60</time>
   <energy>
    <i name="e_fr_energy">    -49.70536929 </i>
    <i name="e_wo_entrp">    -49.70536929 </i>
    <i name="e_0_energy">    -49.70536929 </i>
   </energy>
  </scstep>
  <scstep>
   <time name="dav">   20.21   30.55</time>
   <time name="total">   62.53   93.29</time>
   <energy>
    <i name="e_fr_energy">    -49.70504629 </i>
    <i name="e_wo_entrp">    -49.70504629 </i>
    <i name="e_0_energy">    -49.70504629 </i>
   </energy>
  </scstep>
  <scstep>
   <time name="dav">   22.20   34.61</time>
   <time name="total">   60.68   95.99</time>
   <energy>
    <i name="e_fr_energy">    -49.70417843 </i>
    <i name="e_wo_entrp">    -49.70417843 </i>
    <i name="e_0_energy">    -49.70417843 </i>
   </energy>
  </scstep>
  <scstep>
   <time name="dav">   22.91   34.30</time>
   <time name="total">   63.66   96.37</time>
   <energy>
    <i name="e_fr_energy">    -49.70370923 </i>
    <i name="e_wo_entrp">    -49.70370923 </i>
    <i name="e_0_energy">    -49.70370923 </i>
   </energy>
  </scstep>
  <scstep>
   <time name="dav">   19.90   30.01</time>
   <time name="total">   59.34   89.26</time>
   <energy>
    <i name="alphaZ">     38.39114731 </i>
    <i name="ewald">   7424.82024848 </i>
    <i name="hartreedc">  -9544.16287317 </i>
    <i name="XCdc">    -49.77281799 </i>
    <i name="pawpsdc">   1279.60180815 </i>
    <i name="pawaedc">  -1125.54738620 </i>
    <i name="eentropy">      0.00000000 </i>
    <i name="bandstr">   -459.51327390 </i>
    <i name="atom">   2386.47938694 </i>
    <i name="e_fr_energy">    -49.70376038 </i>
    <i name="e_wo_entrp">    -49.70376038 </i>
    <i name="e_0_energy">    -49.70376038 </i>
   </energy>
  </scstep>
  <structure>
   <crystal>
    <varray name="basis" >
     <v>       6.28519230       0.00000002       0.00000000 </v>
     <v>       3.14259577       5.44313594       0.00000000 </v>
     <v>      -0.00000000      -0.00000000      22.33711060 </v>
    </varray>
    <i name="volume">    764.17837669 </i>
    <varray name="rec_basis" >
     <v>       0.15910412      -0.09185880       0.00000000 </v>
     <v>      -0.00000000       0.18371762       0.00000000 </v>
     <v>      -0.00000000      -0.00000000       0.04476855 </v>
    </varray>
   </crystal>
   <varray name="positions" >
    <v>       0.33333300       0.33333300       0.49992500 </v>
    <v>       0.66666700       0.66666700       0.50007500 </v>
    <v>       0.00000000       0.00000000       0.45171875 </v>
    <v>       0.00000000       0.00000000       0.55244690 </v>
    <v>       0.63025244       0.00015488       0.57091560 </v>
    <v>       0.00015488       0.36959368       0.57091560 </v>
    <v>       0.36959368       0.63025244       0.57091560 </v>
    <v>       0.35582477       0.99981036       0.42689598 </v>
    <v>       0.99981036       0.64436387       0.42689598 </v>
    <v>       0.64436387       0.35582477       0.42689598 </v>
   </varray>
  </structure>
  <varray name="forces" >
   <v>       0.00000000       0.00000000      -0.14060155 </v>
   <v>       0.00000000       0.00000000      -0.15384616 </v>
   <v>      -0.00000000      -0.00000000       0.13528560 </v>
   <v>      -0.00000000      -0.00000000       0.17400560 </v>
   <v>      -0.08291467       0.00077488      -0.11603578 </v>
   <v>       0.04212839       0.07141877      -0.11603578 </v>
   <v>       0.04078628      -0.07219364      -0.11603578 </v>
   <v>       0.00993073       0.00192677       0.11108795 </v>
   <v>      -0.00329674      -0.00956365       0.11108795 </v>
   <v>      -0.00663400       0.00763688       0.11108795 </v>
  </varray>
  <varray name="stress" >
   <v>      -0.33449578      -0.00000028       0.00000000 </v>
   <v>       0.00000032      -0.33449575       0.00000000 </v>
   <v>       0.00000000       0.00000000      -2.21263492 </v>
  </varray>
  <energy>
   <i name="e_fr_energy">    -49.70376038 </i>
   <i name="e_wo_entrp">    -49.70376038 </i>
   <i name="e_0_energy">      0.00000000 </i>
  </energy>
  <time name="totalsc">  922.25 1389.10</time>
 </calculation>
 <calculation>
  <scstep>
   <time name="dav">   21.61   33.23</time>
   <time name="total">   63.32   96.61</time>
   <energy>
    <i name="alphaZ">     38.42866682 </i>
    <i name="ewald">   7429.53082532 </i>
    <i name="hartreedc">  -9549.67759078 </i>
    <i name="XCdc">    -49.74476087 </i>
    <i name="pawpsdc">   1279.52747697 </i>
    <i name="pawaedc">  -1125.46994827 </i>
    <i name="eentropy">      0.00000000 </i>
    <i name="bandstr">   -458.77829746 </i>
    <i name="atom">   2386.47938694 </i>
    <i name="e_fr_energy">    -49.70424134 </i>
    <i name="e_wo_entrp">    -49.70424134 </i>
    <i name="e_0_energy">    -49.70424134 </i>
   </energy>
  </scstep>
  <scstep>
   <time name="dav">   21.52   33.35</time>
   <time name="total">   62.39   95.71</time>
   <energy>
    <i name="e_fr_energy">    -49.70432130 </i>
    <i name="e_wo_entrp">    -49.70432130 </i>
    <i name="e_0_energy">    -49.70432130 </i>
   </energy>
  </scstep>
  <scstep>
   <time name="dav">   18.83   27.99</time>
   <time name="total">   60.21   88.27</time>
   <energy>
    <i name="alphaZ">     38.42866682 </i>
    <i name="ewald">   7429.53082532 </i>
    <i name="hartreedc">  -9549.43714985 </i>
    <i name="XCdc">    -49.76098105 </i>
    <i name="pawpsdc">   1279.69577296 </i>
    <i name="pawaedc">  -1125.64047981 </i>
    <i name="eentropy">      0.00000000 </i>
    <i name="bandstr">   -459.00039640 </i>
    <i name="atom">   2386.47938694 </i>
    <i name="e_fr_energy">    -49.70435507 </i>
    <i name="e_wo_entrp">    -49.70435507 </i>
    <i name="e_0_energy">    -49.70435507 </i>
   </energy>
  </scstep>
  <structure>
   <crystal>
    <varray name="basis" >
     <v>       6.28279869       0.00000002       0.00000000 </v>
     <v>       3.14139897       5.44106302       0.00000000 </v>
     <v>      -0.00000000      -0.00000000      22.33230845 </v>
    </varray>
    <i name="volume">    763.43227757 </i>
    <varray name="rec_basis" >
     <v>       0.15916474      -0.09189380       0.00000000 </v>
     <v>      -0.00000000       0.18378762       0.00000000 </v>
     <v>      -0.00000000      -0.00000000       0.04477817 </v>
    </varray>
   </crystal>
   <varray name="positions" >
    <v>       0.33333300       0.33333300       0.49992500 </v>
    <v>       0.66666700       0.66666700       0.50007500 </v>
    <v>       0.00000000       0.00000000       0.45155526 </v>
    <v>       0.00000000       0.00000000       0.55247306 </v>
    <v>       0.63027068       0.00016243       0.57092490 </v>
    <v>       0.00016243       0.36956789       0.57092490 </v>
    <v>       0.36956789       0.63027068       0.57092490 </v>
    <v>       0.35612700       0.99980238       0.42693923 </v>
    <v>       0.99980238       0.64406961       0.42693923 </v>
    <v>       0.64406961       0.35612700       0.42693923 </v>
   </varray>
  </structure>
  <varray name="forces" >
   <v>      -0.00000000       0.00000000      -0.13220466 </v>
   <v>      -0.00000000       0.00000000      -0.14472467 </v>
   <v>      -0.00000000      -0.00000000       0.18625329 </v>
   <v>      -0.00000000       0.00000000       0.12804057 </v>
   <v>      -0.08595141      -0.00118801      -0.10671762 </v>
   <v>       0.04194685       0.07503010      -0.10671762 </v>
   <v>       0.04400456      -0.07384209      -0.10671762 </v>
   <v>       0.00648557       0.00097418       0.09426278 </v>
   <v>      -0.00239912      -0.00610376       0.09426278 </v>
   <v>      -0.00408645       0.00512958       0.09426278 </v>
  </varray>
  <varray name="stress" >
   <v>      -0.58830588      -0.00000038       0.00000000 </v>
   <v>       0.00000046      -0.58830583      -0.00000000 </v>
   <v>      -0.00000000      -0.00000000      -2.77131276 </v>
  </varray>
  <energy>
   <i name="e_fr_energy">    -49.70435507 </i>
   <i name="e_wo_entrp">    -49.70435507 </i>
   <i name="e_0_energy">      0.00000000 </i>
  </energy>
  <time name="totalsc">  286.56  432.93</time>
 </calculation>
 <calculation>
  <scstep>
   <time name="dav">   24.10   36.41</time>
   <time name="total">   66.76   99.58</time>
   <energy>
    <i name="alphaZ">     38.70621795 </i>
    <i name="ewald">   7381.18583246 </i>
    <i name="hartreedc">  -9510.17655161 </i>
    <i name="XCdc">    -49.46608160 </i>
    <i name="pawpsdc">   1279.74767680 </i>
    <i name="pawaedc">  -1125.68823066 </i>
    <i name="eentropy">      0.00000000 </i>
    <i name="bandstr">   -450.51246124 </i>
    <i name="atom">   2386.47938694 </i>
    <i name="e_fr_energy">    -49.72421097 </i>
    <i name="e_wo_entrp">    -49.72421097 </i>
    <i name="e_0_energy">    -49.72421097 </i>
   </energy>
  </scstep>
  <scstep>
   <time name="dav">   20.81   31.83</time>
   <time name="total">   61.08   93.52</time>
   <energy>
    <i name="e_fr_energy">    -49.71707073 </i>
    <i name="e_wo_entrp">    -49.71707073 </i>
    <i name="e_0_energy">    -49.71707073 </i>
   </energy>
  </scstep>
  <scstep>
   <time name="dav">   23.47   35.30</time>
   <time name="total">   63.67   96.60</time>
   <energy>
    <i name="e_fr_energy">    -49.71180166 </i>
    <i name="e_wo_entrp">    -49.71180166 </i>
    <i name="e_0_energy">    -49.71180166 </i>
   </energy>
  </scstep>
  <scstep>
   <time name="dav">   25.06   37.33</time>
   <time name="total">   66.71   99.99</time>
   <energy>
    <i name="e_fr_energy">    -49.70762971 </i>
    <i name="e_wo_entrp">    -49.70762971 </i>
    <i name="e_0_energy">    -49.70762971 </i>
   </energy>
  </scstep>
  <scstep>
   <time name="dav">   25.02   36.36</time>
   <time name="total">   63.94   97.98</time>
   <energy>
    <i name="e_fr_energy">    -49.70730843 </i>
    <i name="e_wo_entrp">    -49.70730843 </i>
    <i name="e_0_energy">    -49.70730843 </i>
   </energy>
  </scstep>
  <scstep>
   <time name="dav">   24.56   38.11</time>
   <time name="total">   62.99   96.93</time>
   <energy>
    <i name="alphaZ">     38.70621795 </i>
    <i name="ewald">   7381.18583246 </i>
    <i name="hartreedc">  -9505.06389130 </i>
    <i name="XCdc">    -49.61117497 </i>
    <i name="pawpsdc">   1283.12937448 </i>
    <i name="pawaedc">  -1129.11000879 </i>
    <i name="eentropy">      0.00000000 </i>
    <i name="bandstr">   -455.42304933 </i>
    <i name="atom">   2386.47938694 </i>
    <i name="e_fr_energy">    -49.70731257 </i>
    <i name="e_wo_entrp">    -49.70731257 </i>
    <i name="e_0_energy">    -49.70731257 </i>
   </energy>
  </scstep>
  <structure>
   <crystal>
    <varray name="basis" >
     <v>       6.28039459       0.00000001       0.00000000 </v>
     <v>       3.14019693       5.43898100      -0.00000000 </v>
     <v>      -0.00000000      -0.00000000      22.18914794 </v>
    </varray>
    <i name="volume">    757.95792479 </i>
    <varray name="rec_basis" >
     <v>       0.15922566      -0.09192897       0.00000000 </v>
     <v>      -0.00000000       0.18385797       0.00000000 </v>
     <v>      -0.00000000       0.00000000       0.04506708 </v>
    </varray>
   </crystal>
   <varray name="positions" >
    <v>       0.33333300       0.33333300       0.49992500 </v>
    <v>       0.66666700       0.66666700       0.50007500 </v>
    <v>       0.00000000       0.00000000       0.45247468 </v>
    <v>       0.00000000       0.00000000       0.55270256 </v>
    <v>       0.62949452       0.00012887       0.57064325 </v>
    <v>       0.00012887       0.37037761       0.57064325 </v>
    <v>       0.37037761       0.62949452       0.57064325 </v>
    <v>       0.35529896       0.99983510       0.42703850 </v>
    <v>       0.99983510       0.64486494       0.42703850 </v>
    <v>       0.64486494       0.35529896       0.42703850 </v>
   </varray>
  </structure>
  <varray name="forces" >
   <v>       0.00000000       0.00000000      -0.17630604 </v>
   <v>       0.00000000       0.00000000      -0.19086665 </v>
   <v>       0.00000000       0.00000000      -0.14016204 </v>
   <v>       0.00000000      -0.00000000       0.44808424 </v>
   <v>      -0.07801045      -0.00088223      -0.01161217 </v>
   <v>       0.03824118       0.06800014      -0.01161217 </v>
   <v>       0.03976926      -0.06711791      -0.01161217 </v>
   <v>       0.01773964      -0.00209666       0.03136233 </v>
   <v>      -0.01068558      -0.01431465       0.03136233 </v>
   <v>      -0.00705406       0.01641130       0.03136233 </v>
  </varray>
  <varray name="stress" >
   <v>       1.05873210      -0.00000063       0.00000000 </v>
   <v>       0.00000049       1.05873200       0.00000000 </v>
   <v>      -0.00000000       0.00000000       0.22734325 </v>
  </varray>
  <energy>
   <i name="e_fr_energy">    -49.70731257 </i>
   <i name="e_wo_entrp">    -49.70731257 </i>
   <i name="e_0_energy">      0.00000000 </i>
  </energy>
  <time name="totalsc">  485.26  736.50</time>
 </calculation>
 <calculation>
  <scstep>
   <time name="dav">   22.03   33.36</time>
   <time name="total">   62.88   96.29</time>
   <energy>
    <i name="alphaZ">     38.57149550 </i>
    <i name="ewald">   7404.57463248 </i>
    <i name="hartreedc">  -9523.66719762 </i>
    <i name="XCdc">    -49.75818736 </i>
    <i name="pawpsdc">   1283.71388318 </i>
    <i name="pawaedc">  -1129.71071784 </i>
    <i name="eentropy">      0.00000000 </i>
    <i name="bandstr">   -459.91347103 </i>
    <i name="atom">   2386.47938694 </i>
    <i name="e_fr_energy">    -49.71017575 </i>
    <i name="e_wo_entrp">    -49.71017575 </i>
    <i name="e_0_energy">    -49.71017575 </i>
   </energy>
  </scstep>
  <scstep>
   <time name="dav">   21.59   33.04</time>
   <time name="total">   61.78   95.17</time>
   <energy>
    <i name="e_fr_energy">    -49.70980597 </i>
    <i name="e_wo_entrp">    -49.70980597 </i>
    <i name="e_0_energy">    -49.70980597 </i>
   </energy>
  </scstep>
  <scstep>
   <time name="dav">   26.86   40.20</time>
   <time name="total">   67.24  102.31</time>
   <energy>
    <i name="e_fr_energy">    -49.70937052 </i>
    <i name="e_wo_entrp">    -49.70937052 </i>
    <i name="e_0_energy">    -49.70937052 </i>
   </energy>
  </scstep>
  <scstep>
   <time name="dav">   25.64   37.49</time>
   <time name="total">   66.16   99.42</time>
   <energy>
    <i name="e_fr_energy">    -49.70912921 </i>
    <i name="e_wo_entrp">    -49.70912921 </i>
    <i name="e_0_energy">    -49.70912921 </i>
   </energy>
  </scstep>
  <scstep>
   <time name="dav">   21.74   30.98</time>
   <time name="total">   62.18   92.46</time>
   <energy>
    <i name="e_fr_energy">    -49.70932332 </i>
    <i name="e_wo_entrp">    -49.70932332 </i>
    <i name="e_0_energy">    -49.70932332 </i>
   </energy>
  </scstep>
  <scstep>
   <time name="dav">   20.85   30.89</time>
   <time name="total">   60.17   89.65</time>
   <energy>
    <i name="alphaZ">     38.57149550 </i>
    <i name="ewald">   7404.57463248 </i>
    <i name="hartreedc">  -9525.35951318 </i>
    <i name="XCdc">    -49.70204895 </i>
    <i name="pawpsdc">   1282.52764143 </i>
    <i name="pawaedc">  -1128.51501207 </i>
    <i name="eentropy">      0.00000000 </i>
    <i name="bandstr">   -458.28597658 </i>
    <i name="atom">   2386.47938694 </i>
    <i name="e_fr_energy">    -49.70939443 </i>
    <i name="e_wo_entrp">    -49.70939443 </i>
    <i name="e_0_energy">    -49.70939443 </i>
   </energy>
  </scstep>
  <structure>
   <crystal>
    <varray name="basis" >
     <v>       6.28155764       0.00000001       0.00000000 </v>
     <v>       3.14077845       5.43998823      -0.00000000 </v>
     <v>      -0.00000000      -0.00000000      22.25840547 </v>
    </varray>
    <i name="volume">    760.60531876 </i>
    <varray name="rec_basis" >
     <v>       0.15919618      -0.09191195       0.00000000 </v>
     <v>      -0.00000000       0.18382393       0.00000000 </v>
     <v>      -0.00000000       0.00000000       0.04492685 </v>
    </varray>
   </crystal>
   <varray name="positions" >
    <v>       0.33333300       0.33333300       0.49992500 </v>
    <v>       0.66666700       0.66666700       0.50007500 </v>
    <v>       0.00000000       0.00000000       0.45202702 </v>
    <v>       0.00000000       0.00000000       0.55259082 </v>
    <v>       0.62987015       0.00014511       0.57078039 </v>
    <v>       0.00014511       0.36998574       0.57078039 </v>
    <v>       0.36998574       0.62987015       0.57078039 </v>
    <v>       0.35569970       0.99981927       0.42699016 </v>
    <v>       0.99981927       0.64448003       0.42699016 </v>
    <v>       0.64448003       0.35569970       0.42699016 </v>
   </varray>
  </structure>
  <varray name="forces" >
   <v>      -0.00000000       0.00000000      -0.15517779 </v>
   <v>      -0.00000000       0.00000000      -0.16846448 </v>
   <v>      -0.00000000       0.00000000       0.02536656 </v>
   <v>      -0.00000000       0.00000000       0.28448762 </v>
   <v>      -0.08117019      -0.00011758      -0.06166369 </v>
   <v>       0.04048326       0.07035423      -0.06166369 </v>
   <v>       0.04068693      -0.07023665      -0.06166369 </v>
   <v>       0.01116502      -0.00043853       0.06625972 </v>
   <v>      -0.00596229      -0.00944992       0.06625972 </v>
   <v>      -0.00520273       0.00988845       0.06625972 </v>
  </varray>
  <varray name="stress" >
   <v>       0.39335472      -0.00000061       0.00000000 </v>
   <v>       0.00000056       0.39335468       0.00000000 </v>
   <v>      -0.00000000       0.00000000      -0.60605267 </v>
  </varray>
  <energy>
   <i name="e_fr_energy">    -49.70939443 </i>
   <i name="e_wo_entrp">    -49.70939443 </i>
   <i name="e_0_energy">      0.00000000 </i>
  </energy>
  <time name="totalsc">  482.42  727.84</time>
 </calculation>
 <calculation>
  <scstep>
   <time name="dav">   23.78   36.33</time>
   <time name="total">   66.05   99.14</time>
   <energy>
    <i name="alphaZ">     38.69947015 </i>
    <i name="ewald">   7382.33654083 </i>
    <i name="hartreedc">  -9507.35271410 </i>
    <i name="XCdc">    -49.56561109 </i>
    <i name="pawpsdc">   1282.35268477 </i>
    <i name="pawaedc">  -1128.33485354 </i>
    <i name="eentropy">      0.00000000 </i>
    <i name="bandstr">   -454.32778131 </i>
    <i name="atom">   2386.47938694 </i>
    <i name="e_fr_energy">    -49.71287735 </i>
    <i name="e_wo_entrp">    -49.71287735 </i>
    <i name="e_0_energy">    -49.71287735 </i>
   </energy>
  </scstep>
  <scstep>
   <time name="dav">   20.28   31.87</time>
   <time name="total">   62.04   94.49</time>
   <energy>
    <i name="e_fr_energy">    -49.71157660 </i>
    <i name="e_wo_entrp">    -49.71157660 </i>
    <i name="e_0_energy">    -49.71157660 </i>
   </energy>
  </scstep>
  <scstep>
   <time name="dav">   25.88   38.01</time>
   <time name="total">   67.58  100.27</time>
   <energy>
    <i name="e_fr_energy">    -49.71021850 </i>
    <i name="e_wo_entrp">    -49.71021850 </i>
    <i name="e_0_energy">    -49.71021850 </i>
   </energy>
  </scstep>
  <scstep>
   <time name="dav">   25.14   37.79</time>
   <time name="total">   67.71   99.62</time>
   <energy>
    <i name="e_fr_energy">    -49.70934964 </i>
    <i name="e_wo_entrp">    -49.70934964 </i>
    <i name="e_0_energy">    -49.70934964 </i>
   </energy>
  </scstep>
  <scstep>
   <time name="dav">   21.11   32.32</time>
   <time name="total">   62.46   93.36</time>
   <energy>
    <i name="e_fr_energy">    -49.70923711 </i>
    <i name="e_wo_entrp">    -49.70923711 </i>
    <i name="e_0_energy">    -49.70923711 </i>
   </energy>
  </scstep>
  <scstep>
   <time name="dav">   17.41   25.85</time>
   <time name="total">   58.06   86.13</time>
   <energy>
    <i name="alphaZ">     38.69947015 </i>
    <i name="ewald">   7382.33654083 </i>
    <i name="hartreedc">  -9504.90785220 </i>
    <i name="XCdc">    -49.63072297 </i>
    <i name="pawpsdc">   1283.71309605 </i>
    <i name="pawaedc">  -1129.70806587 </i>
    <i name="eentropy">      0.00000000 </i>
    <i name="bandstr">   -456.69111358 </i>
    <i name="atom">   2386.47938694 </i>
    <i name="e_fr_energy">    -49.70926065 </i>
    <i name="e_wo_entrp">    -49.70926065 </i>
    <i name="e_0_energy">    -49.70926065 </i>
   </energy>
  </scstep>
  <structure>
   <crystal>
    <varray name="basis" >
[...]
        <r>  0.0067  0.0005  0.0029  0.0154  0.0003  0.0000  0.0007  0.0008  0.0037 </r>
        <r>  0.0030  0.0106  0.0033  0.0036  0.0036  0.0007  0.0003  0.0002  0.0012 </r>
        <r>  0.0067  0.0093  0.0028  0.0067  0.0032  0.0005  0.0008  0.0004  0.0007 </r>
       </set>
       <set comment="band 30">
        <r>  0.0007  0.0001  0.0003  0.0006  0.2121  0.0051  0.0447  0.0364  0.1059 </r>
        <r>  0.0008  0.0006  0.0003  0.0000  0.0600  0.0367  0.0447  0.0045  0.2600 </r>
        <r>  0.0000  0.0005  0.0000  0.0014  0.0000  0.0000  0.0000  0.0000  0.0000 </r>
        <r>  0.0000  0.0028  0.0000  0.0083  0.0000  0.0000  0.0000  0.0000  0.0000 </r>
        <r>  0.0004  0.0012  0.0001  0.0038  0.0013  0.0006  0.0004  0.0000  0.0004 </r>
        <r>  0.0000  0.0011  0.0000  0.0033  0.0004  0.0000  0.0000  0.0000  0.0011 </r>
        <r>  0.0004  0.0046  0.0001  0.0005  0.0001  0.0001  0.0004  0.0004  0.0015 </r>
        <r>  0.0010  0.0076  0.0032  0.0005  0.0000  0.0001  0.0002  0.0001  0.0001 </r>
        <r>  0.0000  0.0005  0.0000  0.0015  0.0003  0.0003  0.0000  0.0009  0.0010 </r>
        <r>  0.0011  0.0013  0.0032  0.0069  0.0001  0.0001  0.0002  0.0001  0.0000 </r>
       </set>
       <set comment="band 31">
        <r>  0.0025  0.0003  0.0006  0.0005  0.0581  0.0165  0.0955  0.0002  0.1988 </r>
        <r>  0.0026  0.0001  0.0005  0.0004  0.2561  0.0044  0.1329  0.0136  0.0130 </r>
        <r>  0.0007  0.0033  0.0000  0.0052  0.0000  0.0000  0.0000  0.0000  0.0000 </r>
        <r>  0.0003  0.0086  0.0000  0.0104  0.0000  0.0000  0.0000  0.0000  0.0000 </r>
        <r>  0.0024  0.0026  0.0007  0.0046  0.0000  0.0006  0.0003  0.0000  0.0001 </r>
        <r>  0.0001  0.0000  0.0001  0.0017  0.0004  0.0007  0.0001  0.0018  0.0006 </r>
        <r>  0.0024  0.0008  0.0012  0.0043  0.0001  0.0000  0.0004  0.0003  0.0001 </r>
        <r>  0.0007  0.0016  0.0017  0.0010  0.0007  0.0007  0.0005  0.0000  0.0003 </r>
        <r>  0.0001  0.0015  0.0002  0.0033  0.0004  0.0001  0.0001  0.0002  0.0004 </r>
        <r>  0.0008  0.0009  0.0026  0.0031  0.0000  0.0002  0.0007  0.0003  0.0007 </r>
       </set>
       <set comment="band 32">
        <r>  0.0018  0.0000  0.0001  0.0004  0.0310  0.0049  0.2232  0.0037  0.1473 </r>
        <r>  0.0017  0.0004  0.0002  0.0004  0.1289  0.0058  0.1857  0.0017  0.0373 </r>
        <r>  0.0104  0.0018  0.0001  0.0024  0.0000  0.0000  0.0000  0.0000  0.0000 </r>
        <r>  0.0038  0.0070  0.0005  0.0076  0.0000  0.0000  0.0000  0.0000  0.0000 </r>
        <r>  0.0003  0.0004  0.0014  0.0036  0.0003  0.0005  0.0002  0.0003  0.0002 </r>
        <r>  0.0017  0.0051  0.0010  0.0010  0.0007  0.0001  0.0010  0.0002  0.0004 </r>
        <r>  0.0002  0.0054  0.0008  0.0006  0.0003  0.0000  0.0000  0.0011  0.0001 </r>
        <r>  0.0002  0.0023  0.0009  0.0055  0.0001  0.0001  0.0004  0.0003  0.0002 </r>
        <r>  0.0008  0.0012  0.0030  0.0009  0.0008  0.0000  0.0013  0.0000  0.0005 </r>
        <r>  0.0002  0.0012  0.0001  0.0051  0.0001  0.0002  0.0002  0.0004  0.0004 </r>
       </set>
       <set comment="band 33">
        <r>  0.0003  0.0001  0.0013  0.0001  0.0296  0.1251  0.1101  0.0438  0.0059 </r>
        <r>  0.0002  0.0001  0.0013  0.0001  0.0021  0.1211  0.1073  0.0501  0.0327 </r>
        <r>  0.0000  0.0010  0.0000  0.0031  0.0000  0.0000  0.0000  0.0000  0.0000 </r>
        <r>  0.0000  0.0038  0.0000  0.0112  0.0000  0.0000  0.0000  0.0000  0.0000 </r>
        <r>  0.0046  0.0006  0.0088  0.0154  0.0016  0.0003  0.0002  0.0003  0.0002 </r>
        <r>  0.0000  0.0008  0.0000  0.0025  0.0006  0.0003  0.0000  0.0008  0.0019 </r>
        <r>  0.0046  0.0097  0.0088  0.0063  0.0002  0.0000  0.0002  0.0006  0.0015 </r>
        <r>  0.0017  0.0014  0.0053  0.0082  0.0016  0.0002  0.0002  0.0003  0.0003 </r>
        <r>  0.0000  0.0007  0.0000  0.0023  0.0005  0.0000  0.0000  0.0001  0.0015 </r>
        <r>  0.0017  0.0047  0.0055  0.0050  0.0004  0.0001  0.0002  0.0004  0.0014 </r>
       </set>
       <set comment="band 34">
        <r>  0.0009  0.0002  0.0003  0.0002  0.0826  0.0282  0.0264  0.0977  0.0366 </r>
        <r>  0.0009  0.0003  0.0003  0.0001  0.0420  0.0742  0.0263  0.0525  0.0752 </r>
        <r>  0.0179  0.0010  0.0147  0.0003  0.0000  0.0000  0.0000  0.0000  0.0000 </r>
        <r>  0.0068  0.0056  0.0097  0.0019  0.0000  0.0000  0.0000  0.0000  0.0000 </r>
        <r>  0.0012  0.0017  0.0032  0.0027  0.0004  0.0002  0.0004  0.0021  0.0016 </r>
        <r>  0.0078  0.0045  0.0071  0.0015  0.0002  0.0010  0.0001  0.0004  0.0001 </r>
        <r>  0.0012  0.0009  0.0033  0.0036  0.0016  0.0013  0.0004  0.0010  0.0003 </r>
        <r>  0.0034  0.0006  0.0066  0.0069  0.0001  0.0001  0.0002  0.0029  0.0009 </r>
        <r>  0.0056  0.0034  0.0006  0.0012  0.0009  0.0014  0.0003  0.0005  0.0003 </r>
        <r>  0.0034  0.0035  0.0065  0.0039  0.0008  0.0021  0.0002  0.0009  0.0002 </r>
       </set>
       <set comment="band 35">
        <r>  0.0044  0.0002  0.0026  0.0008  0.0047  0.0475  0.0126  0.0304  0.0044 </r>
        <r>  0.0044  0.0003  0.0026  0.0007  0.0084  0.0060  0.0125  0.0730  0.0008 </r>
        <r>  0.0047  0.0139  0.0004  0.0047  0.0000  0.0000  0.0000  0.0000  0.0000 </r>
        <r>  0.0013  0.0612  0.0010  0.0204  0.0000  0.0000  0.0000  0.0000  0.0000 </r>
        <r>  0.0017  0.0021  0.0063  0.0107  0.0041  0.0005  0.0000  0.0005  0.0002 </r>
        <r>  0.0089  0.0744  0.0058  0.0247  0.0020  0.0019  0.0000  0.0006  0.0007 </r>
        <r>  0.0018  0.0054  0.0063  0.0072  0.0019  0.0008  0.0000  0.0002  0.0025 </r>
        <r>  0.0000  0.0012  0.0017  0.0027  0.0022  0.0004  0.0000  0.0005  0.0007 </r>
        <r>  0.0054  0.0301  0.0056  0.0102  0.0001  0.0021  0.0001  0.0007  0.0000 </r>
        <r>  0.0000  0.0034  0.0016  0.0004  0.0011  0.0004  0.0000  0.0006  0.0018 </r>
       </set>
       <set comment="band 36">
        <r>  0.0011  0.0001  0.0001  0.0004  0.0412  0.1061  0.0303  0.0583  0.0290 </r>
        <r>  0.0005  0.0005  0.0001  0.0005  0.0548  0.0827  0.0210  0.1389  0.0305 </r>
        <r>  0.0008  0.0019  0.0002  0.0003  0.0000  0.0000  0.0000  0.0000  0.0000 </r>
        <r>  0.0008  0.0098  0.0014  0.0040  0.0000  0.0000  0.0000  0.0000  0.0000 </r>
        <r>  0.0028  0.0094  0.0056  0.0056  0.0002  0.0013  0.0001  0.0003  0.0010 </r>
        <r>  0.0104  0.0100  0.0129  0.0031  0.0005  0.0005  0.0003  0.0003  0.0002 </r>
        <r>  0.0031  0.0012  0.0059  0.0230  0.0010  0.0003  0.0000  0.0020  0.0001 </r>
        <r>  0.0029  0.0120  0.0061  0.0003  0.0000  0.0020  0.0000  0.0001  0.0002 </r>
        <r>  0.0050  0.0058  0.0116  0.0040  0.0005  0.0004  0.0002  0.0001  0.0002 </r>
        <r>  0.0031  0.0029  0.0068  0.0033  0.0001  0.0005  0.0000  0.0014  0.0001 </r>
       </set>
       <set comment="band 37">
        <r>  0.0010  0.0008  0.0001  0.0003  0.0211  0.1365  0.0073  0.1562  0.0210 </r>
        <r>  0.0015  0.0003  0.0001  0.0005  0.0022  0.0421  0.0167  0.1896  0.0237 </r>
        <r>  0.0000  0.0007  0.0000  0.0031  0.0000  0.0000  0.0000  0.0000  0.0000 </r>
        <r>  0.0000  0.0024  0.0000  0.0050  0.0000  0.0000  0.0000  0.0000  0.0000 </r>
        <r>  0.0037  0.0357  0.0025  0.0045  0.0005  0.0013  0.0001  0.0002  0.0003 </r>
        <r>  0.0002  0.0044  0.0002  0.0143  0.0003  0.0008  0.0000  0.0022  0.0006 </r>
        <r>  0.0033  0.0088  0.0022  0.0221  0.0000  0.0002  0.0001  0.0007  0.0008 </r>
        <r>  0.0039  0.0136  0.0029  0.0014  0.0003  0.0001  0.0001  0.0002  0.0001 </r>
        <r>  0.0001  0.0082  0.0002  0.0186  0.0004  0.0009  0.0000  0.0030  0.0011 </r>
        <r>  0.0037  0.0018  0.0022  0.0196  0.0001  0.0000  0.0001  0.0004  0.0003 </r>
       </set>
       <set comment="band 38">
        <r>  0.0046  0.0008  0.0007  0.0009  0.0292  0.0311  0.0069  0.0743  0.0024 </r>
        <r>  0.0046  0.0014  0.0007  0.0003  0.0159  0.1037  0.0069  0.0020  0.0157 </r>
        <r>  0.0000  0.0021  0.0000  0.0063  0.0000  0.0000  0.0000  0.0000  0.0000 </r>
        <r>  0.0000  0.0159  0.0000  0.0472  0.0000  0.0000  0.0000  0.0000  0.0000 </r>
        <r>  0.0047  0.0271  0.0014  0.0491  0.0006  0.0011  0.0002  0.0017  0.0017 </r>
        <r>  0.0000  0.0113  0.0000  0.0338  0.0007  0.0001  0.0000  0.0003  0.0020 </r>
        <r>  0.0047  0.0746  0.0014  0.0014  0.0012  0.0026  0.0002  0.0002  0.0010 </r>
        <r>  0.0018  0.0206  0.0022  0.0048  0.0004  0.0018  0.0001  0.0010  0.0002 </r>
        <r>  0.0000  0.0015  0.0000  0.0043  0.0001  0.0001  0.0000  0.0002  0.0002 </r>
        <r>  0.0019  0.0167  0.0021  0.0088  0.0004  0.0019  0.0001  0.0009  0.0001 </r>
       </set>
       <set comment="band 39">
        <r>  0.0003  0.0001  0.0001  0.0007  0.0404  0.0643  0.0007  0.0414  0.0219 </r>
        <r>  0.0003  0.0005  0.0001  0.0004  0.0386  0.0699  0.0007  0.0337  0.0230 </r>
        <r>  0.0801  0.0005  0.0286  0.0002  0.0000  0.0000  0.0000  0.0000  0.0000 </r>
        <r>  0.0013  0.0006  0.0295  0.0002  0.0000  0.0000  0.0000  0.0000  0.0000 </r>
        <r>  0.0002  0.0000  0.0083  0.0101  0.0000  0.0001  0.0000  0.0000  0.0003 </r>
        <r>  0.0006  0.0068  0.0048  0.0023  0.0000  0.0000  0.0001  0.0000  0.0000 </r>
        <r>  0.0002  0.0078  0.0084  0.0025  0.0003  0.0001  0.0000  0.0001  0.0001 </r>
        <r>  0.0046  0.0018  0.0009  0.0558  0.0002  0.0001  0.0009  0.0002  0.0050 </r>
        <r>  0.0017  0.0346  0.0001  0.0117  0.0033  0.0000  0.0005  0.0000  0.0011 </r>
        <r>  0.0046  0.0340  0.0009  0.0234  0.0047  0.0003  0.0009  0.0000  0.0005 </r>
       </set>
       <set comment="band 40">
        <r>  0.0168  0.0026  0.0022  0.0001  0.0218  0.0011  0.0162  0.0086  0.0041 </r>
        <r>  0.0168  0.0007  0.0022  0.0020  0.0008  0.0075  0.0161  0.0020  0.0247 </r>
        <r>  0.0077  0.0505  0.0147  0.0169  0.0000  0.0000  0.0000  0.0000  0.0000 </r>
        <r>  0.0058  0.0214  0.0111  0.0071  0.0000  0.0000  0.0000  0.0000  0.0000 </r>
        <r>  0.0003  0.0024  0.0036  0.0007  0.0021  0.0011  0.0012  0.0003  0.0009 </r>
        <r>  0.0038  0.0062  0.0021  0.0021  0.0009  0.0037  0.0003  0.0012  0.0003 </r>
        <r>  0.0003  0.0003  0.0037  0.0028  0.0023  0.0008  0.0012  0.0006  0.0008 </r>
        <r>  0.0010  0.0033  0.0009  0.0007  0.0087  0.0007  0.0002  0.0004  0.0017 </r>
        <r>  0.0259  0.0191  0.0164  0.0064  0.0017  0.0028  0.0001  0.0009  0.0006 </r>
        <r>  0.0011  0.0001  0.0009  0.0040  0.0062  0.0009  0.0002  0.0002  0.0043 </r>
       </set>
       <set comment="band 41">
        <r>  0.0052  0.0041  0.0006  0.0042  0.0119  0.0093  0.0082  0.0145  0.0345 </r>
        <r>  0.0051  0.0060  0.0006  0.0023  0.0320  0.0077  0.0082  0.0160  0.0142 </r>
        <r>  0.0110  0.0167  0.0571  0.0056  0.0000  0.0000  0.0000  0.0000  0.0000 </r>
        <r>  0.0198  0.0042  0.0221  0.0014  0.0000  0.0000  0.0000  0.0000  0.0000 </r>
        <r>  0.0009  0.0007  0.0050  0.0013  0.0010  0.0005  0.0003  0.0039  0.0000 </r>
        <r>  0.0027  0.0020  0.0199  0.0007  0.0008  0.0003  0.0012  0.0001  0.0003 </r>
        <r>  0.0009  0.0017  0.0050  0.0003  0.0003  0.0041  0.0003  0.0003  0.0007 </r>
        <r>  0.0021  0.0014  0.0179  0.0005  0.0031  0.0002  0.0002  0.0052  0.0004 </r>
        <r>  0.0019  0.0092  0.0189  0.0030  0.0025  0.0014  0.0012  0.0005  0.0008 </r>
        <r>  0.0020  0.0007  0.0179  0.0013  0.0005  0.0047  0.0002  0.0006  0.0030 </r>
       </set>
       <set comment="band 42">
        <r>  0.0114  0.0013  0.0011  0.0001  0.0069  0.0167  0.0074  0.0123  0.0148 </r>
        <r>  0.0112  0.0005  0.0011  0.0009  0.0092  0.0079  0.0072  0.0209  0.0125 </r>
        <r>  0.0000  0.0210  0.0000  0.0628  0.0000  0.0000  0.0000  0.0000  0.0000 </r>
        <r>  0.0000  0.0067  0.0000  0.0202  0.0000  0.0000  0.0000  0.0000  0.0000 </r>
        <r>  0.0008  0.0020  0.0013  0.0067  0.0010  0.0005  0.0021  0.0013  0.0015 </r>
        <r>  0.0000  0.0021  0.0000  0.0064  0.0009  0.0003  0.0000  0.0010  0.0027 </r>
        <r>  0.0008  0.0077  0.0013  0.0010  0.0004  0.0011  0.0021  0.0007  0.0022 </r>
        <r>  0.0101  0.0108  0.0013  0.0283  0.0033  0.0001  0.0007  0.0013  0.0030 </r>
        <r>  0.0000  0.0074  0.0000  0.0225  0.0034  0.0001  0.0000  0.0002  0.0101 </r>
        <r>  0.0101  0.0385  0.0013  0.0007  0.0011  0.0012  0.0007  0.0001  0.0053 </r>
       </set>
       <set comment="band 43">
        <r>  0.0039  0.0003  0.0013  0.0040  0.0035  0.0032  0.0049  0.0027  0.0002 </r>
        <r>  0.0039  0.0026  0.0013  0.0016  0.0003  0.0041  0.0048  0.0018  0.0035 </r>
        <r>  0.0029  0.0005  0.0048  0.0002  0.0000  0.0000  0.0000  0.0000  0.0000 </r>
        <r>  0.0009  0.0032  0.0065  0.0011  0.0000  0.0000  0.0000  0.0000  0.0000 </r>
        <r>  0.0003  0.0013  0.0029  0.0045  0.0002  0.0004  0.0003  0.0005  0.0001 </r>
        <r>  0.0040  0.0017  0.0046  0.0006  0.0004  0.0001  0.0061  0.0000  0.0001 </r>
        <r>  0.0003  0.0017  0.0030  0.0040  0.0000  0.0004  0.0003  0.0005  0.0002 </r>
        <r>  0.0004  0.0006  0.0034  0.0029  0.0003  0.0010  0.0012  0.0016  0.0001 </r>
        <r>  0.0029  0.0024  0.0031  0.0008  0.0006  0.0039  0.0016  0.0013  0.0002 </r>
        <r>  0.0004  0.0012  0.0035  0.0023  0.0001  0.0024  0.0012  0.0002  0.0002 </r>
       </set>
       <set comment="band 44">
        <r>  0.0064  0.0019  0.0023  0.0023  0.0037  0.0015  0.0020  0.0014  0.0047 </r>
        <r>  0.0063  0.0036  0.0022  0.0006  0.0034  0.0017  0.0020  0.0013  0.0051 </r>
        <r>  0.0000  0.0012  0.0000  0.0037  0.0000  0.0000  0.0000  0.0000  0.0000 </r>
        <r>  0.0000  0.0006  0.0000  0.0018  0.0000  0.0000  0.0000  0.0000  0.0000 </r>
        <r>  0.0042  0.0016  0.0134  0.0017  0.0001  0.0009  0.0033  0.0008  0.0000 </r>
        <r>  0.0000  0.0013  0.0000  0.0039  0.0000  0.0009  0.0000  0.0027  0.0000 </r>
        <r>  0.0042  0.0031  0.0133  0.0002  0.0000  0.0002  0.0033  0.0014  0.0001 </r>
        <r>  0.0011  0.0006  0.0044  0.0027  0.0005  0.0010  0.0003  0.0013  0.0007 </r>
        <r>  0.0000  0.0008  0.0000  0.0024  0.0004  0.0007  0.0000  0.0021  0.0013 </r>
        <r>  0.0011  0.0022  0.0043  0.0012  0.0003  0.0003  0.0003  0.0020  0.0008 </r>
       </set>
       <set comment="band 45">
        <r>  0.0161  0.0012  0.0092  0.0007  0.0035  0.0008  0.0050  0.0007  0.0127 </r>
        <r>  0.0163  0.0001  0.0094  0.0017  0.0073  0.0014  0.0051  0.0002  0.0084 </r>
        <r>  0.0009  0.0043  0.0025  0.0014  0.0000  0.0000  0.0000  0.0000  0.0000 </r>
        <r>  0.0000  0.0025  0.0003  0.0009  0.0000  0.0000  0.0000  0.0000  0.0000 </r>
        <r>  0.0006  0.0018  0.0001  0.0004  0.0008  0.0044  0.0007  0.0003  0.0001 </r>
        <r>  0.0010  0.0025  0.0049  0.0008  0.0001  0.0018  0.0028  0.0006  0.0000 </r>
        <r>  0.0006  0.0001  0.0001  0.0021  0.0006  0.0021  0.0007  0.0026  0.0004 </r>
        <r>  0.0008  0.0025  0.0018  0.0004  0.0066  0.0075  0.0001  0.0009  0.0005 </r>
        <r>  0.0009  0.0035  0.0163  0.0012  0.0006  0.0023  0.0070  0.0008  0.0002 </r>
        <r>  0.0008  0.0006  0.0019  0.0022  0.0021  0.0027  0.0001  0.0057  0.0050 </r>
       </set>
       <set comment="band 46">
        <r>  0.0005  0.0014  0.0009  0.0005  0.0008  0.0001  0.0065  0.0000  0.0024 </r>
        <r>  0.0005  0.0005  0.0008  0.0015  0.0018  0.0001  0.0065  0.0001  0.0016 </r>
        <r>  0.0000  0.0018  0.0000  0.0055  0.0000  0.0000  0.0000  0.0000  0.0000 </r>
        <r>  0.0000  0.0007  0.0000  0.0021  0.0000  0.0000  0.0000  0.0000  0.0000 </r>
        <r>  0.0004  0.0002  0.0004  0.0023  0.0001  0.0002  0.0006  0.0001  0.0005 </r>
        <r>  0.0000  0.0003  0.0000  0.0008  0.0002  0.0000  0.0000  0.0001  0.0005 </r>
        <r>  0.0004  0.0016  0.0004  0.0009  0.0002  0.0001  0.0006  0.0002  0.0003 </r>
        <r>  0.0020  0.0022  0.0097  0.0049  0.0005  0.0003  0.0049  0.0007  0.0006 </r>
        <r>  0.0000  0.0008  0.0000  0.0024  0.0008  0.0006  0.0000  0.0019  0.0024 </r>
        <r>  0.0019  0.0070  0.0097  0.0002  0.0002  0.0003  0.0049  0.0007  0.0009 </r>
       </set>
       <set comment="band 47">
        <r>  0.0343  0.0027  0.0035  0.0033  0.0015  0.0008  0.0004  0.0004  0.0026 </r>
        <r>  0.0342  0.0028  0.0035  0.0032  0.0008  0.0006  0.0003  0.0006  0.0035 </r>
        <r>  0.0010  0.0064  0.0063  0.0021  0.0000  0.0000  0.0000  0.0000  0.0000 </r>
        <r>  0.0006  0.0047  0.0054  0.0016  0.0000  0.0000  0.0000  0.0000  0.0000 </r>
        <r>  0.0010  0.0010  0.0079  0.0004  0.0033  0.0090  0.0001  0.0000  0.0003 </r>
        <r>  0.0000  0.0028  0.0118  0.0009  0.0043  0.0061  0.0003  0.0020  0.0014 </r>
        <r>  0.0010  0.0001  0.0077  0.0013  0.0003  0.0028  0.0001  0.0063  0.0033 </r>
        <r>  0.0006  0.0022  0.0037  0.0003  0.0009  0.0062  0.0000  0.0001  0.0005 </r>
        <r>  0.0003  0.0011  0.0079  0.0004  0.0023  0.0041  0.0012  0.0013  0.0008 </r>
        <r>  0.0006  0.0001  0.0035  0.0025  0.0001  0.0019  0.0000  0.0045  0.0012 </r>
       </set>
       <set comment="band 48">
        <r>  0.0035  0.0013  0.0139  0.0008  0.0029  0.0007  0.0020  0.0003  0.0007 </r>
        <r>  0.0035  0.0009  0.0138  0.0011  0.0008  0.0004  0.0020  0.0006  0.0029 </r>
        <r>  0.0030  0.0011  0.0123  0.0004  0.0000  0.0000  0.0000  0.0000  0.0000 </r>
        <r>  0.0024  0.0023  0.0140  0.0008  0.0000  0.0000  0.0000  0.0000  0.0000 </r>
        <r>  0.0001  0.0002  0.0007  0.0015  0.0054  0.0011  0.0006  0.0014  0.0013 </r>
        <r>  0.0012  0.0004  0.0094  0.0001  0.0045  0.0026  0.0009  0.0009  0.0015 </r>
        <r>  0.0001  0.0008  0.0007  0.0009  0.0013  0.0003  0.0006  0.0021  0.0054 </r>
        <r>  0.0001  0.0001  0.0010  0.0018  0.0063  0.0013  0.0022  0.0020  0.0011 </r>
        <r>  0.0026  0.0001  0.0041  0.0000  0.0030  0.0015  0.0011  0.0005  0.0010 </r>
        <r>  0.0001  0.0013  0.0010  0.0007  0.0021  0.0005  0.0022  0.0028  0.0052 </r>
       </set>
      </set>
     </set>
    </set>
   </array>
  </projected>
 </calculation>
 <structure name="finalpos" >
  <crystal>
   <varray name="basis" >
    <v>       6.28045267       0.00000001       0.00000000 </v>
    <v>       3.14022597       5.43903130      -0.00000000 </v>
    <v>      -0.00000000      -0.00000000      22.19260647 </v>
   </varray>
   <i name="volume">    758.09008538 </i>
   <varray name="rec_basis" >
    <v>       0.15922419      -0.09192812       0.00000000 </v>
    <v>      -0.00000000       0.18385627       0.00000000 </v>
    <v>      -0.00000000       0.00000000       0.04506005 </v>
   </varray>
  </crystal>
  <varray name="positions" >
   <v>       0.33333300       0.33333300       0.49992500 </v>
   <v>       0.66666700       0.66666700       0.50007500 </v>
   <v>       0.00000000       0.00000000       0.45245100 </v>
   <v>       0.00000000       0.00000000       0.55269665 </v>
   <v>       0.62951334       0.00012968       0.57065050 </v>
   <v>       0.00012968       0.37035798       0.57065050 </v>
   <v>       0.37035798       0.62951334       0.57065050 </v>
   <v>       0.35531904       0.99983430       0.42703594 </v>
   <v>       0.99983430       0.64484565       0.42703594 </v>
   <v>       0.64484565       0.35531904       0.42703594 </v>
  </varray>
  <varray name="selective"  type="logical" >
   <v type="logical" >  F  F  F </v>
   <v type="logical" >  F  F  F </v>
   <v type="logical" >  T  T  T </v>
   <v type="logical" >  T  T  T </v>
   <v type="logical" >  T  T  T </v>
   <v type="logical" >  T  T  T </v>
   <v type="logical" >  T  T  T </v>
   <v type="logical" >  T  T  T </v>
   <v type="logical" >  T  T  T </v>
   <v type="logical" >  T  T  T </v>
  </varray>
  <nose>
   <v>      -3.00000000       0.00000000       0.00010000       0.00010000 </v>
  </nose>
 </structure>
</modeling>
