unknown system                          
           1
     6.907777   -0.000000    0.000000
     3.453888    5.982310    0.000000
     0.000000    0.000000   23.444588
   Cr   Si   P    Se
   2   1   1   6
Direct configuration=     1
   0.33333300  0.33333300  0.49992500
   0.66666700  0.66666700  0.50007500
   0.00000000  0.00000000  0.44821600
   0.00000000  0.00000000  0.55178400
   0.62635700  0.00042000  0.57375200
   0.00042000  0.37322400  0.57375200
   0.37322400  0.62635700  0.57375200
   0.37364300  0.99958000  0.42624800
   0.99958000  0.62677600  0.42624800
   0.62677600  0.37364300  0.42624800
unknown system                          
           1
     6.207660    0.000000   -0.000000
     3.103830    5.375991    0.000000
    -0.000000    0.000000   21.848437
   Cr   Si   P    Se
   2   1   1   6
Direct configuration=     2
   0.33333300  0.33333300  0.49992500
   0.66666700  0.66666700  0.50007500
   0.00000000  0.00000000  0.44950787
   0.00000000  0.00000000  0.55150661
   0.62928494  0.00037006  0.57078731
   0.00037006  0.37034600  0.57078731
   0.37034600  0.62928494  0.57078731
   0.36566930  0.99963157  0.42850308
   0.99963157  0.63469814  0.42850308
   0.63469814  0.36566930  0.42850308
unknown system                          
           1
     6.283411    0.000000   -0.000000
     3.141705    5.441593    0.000000
    -0.000000    0.000000   22.021135
   Cr   Si   P    Se
   2   1   1   6
Direct configuration=     3
   0.33333300  0.33333300  0.49992500
   0.66666700  0.66666700  0.50007500
   0.00000000  0.00000000  0.44935789
   0.00000000  0.00000000  0.55153882
   0.62893241  0.00037608  0.57113151
   0.00037608  0.37069251  0.57113151
   0.37069251  0.62893241  0.57113151
   0.36662933  0.99962536  0.42824127
   0.99962536  0.63374432  0.42824127
   0.63374432  0.36662933  0.42824127
unknown system                          
           1
     6.268842    0.000000   -0.000000
     3.134421    5.428976    0.000000
    -0.000000    0.000000   22.170841
   Cr   Si   P    Se
   2   1   1   6
Direct configuration=     4
   0.33333300  0.33333300  0.49992500
   0.66666700  0.66666700  0.50007500
   0.00000000  0.00000000  0.44964359
   0.00000000  0.00000000  0.55223174
   0.62980693  0.00029880  0.57106837
   0.00029880  0.36989526  0.57106837
   0.36989526  0.62980693  0.57106837
   0.36242190  0.99967911  0.42775163
   0.99967911  0.63789799  0.42775163
   0.63789799  0.36242190  0.42775163
unknown system                          
           1
     6.257975    0.000000   -0.000000
     3.128987    5.419565    0.000000
    -0.000000    0.000000   22.282507
   Cr   Si   P    Se
   2   1   1   6
Direct configuration=     5
   0.33333300  0.33333300  0.49992500
   0.66666700  0.66666700  0.50007500
   0.00000000  0.00000000  0.44985525
   0.00000000  0.00000000  0.55274511
   0.63046075  0.00024103  0.57102159
   0.00024103  0.36929922  0.57102159
   0.36929922  0.63046075  0.57102159
   0.35927628  0.99971930  0.42738888
   0.99971930  0.64100342  0.42738888
   0.64100342  0.35927628  0.42738888
unknown system                          
           1
     6.285192    0.000000    0.000000
     3.142596    5.443136    0.000000
    -0.000000   -0.000000   22.337111
   Cr   Si   P    Se
   2   1   1   6
Direct configuration=     6
   0.33333300  0.33333300  0.49992500
   0.66666700  0.66666700  0.50007500
   0.00000000  0.00000000  0.45171875
   0.00000000  0.00000000  0.55244690
   0.63025244  0.00015488  0.57091560
   0.00015488  0.36959368  0.57091560
   0.36959368  0.63025244  0.57091560
   0.35582477  0.99981036  0.42689598
   0.99981036  0.64436387  0.42689598
   0.64436387  0.35582477  0.42689598
unknown system                          
           1
     6.282799    0.000000    0.000000
     3.141399    5.441063    0.000000
    -0.000000   -0.000000   22.332308
   Cr   Si   P    Se
   2   1   1   6
Direct configuration=     7
   0.33333300  0.33333300  0.49992500
   0.66666700  0.66666700  0.50007500
   0.00000000  0.00000000  0.45155526
   0.00000000  0.00000000  0.55247306
   0.63027068  0.00016243  0.57092490
   0.00016243  0.36956789  0.57092490
   0.36956789  0.63027068  0.57092490
   0.35612700  0.99980238  0.42693923
   0.99980238  0.64406961  0.42693923
   0.64406961  0.35612700  0.42693923
unknown system                          
           1
     6.280395    0.000000    0.000000
     3.140197    5.438981   -0.000000
    -0.000000   -0.000000   22.189148
   Cr   Si   P    Se
   2   1   1   6
Direct configuration=     8
   0.33333300  0.33333300  0.49992500
   0.66666700  0.66666700  0.50007500
   0.00000000  0.00000000  0.45247468
   0.00000000  0.00000000  0.55270256
   0.62949452  0.00012887  0.57064325
   0.00012887  0.37037761  0.57064325
   0.37037761  0.62949452  0.57064325
   0.35529896  0.99983510  0.42703850
   0.99983510  0.64486494  0.42703850
   0.64486494  0.35529896  0.42703850
unknown system                          
           1
     6.281558    0.000000    0.000000
     3.140778    5.439988   -0.000000
    -0.000000   -0.000000   22.258405
   Cr   Si   P    Se
   2   1   1   6
Direct configuration=     9
   0.33333300  0.33333300  0.49992500
   0.66666700  0.66666700  0.50007500
   0.00000000  0.00000000  0.45202702
   0.00000000  0.00000000  0.55259082
   0.62987015  0.00014511  0.57078039
   0.00014511  0.36998574  0.57078039
   0.36998574  0.62987015  0.57078039
   0.35569970  0.99981927  0.42699016
   0.99981927  0.64448003  0.42699016
   0.64448003  0.35569970  0.42699016
unknown system                          
           1
     6.280453    0.000000    0.000000
     3.140226    5.439031   -0.000000
    -0.000000   -0.000000   22.192606
   Cr   Si   P    Se
   2   1   1   6
Direct configuration=    10
   0.33333300  0.33333300  0.49992500
   0.66666700  0.66666700  0.50007500
   0.00000000  0.00000000  0.45245100
   0.00000000  0.00000000  0.55269665
   0.62951334  0.00012968  0.57065050
   0.00012968  0.37035798  0.57065050
   0.37035798  0.62951334  0.57065050
   0.35531904  0.99983430  0.42703594
   0.99983430  0.64484565  0.42703594
   0.64484565  0.35531904  0.42703594
