 vasp.5.4.4.18Apr17-6-g9f103f2a35 (build May  1 2020 15:48:39) complex           
 executed on             LinuxGNU date 2020.07.02  05:21:56
 running on    8 total cores
 distrk:  each k-point on    8 cores,    1 groups
 distr:  one band on NCORES_PER_BAND=   1 cores,    8 groups


--------------------------------------------------------------------------------------------------------


 INCAR:
 POTCAR:   PAW_PBE Cr 06Sep2000                   
 POTCAR:   PAW_PBE Si 05Jan2001                   
 POTCAR:    PAW_PBE S 17Jan2003                   

 ----------------------------------------------------------------------------- 
|                                                                             |
|           W    W    AA    RRRRR   N    N  II  N    N   GGGG   !!!           |
|           W    W   A  A   R    R  NN   N  II  NN   N  G    G  !!!           |
|           W    W  A    A  R    R  N N  N  II  N N  N  G       !!!           |
|           W WW W  AAAAAA  RRRRR   N  N N  II  N  N N  G  GGG   !            |
|           WW  WW  A    A  R   R   N   NN  II  N   NN  G    G                |
|           W    W  A    A  R    R  N    N  II  N    N   GGGG   !!!           |
|                                                                             |
|      For optimal performance we recommend to set                            |
|        NCORE= 4 - approx SQRT( number of cores)                             |
|      NCORE specifies how many cores store one orbital (NPAR=cpu/NCORE).     |
|      This setting can  greatly improve the performance of VASP for DFT.     |
|      The default,   NCORE=1            might be grossly inefficient         |
|      on modern multi-core architectures or massively parallel machines.     |
|      Do your own testing !!!!                                               |
|      Unfortunately you need to use the default for GW and RPA calculations. |
|      (for HF NCORE is supported but not extensively tested yet)             |
|                                                                             |
 ----------------------------------------------------------------------------- 


 ----------------------------------------------------------------------------- 
|                                                                             |
|  ADVICE TO THIS USER RUNNING 'VASP/VAMP'   (HEAR YOUR MASTER'S VOICE ...):  |
|                                                                             |
|      You have switched on vdW-DFT.                                          |
|      This routine was written and supplied by Jiri Klimes.                  |
|      We recommed that you carefully read and cite the following             |
|      publication                                                            |
|      J. Klimes, D.R. Bowler, A. Michelides                                  |
|        J. Phys.: Cond Matt. 22 022201 (2010)                                |
|      J. Klimes, D.R. Bowler, A. Michelides                                  |
|        Phys. Rev. B. 83, 195131 (2011)                                      |
|      and references therein.                                                |
|                                                                             |
 ----------------------------------------------------------------------------- 

 POTCAR:   PAW_PBE Cr 06Sep2000                   
   VRHFIN =Cr : d5 s1                                                           
   LEXCH  = PE                                                                  
   EATOM  =   276.9744 eV,   20.3570 Ry                                         
                                                                                
   TITEL  = PAW_PBE Cr 06Sep2000                                                
   LULTRA =        F    use ultrasoft PP ?                                      
   IUNSCR =        1    unscreen: 0-lin 1-nonlin 2-no                           
   RPACOR =    2.080    partial core radius                                     
   POMASS =   51.996; ZVAL   =    6.000    mass and valenz                      
   RCORE  =    2.500    outmost cutoff radius                                   
   RWIGS  =    2.500; RWIGS  =    1.323    wigner-seitz radius (au A)           
   ENMAX  =  227.082; ENMIN  =  170.311 eV                                      
   RCLOC  =    1.721    cutoff for local pot                                    
   LCOR   =        T    correct aug charges                                     
   LPAW   =        T    paw PP                                                  
   EAUG   =  402.108                                                            
   DEXC   =    -.035                                                            
   RMAX   =    3.060    core radius for proj-oper                               
   RAUG   =    1.300    factor for augmentation sphere                          
   RDEP   =    2.609    radius for radial grids                                 
   QCUT   =   -4.085; QGAM   =    8.171    optimization parameters              
                                                                                
   Description                                                                  
     l     E      TYP  RCUT    TYP  RCUT                                        
     2   .000     23  2.500                                                     
     2   .000     23  2.500                                                     
     0   .000     23  2.500                                                     
     0   .000     23  2.500                                                     
     1  -.400     23  2.500                                                     
     1  2.000     23  2.500                                                     
     3   .000      7   .000                                                     
  local pseudopotential read in
  partial core-charges read in
  atomic valenz-charges read in
  non local Contribution for L=           2  read in
    real space projection operators read in
  non local Contribution for L=           2  read in
    real space projection operators read in
  non local Contribution for L=           0  read in
    real space projection operators read in
  non local Contribution for L=           0  read in
    real space projection operators read in
  non local Contribution for L=           1  read in
    real space projection operators read in
  non local Contribution for L=           1  read in
    real space projection operators read in
    PAW grid and wavefunctions read in

   number of l-projection  operators is LMAX  =           6
   number of lm-projection operators is LMMAX =          18

 POTCAR:   PAW_PBE Si 05Jan2001                   
   VRHFIN =Si: s2p2                                                             
   LEXCH  = PE                                                                  
   EATOM  =   103.0669 eV,    7.5752 Ry                                         
                                                                                
   TITEL  = PAW_PBE Si 05Jan2001                                                
   LULTRA =        F    use ultrasoft PP ?                                      
   IUNSCR =        1    unscreen: 0-lin 1-nonlin 2-no                           
   RPACOR =    1.500    partial core radius                                     
   POMASS =   28.085; ZVAL   =    4.000    mass and valenz                      
   RCORE  =    1.900    outmost cutoff radius                                   
   RWIGS  =    2.480; RWIGS  =    1.312    wigner-seitz radius (au A)           
   ENMAX  =  245.345; ENMIN  =  184.009 eV                                      
   ICORE  =        2    local potential                                         
   LCOR   =        T    correct aug charges                                     
   LPAW   =        T    paw PP                                                  
   EAUG   =  322.069                                                            
   DEXC   =    -.007                                                            
   RMAX   =    2.944    core radius for proj-oper                               
   RAUG   =    1.300    factor for augmentation sphere                          
   RDEP   =    1.993    radius for radial grids                                 
   QCUT   =   -4.246; QGAM   =    8.493    optimization parameters              
                                                                                
   Description                                                                  
     l     E      TYP  RCUT    TYP  RCUT                                        
     0   .000     23  1.900                                                     
     0   .000     23  1.900                                                     
     1   .000     23  1.900                                                     
     1   .000     23  1.900                                                     
     2   .000      7  1.900                                                     
  local pseudopotential read in
  partial core-charges read in
  atomic valenz-charges read in
  non local Contribution for L=           0  read in
    real space projection operators read in
  non local Contribution for L=           0  read in
    real space projection operators read in
  non local Contribution for L=           1  read in
    real space projection operators read in
  non local Contribution for L=           1  read in
    real space projection operators read in
    PAW grid and wavefunctions read in

   number of l-projection  operators is LMAX  =           4
   number of lm-projection operators is LMMAX =           8

 POTCAR:    PAW_PBE S 17Jan2003                   
   VRHFIN =S : s2p4                                                             
   LEXCH  = PE                                                                  
   EATOM  =   276.8230 eV,   20.3459 Ry                                         
                                                                                
   TITEL  = PAW_PBE S 17Jan2003                                                 
   LULTRA =        F    use ultrasoft PP ?                                      
   IUNSCR =        1    unscreen: 0-lin 1-nonlin 2-no                           
   RPACOR =    1.500    partial core radius                                     
   POMASS =   32.066; ZVAL   =    6.000    mass and valenz                      
   RCORE  =    1.900    outmost cutoff radius                                   
   RWIGS  =    2.200; RWIGS  =    1.164    wigner-seitz radius (au A)           
   ENMAX  =  280.000; ENMIN  =  194.016 eV                                      
   ICORE  =        2    local potential                                         
   LCOR   =        T    correct aug charges                                     
   LPAW   =        T    paw PP                                                  
   EAUG   =  335.092                                                            
   DEXC   =     .000                                                            
   RMAX   =    2.867    core radius for proj-oper                               
   RAUG   =    1.300    factor for augmentation sphere                          
   RDEP   =    1.954    radius for radial grids                                 
   QCUT   =   -4.360; QGAM   =    8.721    optimization parameters              
                                                                                
   Description                                                                  
     l     E      TYP  RCUT    TYP  RCUT                                        
     0   .000     23  1.900                                                     
     0   .000     23  1.900                                                     
     1   .000     23  1.900                                                     
     1   .000     23  1.900                                                     
     2   .000     23  1.900                                                     
  local pseudopotential read in
  partial core-charges read in
  atomic valenz-charges read in
  non local Contribution for L=           0  read in
    real space projection operators read in
  non local Contribution for L=           0  read in
    real space projection operators read in
  non local Contribution for L=           1  read in
    real space projection operators read in
  non local Contribution for L=           1  read in
    real space projection operators read in
    PAW grid and wavefunctions read in

   number of l-projection  operators is LMAX  =           4
   number of lm-projection operators is LMMAX =           8

 Optimization of the real space projectors (new method)

 maximal supplied QI-value         = 15.12
 optimisation between [QCUT,QGAM] = [ 11.64, 23.28] = [ 37.95,151.78] Ry 
 Optimized for a Real-space Cutoff    1.49 Angstroem

   l    n(q)    QCUT    max X(q) W(low)/X(q) W(high)/X(q)  e(spline) 
   2      9    11.641     4.777    0.25E-04    0.21E-05    0.63E-07
   2      9    11.641    31.132    0.13E-03    0.22E-03    0.64E-06
   0     10    11.641    20.416    0.11E-04    0.74E-05    0.19E-07
   0     10    11.641    45.408    0.10E-03    0.85E-04    0.30E-06
   1     10    11.641     7.848    0.22E-04    0.23E-04    0.56E-07
   1     10    11.641     9.895    0.85E-04    0.54E-04    0.16E-06
 Optimization of the real space projectors (new method)

 maximal supplied QI-value         = 19.84
 optimisation between [QCUT,QGAM] = [ 11.51, 23.22] = [ 37.09,150.92] Ry 
 Optimized for a Real-space Cutoff    1.21 Angstroem

   l    n(q)    QCUT    max X(q) W(low)/X(q) W(high)/X(q)  e(spline) 
   0      8    11.508     8.708    0.18E-04    0.44E-05    0.47E-08
   0      8    11.508   106.241    0.70E-04    0.15E-03    0.51E-07
   1      8    11.508     5.901    0.63E-05    0.23E-04    0.21E-07
   1      8    11.508    73.241    0.15E-03    0.36E-04    0.79E-07
 Optimization of the real space projectors (new method)

 maximal supplied QI-value         = 19.84
 optimisation between [QCUT,QGAM] = [ 11.51, 23.22] = [ 37.09,150.92] Ry 
 Optimized for a Real-space Cutoff    1.21 Angstroem

   l    n(q)    QCUT    max X(q) W(low)/X(q) W(high)/X(q)  e(spline) 
   0      8    11.508     5.487    0.18E-04    0.22E-05    0.47E-08
   0      8    11.508    85.627    0.96E-04    0.18E-03    0.54E-07
   1      8    11.508     3.530    0.17E-04    0.28E-04    0.21E-07
   1      8    11.508    42.714    0.18E-03    0.63E-04    0.92E-07

 ----------------------------------------------------------------------------- 
|                                                                             |
|  ADVICE TO THIS USER RUNNING 'VASP/VAMP'   (HEAR YOUR MASTER'S VOICE ...):  |
|                                                                             |
|      You enforced a specific xc-type in the INCAR file,                     |
|      a different type was found on the POTCAR file                          |
|          I HOPE YOU KNOW, WHAT YOU ARE  DOING                               |
|                                                                             |
 ----------------------------------------------------------------------------- 

 PAW_PBE Cr 06Sep2000                   :
 energy of atom  1       EATOM= -276.9744
 kinetic energy error for atom=    0.0010 (will be added to EATOM!!)
 PAW_PBE Si 05Jan2001                   :
 energy of atom  2       EATOM= -103.0669
 kinetic energy error for atom=    0.0005 (will be added to EATOM!!)
  PAW_PBE S 17Jan2003                   :
 energy of atom  3       EATOM= -276.8230
 kinetic energy error for atom=    0.0016 (will be added to EATOM!!)


 POSCAR: Cr2 Si2 S6                              
  positions in direct lattice
  velocities in cartesian coordinates
  No initial velocities read in
 exchange correlation table for  LEXCH =       42
   RHO(1)=    0.500       N(1)  =     2000
   RHO(2)=  100.500       N(2)  =     4000



--------------------------------------------------------------------------------------------------------


 ion  position               nearest neighbor table
   1  0.333  0.333  0.500-   6 2.78   5 2.78   7 2.78   8 2.78  10 2.78   9 2.78
   2  0.667  0.667  0.500-   9 2.78   8 2.78  10 2.78   5 2.78   7 2.78   6 2.78
   3  0.000  0.000  0.448-   4 2.43   8 2.63  10 2.63   9 2.63
   4  0.000  0.000  0.552-   3 2.43   5 2.63   7 2.63   6 2.63
   5  0.626  0.000  0.574-   4 2.63   1 2.78   2 2.78
   6  0.000  0.373  0.574-   4 2.63   1 2.78   2 2.78
   7  0.373  0.626  0.574-   4 2.63   1 2.78   2 2.78
   8  0.374  1.000  0.426-   3 2.63   2 2.78   1 2.78
   9  1.000  0.627  0.426-   3 2.63   2 2.78   1 2.78
  10  0.627  0.374  0.426-   3 2.63   2 2.78   1 2.78

  LATTYP: Found a hexagonal cell.
 ALAT       =     6.9077769333
 C/A-ratio  =     3.3939410937
  
  Lattice vectors:
  
 A1 = (   3.4538890000,  -5.9823100000,   0.0000000000)
 A2 = (  -6.9077770000,   0.0000000000,   0.0000000000)
 A3 = (   0.0000000000,   0.0000000000, -23.4445880000)


Analysis of symmetry for initial positions (statically):
=====================================================================
 Subroutine PRICEL returns:
 Original cell was already a primitive cell.
 

 Routine SETGRP: Setting up the symmetry group for a 
 hexagonal supercell.


 Subroutine GETGRP returns: Found  6 space group operations
 (whereof  6 operations were pure point group operations)
 out of a pool of 24 trial point group operations.


The static configuration has the point symmetry S_6 .


Analysis of symmetry for dynamics (positions and initial velocities):
=====================================================================
 Subroutine PRICEL returns:
 Original cell was already a primitive cell.
 

 Routine SETGRP: Setting up the symmetry group for a 
 hexagonal supercell.


 Subroutine GETGRP returns: Found  6 space group operations
 (whereof  6 operations were pure point group operations)
 out of a pool of 24 trial point group operations.


The dynamic configuration has the point symmetry S_6 .


Analysis of constrained symmetry for selective dynamics:
=====================================================================
 Subroutine PRICEL returns:
 Original cell was already a primitive cell.
 

 Routine SETGRP: Setting up the symmetry group for a 
 hexagonal supercell.


 Subroutine GETGRP returns: Found  6 space group operations
 (whereof  6 operations were pure point group operations)
 out of a pool of 24 trial point group operations.


The constrained configuration has the point symmetry S_6 .


Analysis of structural, dynamic, and magnetic symmetry:
=====================================================================
 Subroutine PRICEL returns:
 Original cell was already a primitive cell.
 

 Routine SETGRP: Setting up the symmetry group for a 
 hexagonal supercell.


 Subroutine GETGRP returns: Found  6 space group operations
 (whereof  6 operations were pure point group operations)
 out of a pool of 24 trial point group operations.


The magnetic configuration has the point symmetry S_6 .


 Subroutine INISYM returns: Found  6 space group operations
 (whereof  6 operations are pure point group operations),
 and found     1 'primitive' translations



 KPOINTS: Kpoints from vasprun.xml                

Automatic generation of k-mesh.
Space group operators:
 irot       det(A)        alpha          n_x          n_y          n_z        tau_x        tau_y        tau_z
    1     1.000000     0.000000     1.000000     0.000000     0.000000     0.000000     0.000000     0.000000
    2    -1.000000     0.000000     1.000000     0.000000     0.000000     0.000000     0.000000     0.000000
    3     1.000000   120.000000     0.000000     0.000000     1.000000     0.000000     0.000000     0.000000
    4    -1.000000   120.000000     0.000000     0.000000     1.000000     0.000000     0.000000     0.000000
    5     1.000000   120.000000     0.000000     0.000000    -1.000000     0.000000     0.000000     0.000000
    6    -1.000000   120.000000     0.000000     0.000000    -1.000000     0.000000     0.000000     0.000000
 
 Subroutine IBZKPT returns following result:
 ===========================================
 
 Found      5 irreducible k-points:
 
 Following reciprocal coordinates:
            Coordinates               Weight
  0.000000  0.000000  0.000000      1.000000
  0.200000  0.000000  0.000000      6.000000
  0.400000  0.000000  0.000000      6.000000
  0.400000  0.200000  0.000000      6.000000
 -0.400000  0.200000  0.000000      6.000000
 
 Following cartesian coordinates:
            Coordinates               Weight
  0.000000  0.000000  0.000000      1.000000
  0.028953 -0.016716  0.000000      6.000000
  0.057906 -0.033432  0.000000      6.000000
  0.057906  0.000000  0.000000      6.000000
 -0.057906  0.066864  0.000000      6.000000
 
 TETIRR: Found     15 inequivalent tetrahedra from      150


--------------------------------------------------------------------------------------------------------




 Dimension of arrays:
   k-points           NKPTS =      5   k-points in BZ     NKDIM =      5   number of bands    NBANDS=     40
   number of dos      NEDOS =    301   number of ions     NIONS =     10
   non local maximal  LDIM  =      6   non local SUM 2l+1 LMDIM =     18
   total plane-waves  NPLWV = 524880
   max r-space proj   IRMAX =   7543   max aug-charges    IRDMAX=  27873
   dimension x,y,z NGX =    54 NGY =   54 NGZ =  180
   dimension x,y,z NGXF=   108 NGYF=  108 NGZF=  360
   support grid    NGXF=   108 NGYF=  108 NGZF=  360
   ions per type =               2   2   6
   NGX,Y,Z   is equivalent  to a cutoff of  13.00, 13.00, 12.76 a.u.
   NGXF,Y,Z  is equivalent  to a cutoff of  25.99, 25.99, 25.53 a.u.

 SYSTEM =  unknown system                          
 POSCAR =  Cr2 Si2 S6                              

 Startparameter for this run:
   NWRITE =      2    write-flag & timer
   PREC   = accura    normal or accurate (medium, high low for compatibility)
   ISTART =      0    job   : 0-new  1-cont  2-samecut
   ICHARG =      2    charge: 1-file 2-atom 10-const
   ISPIN  =      2    spin polarized calculation?
   LNONCOLLINEAR =      F non collinear calculations
   LSORBIT =      F    spin-orbit coupling
   INIWAV =      1    electr: 0-lowe 1-rand  2-diag
   LASPH  =      F    aspherical Exc in radial PAW
   METAGGA=      F    non-selfconsistent MetaGGA calc.

 Electronic Relaxation 1
   ENCUT  =  520.0 eV  38.22 Ry    6.18 a.u.  12.84 12.84 43.59*2*pi/ulx,y,z
   ENINI  =  520.0     initial cutoff
   ENAUG  =  402.1 eV  augmentation charge cutoff
   NELM   =    400;   NELMIN=  2; NELMDL=  0     # of ELM steps 
   EDIFF  = 0.1E-03   stopping-criterion for ELM
   LREAL  =      T    real-space projection
   NLSPLINE    = F    spline interpolate recip. space projectors
   LCOMPAT=      F    compatible to vasp.4.4
   GGA_COMPAT  = T    GGA compatible to vasp.4.4-vasp.4.6
   LMAXPAW     = -100 max onsite density
   LMAXMIX     =    2 max onsite mixed and CHGCAR
   VOSKOWN=      0    Vosko Wilk Nusair interpolation
   ROPT   =   -0.00025  -0.00025  -0.00025
 Ionic relaxation
   EDIFFG = 0.1E-02   stopping-criterion for IOM
   NSW    =     99    number of steps for IOM
   NBLOCK =      1;   KBLOCK =     99    inner block; outer block 
   IBRION =      2    ionic relax: 0-MD 1-quasi-New 2-CG
   NFREE  =      1    steps in history (QN), initial steepest desc. (CG)
   ISIF   =      3    stress and relaxation
   IWAVPR =     11    prediction:  0-non 1-charg 2-wave 3-comb
   ISYM   =      2    0-nonsym 1-usesym 2-fastsym
   LCORR  =      T    Harris-Foulkes like correction to forces

   POTIM  = 0.5000    time-step for ionic-motion
   TEIN   =    0.0    initial temperature
   TEBEG  =    0.0;   TEEND  =   0.0 temperature during run
   SMASS  =  -3.00    Nose mass-parameter (am)
   estimated Nose-frequenzy (Omega)   =  0.10E-29 period in steps =****** mass=  -0.109E-26a.u.
   SCALEE = 1.0000    scale energy and forces
   NPACO  =    256;   APACO  = 16.0  distance and # of slots for P.C.
   PSTRESS=    0.0 pullay stress

  Mass of Ions in am
   POMASS =  52.00 28.09 32.07
  Ionic Valenz
   ZVAL   =   6.00  4.00  6.00
  Atomic Wigner-Seitz radii
   RWIGS  =  -1.00 -1.00 -1.00
  virtual crystal weights 
   VCA    =   1.00  1.00  1.00
   NELECT =      56.0000    total number of electrons
   NUPDOWN=      -1.0000    fix difference up-down

 DOS related values:
   EMIN   =  10.00;   EMAX   =-10.00  energy-range for DOS
   EFERMI =   0.00
   ISMEAR =    -5;   SIGMA  =   0.05  broadening in eV -4-tet -1-fermi 0-gaus

 Electronic relaxation 2 (details)
   IALGO  =     38    algorithm
   LDIAG  =      T    sub-space diagonalisation (order eigenvalues)
   LSUBROT=      F    optimize rotation matrix (better conditioning)
   TURBO    =      0    0=normal 1=particle mesh
   IRESTART =      0    0=no restart 2=restart with 2 vectors
   NREBOOT  =      0    no. of reboots
   NMIN     =      0    reboot dimension
   EREF     =   0.00    reference energy to select bands
   IMIX   =      4    mixing-type and parameters
     AMIX     =   0.40;   BMIX     =  1.00
     AMIX_MAG =   1.60;   BMIX_MAG =  1.00
     AMIN     =   0.01
     WC   =   100.;   INIMIX=   1;  MIXPRE=   1;  MAXMIX= -45

 Intra band minimization:
   WEIMIN = 0.0010     energy-eigenvalue tresh-hold
   EBREAK =  0.63E-06  absolut break condition
   DEPER  =   0.30     relativ break condition  

   TIME   =   0.40     timestep for ELM

  volume/ion in A,a.u.               =      96.88       653.80
  Fermi-wavevector in a.u.,A,eV,Ry     =   0.632976  1.196152  5.451299  0.400659
  Thomas-Fermi vector in A             =   1.696476

 Write flags
   LWAVE        =      F    write WAVECAR
   LDOWNSAMPLE  =      F    k-point downsampling of WAVECAR
   LCHARG       =      T    write CHGCAR
   LVTOT        =      F    write LOCPOT, total local potential
   LVHAR        =      F    write LOCPOT, Hartree potential only
   LELF         =      F    write electronic localiz. function (ELF)
   LORBIT       =     11    0 simple, 1 ext, 2 COOP (PROOUT), +10 PAW based schemes


 Dipole corrections
   LMONO  =      F    monopole corrections only (constant potential shift)
   LDIPOL =      F    correct potential (dipole corrections)
   IDIPOL =      0    1-x, 2-y, 3-z, 4-all directions 
   EPSILON=  1.0000000 bulk dielectric constant

 Exchange correlation treatment:
   GGA     =    BO    GGA type
   LEXCH   =    42    internal setting for exchange type
   VOSKOWN=      0    Vosko Wilk Nusair interpolation
   LHFCALC =     F    Hartree Fock is set to
   LHFONE  =     F    Hartree Fock one center treatment
   AEXX    =    0.0000 exact exchange contribution

 vdW DFT:
   LUSE_VDW   =     T    switch on vdW DFT
   Zab_VDW    =-.8491    correlation parameter
   PARAM1     =0.1833
   PARAM2     =0.2200
   PARAM3     =0.0000
   -- rVV10 --
   BPARAM     = 6.3000
   CPARAM     = 0.0093

 Linear response parameters
   LEPSILON=     F    determine dielectric tensor
   LRPA    =     F    only Hartree local field effects (RPA)
   LNABLA  =     F    use nabla operator in PAW spheres
   LVEL    =     F    velocity operator in full k-point grid
   LINTERFAST=   F  fast interpolation
   KINTER  =     0    interpolate to denser k-point grid
   CSHIFT  =0.1000    complex shift for real part using Kramers Kronig
   OMEGAMAX=  -1.0    maximum frequency
   DEG_THRESHOLD= 0.2000000E-02 threshold for treating states as degnerate
   RTIME   =   -0.100 relaxation time in fs
  (WPLASMAI=    0.000 imaginary part of plasma frequency in eV, 0.658/RTIME)
   DFIELD  = 0.0000000 0.0000000 0.0000000 field for delta impulse in time

 Orbital magnetization related:
   ORBITALMAG=     F  switch on orbital magnetization
   LCHIMAG   =     F  perturbation theory with respect to B field
   DQ        =  0.001000  dq finite difference perturbation B field
   LLRAUG    =     F  two centre corrections for induced B field



--------------------------------------------------------------------------------------------------------


 conjugate gradient relaxation of ions
   using selective dynamics as specified on POSCAR
 charge density and potential will be updated during run
 spin polarized calculation
 Variant of blocked Davidson
 Davidson routine will perform the subspace rotation
 perform sub-space diagonalisation
    after iterative eigenvector-optimisation
 modified Broyden-mixing scheme, WC =      100.0
 initial mixing is a Kerker type mixing with AMIX =  0.4000 and BMIX =      1.0000
 Hartree-type preconditioning will be used
 using additional bands           12
 real space projection scheme for non local part
 use partial core corrections
 calculate Harris-corrections to forces   (improved forces if not selfconsistent)
 use gradient corrections 
 use of overlap-Matrix (Vanderbilt PP)
 Fermi weights with tetrahedron method with Bloechl corrections


--------------------------------------------------------------------------------------------------------


  energy-cutoff  :      520.00
  volume of cell :      968.84
      direct lattice vectors                 reciprocal lattice vectors
     6.907777000 -0.000000000  0.000000000     0.144764372 -0.083579742  0.000000000
     3.453888000  5.982310000  0.000000000     0.000000000  0.167159509 -0.000000000
     0.000000000  0.000000000 23.444588000    -0.000000000  0.000000000  0.042653767

  length of vectors
     6.907777000  6.907776433 23.444588000     0.167159495  0.167159509  0.042653767



 k-points in units of 2pi/SCALE and weight: Kpoints from vasprun.xml                
   0.00000000  0.00000000  0.00000000       0.040
   0.02895287 -0.01671595  0.00000000       0.240
   0.05790575 -0.03343190  0.00000000       0.240
   0.05790575  0.00000000  0.00000000       0.240
  -0.05790575  0.06686380  0.00000000       0.240

 k-points in reciprocal lattice and weights: Kpoints from vasprun.xml                
   0.00000000  0.00000000  0.00000000       0.040
   0.20000000  0.00000000  0.00000000       0.240
   0.40000000  0.00000000  0.00000000       0.240
   0.40000000  0.20000000  0.00000000       0.240
  -0.40000000  0.20000000  0.00000000       0.240

 position of ions in fractional coordinates (direct lattice) 
   0.33333300  0.33333300  0.49992500
   0.66666700  0.66666700  0.50007500
   0.00000000  0.00000000  0.44821600
   0.00000000  0.00000000  0.55178400
   0.62635700  0.00042000  0.57375200
   0.00042000  0.37322400  0.57375200
   0.37322400  0.62635700  0.57375200
   0.37364300  0.99958000  0.42624800
   0.99958000  0.62677600  0.42624800
   0.62677600  0.37364300  0.42624800

 position of ions in cartesian coordinates  (Angst):
   3.45388488  1.99410134 11.72053566
   6.90778012  3.98820866 11.72405234
   0.00000000  0.00000000 10.50823946
   0.00000000  0.00000000 12.93634854
   4.32818511  0.00251257 13.45137925
   1.29197516  2.23274167 13.45137925
   4.74151509  3.74706174 13.45137925
   6.03347989  5.97979743  9.99320875
   9.06968984  3.74956833  9.99320875
   5.62014991  2.23524826  9.99320875



--------------------------------------------------------------------------------------------------------


 k-point  1 :   0.0000 0.0000 0.0000  plane waves:   26073
 k-point  2 :   0.2000 0.0000 0.0000  plane waves:   26070
 k-point  3 :   0.4000 0.0000 0.0000  plane waves:   26086
 k-point  4 :   0.4000 0.2000 0.0000  plane waves:   26085
 k-point  5 :  -0.4000 0.2000 0.0000  plane waves:   26115

 maximum and minimum number of plane-waves per node :     26115    26070

 maximum number of plane-waves:     26115
 maximum index in each direction: 
   IXMAX=   13   IYMAX=   12   IZMAX=   43
   IXMIN=  -13   IYMIN=  -13   IZMIN=  -43


 serial   3D FFT for wavefunctions
 parallel 3D FFT for charge:
    minimum data exchange during FFTs selected (reduces bandwidth)


 total amount of memory used by VASP MPI-rank0   167545. kBytes
=======================================================================

   base      :      30000. kBytes
   nonlr-proj:       5770. kBytes
   fftplans  :      20284. kBytes
   grid      :      90201. kBytes
   one-center:        311. kBytes
   wavefun   :      20979. kBytes

     INWAV:  cpu time    0.0000: real time    0.0000
 Broyden mixing: mesh for mixing (old mesh)
   NGX = 25   NGY = 25   NGZ = 87
  (NGX  =108   NGY  =108   NGZ  =360)
  gives a total of  54375 points

 initial charge density was supplied:
 charge density of overlapping atoms calculated
 number of electron      56.0000000 magnetization       6.0000000
 keeping initial charge density in first step


--------------------------------------------------------------------------------------------------------


 Maximum index for non-local projection operator         7247
 Maximum index for augmentation-charges         3407 (set IRDMAX)


--------------------------------------------------------------------------------------------------------


 First call to EWALD:  gamma=   0.179
 Maximum number of real-space cells 4x 4x 1
 Maximum number of reciprocal cells 2x 2x 6

    FEWALD:  cpu time    0.0000: real time    0.0010


--------------------------------------- Iteration      1(   1)  ---------------------------------------


vdW kernel read from vdw_kernel.bindat
  0.0000  0.2424  0.5071  0.7962  1.1119  1.4567  1.8333  2.2446  2.6937  3.1842
  3.7199  4.3049  4.9438  5.6415  6.4036  7.2358  8.1446  9.1372 10.2212 11.4050
 12.6979 14.1099 15.6519 17.3360 19.1751 21.1837 23.3773 25.7729 28.3892 31.2465
 34.3669 37.7748 41.4965 45.5611 50.0000

    POTLOK:  cpu time   68.8880: real time   68.9720
    SETDIJ:  cpu time    0.0400: real time    0.0401
     EDDAV:  cpu time   16.7120: real time   16.7618
 BZINTS: Fermi energy:  6.169245; 56.000000 electrons
         Band energy:  14.802370;  BLOECHL correction: -0.061845
       DOS:  cpu time    0.0040: real time    0.0021
    --------------------------------------------
      LOOP:  cpu time   85.6440: real time   85.7761

 eigenvalue-minimisations  :   800
 total energy-change (2. order) : 0.4284706E+03  (-0.1592979E+04)
 number of electron      56.0000000 magnetization       6.0000000
 augmentation part       56.0000000 magnetization       6.0000000

 Free energy of the ion-electron system (eV)
  ---------------------------------------------------
  alpha Z        PSCENC =        17.65701165
  Ewald energy   TEWEN  =      5985.89955237
  -Hartree energ DENC   =     -8127.15706175
  -exchange      EXHF   =         0.00000000
  -V(xc)+E(xc)   XCENC  =         6.44839614
  PAW double counting   =      1113.46001277    -1012.73452612
  entropy T*S    EENTRO =         0.00000000
  eigenvalues    EBANDS =        14.80236960
  atomic energy  EATOM  =      2430.09487864
  Solvation  Ediel_sol  =         0.00000000
  ---------------------------------------------------
  free energy    TOTEN  =       428.47063330 eV

  energy without entropy =      428.47063330  energy(sigma->0) =      428.47063330


--------------------------------------------------------------------------------------------------------




--------------------------------------- Iteration      1(   2)  ---------------------------------------


     EDDAV:  cpu time   20.7320: real time   20.7649
 BZINTS: Fermi energy: -0.301627; 56.000000 electrons
         Band energy:-365.555644;  BLOECHL correction: -0.081393
       DOS:  cpu time    0.0000: real time    0.0024
    --------------------------------------------
      LOOP:  cpu time   20.7320: real time   20.7673

 eigenvalue-minimisations  :  1064
 total energy-change (2. order) :-0.3803580E+03  (-0.3643386E+03)
 number of electron      56.0000000 magnetization       6.0000000
 augmentation part       56.0000000 magnetization       6.0000000

 Free energy of the ion-electron system (eV)
  ---------------------------------------------------
  alpha Z        PSCENC =        17.65701165
  Ewald energy   TEWEN  =      5985.89955237
  -Hartree energ DENC   =     -8127.15706175
  -exchange      EXHF   =         0.00000000
  -V(xc)+E(xc)   XCENC  =         6.44839614
  PAW double counting   =      1113.46001277    -1012.73452612
  entropy T*S    EENTRO =         0.00000000
  eigenvalues    EBANDS =      -365.55564388
  atomic energy  EATOM  =      2430.09487864
  Solvation  Ediel_sol  =         0.00000000
  ---------------------------------------------------
  free energy    TOTEN  =        48.11261982 eV

  energy without entropy =       48.11261982  energy(sigma->0) =       48.11261982


--------------------------------------------------------------------------------------------------------




--------------------------------------- Iteration      1(   3)  ---------------------------------------


     EDDAV:  cpu time   26.9240: real time   26.9461
 BZINTS: Fermi energy: -2.177557; 56.000000 electrons
         Band energy:-464.064221;  BLOECHL correction: -0.020570
       DOS:  cpu time    0.0040: real time    0.0044
    --------------------------------------------
      LOOP:  cpu time   26.9280: real time   26.9506

 eigenvalue-minimisations  :  1184
 total energy-change (2. order) :-0.9850858E+02  (-0.9534127E+02)
 number of electron      56.0000000 magnetization       6.0000000
 augmentation part       56.0000000 magnetization       6.0000000

 Free energy of the ion-electron system (eV)
  ---------------------------------------------------
  alpha Z        PSCENC =        17.65701165
  Ewald energy   TEWEN  =      5985.89955237
  -Hartree energ DENC   =     -8127.15706175
  -exchange      EXHF   =         0.00000000
  -V(xc)+E(xc)   XCENC  =         6.44839614
  PAW double counting   =      1113.46001277    -1012.73452612
  entropy T*S    EENTRO =         0.00000000
  eigenvalues    EBANDS =      -464.06422097
  atomic energy  EATOM  =      2430.09487864
  Solvation  Ediel_sol  =         0.00000000
  ---------------------------------------------------
  free energy    TOTEN  =       -50.39595727 eV

  energy without entropy =      -50.39595727  energy(sigma->0) =      -50.39595727


--------------------------------------------------------------------------------------------------------




--------------------------------------- Iteration      1(   4)  ---------------------------------------


     EDDAV:  cpu time   28.4440: real time   29.1366
 BZINTS: Fermi energy: -2.299590; 56.000000 electrons
         Band energy:-472.244313;  BLOECHL correction:  0.000000
       DOS:  cpu time    0.0040: real time    0.0010
    --------------------------------------------
      LOOP:  cpu time   28.4480: real time   29.1375

 eigenvalue-minimisations  :  1136
 total energy-change (2. order) :-0.8180092E+01  (-0.7656042E+01)
 number of electron      56.0000000 magnetization       6.0000000
 augmentation part       56.0000000 magnetization       6.0000000

 Free energy of the ion-electron system (eV)
  ---------------------------------------------------
  alpha Z        PSCENC =        17.65701165
  Ewald energy   TEWEN  =      5985.89955237
  -Hartree energ DENC   =     -8127.15706175
  -exchange      EXHF   =         0.00000000
  -V(xc)+E(xc)   XCENC  =         6.44839614
  PAW double counting   =      1113.46001277    -1012.73452612
  entropy T*S    EENTRO =         0.00000000
  eigenvalues    EBANDS =      -472.24431321
  atomic energy  EATOM  =      2430.09487864
  Solvation  Ediel_sol  =         0.00000000
  ---------------------------------------------------
  free energy    TOTEN  =       -58.57604952 eV

  energy without entropy =      -58.57604952  energy(sigma->0) =      -58.57604952


--------------------------------------------------------------------------------------------------------




--------------------------------------- Iteration      1(   5)  ---------------------------------------


     EDDAV:  cpu time   26.6760: real time   28.3980
 BZINTS: Fermi energy: -2.300477; 56.000000 electrons
         Band energy:-472.675741;  BLOECHL correction:  0.000000
       DOS:  cpu time    0.0040: real time    0.0013
    CHARGE:  cpu time    2.1440: real time    2.1649
    MIXING:  cpu time    0.0560: real time    0.0582
    --------------------------------------------
      LOOP:  cpu time   28.8840: real time   30.6223

 eigenvalue-minimisations  :  1216
 total energy-change (2. order) :-0.4314282E+00  (-0.4197488E+00)
 number of electron      55.9999998 magnetization       5.5711250
 augmentation part       -4.4555761 magnetization       4.9167032

 Broyden mixing:
  rms(total) = 0.27922E+01    rms(broyden)= 0.27922E+01
  rms(prec ) = 0.31456E+01
  weight for this iteration     100.00

 Free energy of the ion-electron system (eV)
  ---------------------------------------------------
  alpha Z        PSCENC =        17.65701165
  Ewald energy   TEWEN  =      5985.89955237
  -Hartree energ DENC   =     -8127.15706175
  -exchange      EXHF   =         0.00000000
  -V(xc)+E(xc)   XCENC  =         6.44839614
  PAW double counting   =      1113.46001277    -1012.73452612
  entropy T*S    EENTRO =         0.00000000
  eigenvalues    EBANDS =      -472.67574136
  atomic energy  EATOM  =      2430.09487864
  Solvation  Ediel_sol  =         0.00000000
  ---------------------------------------------------
  free energy    TOTEN  =       -59.00747767 eV

  energy without entropy =      -59.00747767  energy(sigma->0) =      -59.00747767


--------------------------------------------------------------------------------------------------------




--------------------------------------- Iteration      1(   6)  ---------------------------------------


    POTLOK:  cpu time  112.2800: real time  113.4427
    SETDIJ:  cpu time    0.0880: real time    0.0879
     EDDAV:  cpu time   43.9040: real time   44.7976
 BZINTS: Fermi energy: -5.033155; 56.000000 electrons
         Band energy:-619.306093;  BLOECHL correction: -0.038501
       DOS:  cpu time    0.0040: real time    0.0053
    CHARGE:  cpu time    3.1400: real time    3.1959
    MIXING:  cpu time    0.0720: real time    0.0719
    --------------------------------------------
      LOOP:  cpu time  159.4840: real time  161.6014

 eigenvalue-minimisations  :  1096
 total energy-change (2. order) :-0.9369476E+02  (-0.6457763E+02)
 number of electron      55.9999994 magnetization       5.4413558
 augmentation part       10.1614972 magnetization       3.9355535

 Broyden mixing:
  rms(total) = 0.65348E+01    rms(broyden)= 0.65348E+01
  rms(prec ) = 0.73701E+01
  weight for this iteration     100.00

 eigenvalues of (default mixing * dielectric matrix)
  average eigenvalue GAMMA=   0.3001
  0.3001

 Free energy of the ion-electron system (eV)
  ---------------------------------------------------
  alpha Z        PSCENC =        17.65701165
  Ewald energy   TEWEN  =      5985.89955237
  -Hartree energ DENC   =     -8085.13286597
  -exchange      EXHF   =         0.00000000
  -V(xc)+E(xc)   XCENC  =         6.96439584
  PAW double counting   =      1032.65424338     -921.53336103
  entropy T*S    EENTRO =         0.00000000
  eigenvalues    EBANDS =      -619.30609290
  atomic energy  EATOM  =      2430.09487864
  Solvation  Ediel_sol  =         0.00000000
  ---------------------------------------------------
  free energy    TOTEN  =      -152.70223803 eV

  energy without entropy =     -152.70223803  energy(sigma->0) =     -152.70223803


--------------------------------------------------------------------------------------------------------




--------------------------------------- Iteration      1(   7)  ---------------------------------------


    POTLOK:  cpu time  107.1640: real time  110.5310
    SETDIJ:  cpu time    0.0520: real time    0.0559
     EDDAV:  cpu time   26.2520: real time   26.4067
 BZINTS: Fermi energy: -4.435730; 56.000000 electrons
         Band energy:-538.568569;  BLOECHL correction: -0.050978
       DOS:  cpu time    0.0040: real time    0.0048
    CHARGE:  cpu time    1.9680: real time    1.9696
    MIXING:  cpu time    0.0520: real time    0.0536
    --------------------------------------------
      LOOP:  cpu time  135.4920: real time  139.0214

 eigenvalue-minimisations  :  1112
 total energy-change (2. order) : 0.3602362E+02  (-0.8412314E+02)
 number of electron      55.9999997 magnetization       5.4282091
 augmentation part        0.1084724 magnetization       3.8348095

 Broyden mixing:
  rms(total) = 0.24707E+01    rms(broyden)= 0.24607E+01
  rms(prec ) = 0.25065E+01
  weight for this iteration     100.00

 eigenvalues of (default mixing * dielectric matrix)
  average eigenvalue GAMMA=   0.2623
  0.2623  0.2623

 Free energy of the ion-electron system (eV)
  ---------------------------------------------------
  alpha Z        PSCENC =        17.65701165
  Ewald energy   TEWEN  =      5985.89955237
  -Hartree energ DENC   =     -8118.59911792
  -exchange      EXHF   =         0.00000000
  -V(xc)+E(xc)   XCENC  =         6.12766077
  PAW double counting   =      1102.16322404    -1001.45326303
  entropy T*S    EENTRO =         0.00000000
  eigenvalues    EBANDS =      -538.56856901
  atomic energy  EATOM  =      2430.09487864
  Solvation  Ediel_sol  =         0.00000000
  ---------------------------------------------------
  free energy    TOTEN  =      -116.67862251 eV

  energy without entropy =     -116.67862251  energy(sigma->0) =     -116.67862251


--------------------------------------------------------------------------------------------------------




--------------------------------------- Iteration      1(   8)  ---------------------------------------


    POTLOK:  cpu time  103.4080: real time  103.9373
    SETDIJ:  cpu time    0.0600: real time    0.0588
     EDDAV:  cpu time   23.1000: real time   23.1987
 BZINTS: Fermi energy: -4.043225; 56.031536 electrons
         Band energy:-474.170691;  BLOECHL correction: -0.028275
       DOS:  cpu time    0.0040: real time    0.0057
    CHARGE:  cpu time    1.9440: real time    1.9423
    MIXING:  cpu time    0.0480: real time    0.0624
    --------------------------------------------
      LOOP:  cpu time  128.5640: real time  129.2052

 eigenvalue-minimisations  :   968
 total energy-change (2. order) : 0.7166394E+02  (-0.1067855E+03)
 number of electron      56.0315352 magnetization       5.4573251
 augmentation part        0.3657330 magnetization       2.9864929

 Broyden mixing:
  rms(total) = 0.14470E+01    rms(broyden)= 0.14362E+01
  rms(prec ) = 0.14665E+01
  weight for this iteration     100.00

 eigenvalues of (default mixing * dielectric matrix)
  average eigenvalue GAMMA=   0.2643
  0.2693  0.2693  0.2544

 Free energy of the ion-electron system (eV)
  ---------------------------------------------------
  alpha Z        PSCENC =        17.65701165
  Ewald energy   TEWEN  =      5985.89955237
  -Hartree energ DENC   =     -8112.48750426
  -exchange      EXHF   =         0.00000000
  -V(xc)+E(xc)   XCENC  =         6.92892064
  PAW double counting   =      1096.13653255     -995.07338478
  entropy T*S    EENTRO =         0.00000000
  eigenvalues    EBANDS =      -474.17069061
  atomic energy  EATOM  =      2430.09487864
  Solvation  Ediel_sol  =         0.00000000
  ---------------------------------------------------
  free energy    TOTEN  =       -45.01468379 eV

  energy without entropy =      -45.01468379  energy(sigma->0) =      -45.01468379


--------------------------------------------------------------------------------------------------------




--------------------------------------- Iteration      1(   9)  ---------------------------------------


    POTLOK:  cpu time  102.6400: real time  103.0616
    SETDIJ:  cpu time    0.0560: real time    0.0593
     EDDAV:  cpu time   26.1360: real time   26.4655
 BZINTS: Fermi energy: -4.577994; 56.000000 electrons
         Band energy:-472.391134;  BLOECHL correction:  0.000000
       DOS:  cpu time    0.0000: real time    0.0019
    CHARGE:  cpu time    1.9400: real time    1.9606
    MIXING:  cpu time    0.0600: real time    0.0609
    --------------------------------------------
      LOOP:  cpu time  130.8320: real time  131.6097

 eigenvalue-minimisations  :  1120
 total energy-change (2. order) :-0.2689914E+01  (-0.5583676E+00)
 number of electron      55.9999996 magnetization       5.4878102
 augmentation part       -0.0467478 magnetization       3.3842682

 Broyden mixing:
  rms(total) = 0.11847E+01    rms(broyden)= 0.11841E+01
  rms(prec ) = 0.11970E+01
  weight for this iteration     100.00

 eigenvalues of (default mixing * dielectric matrix)
  average eigenvalue GAMMA=   0.3695
  0.4628  0.4628  0.3326  0.2200

 Free energy of the ion-electron system (eV)
  ---------------------------------------------------
  alpha Z        PSCENC =        17.65701165
  Ewald energy   TEWEN  =      5985.89955237
  -Hartree energ DENC   =     -8116.54686777
  -exchange      EXHF   =         0.00000000
  -V(xc)+E(xc)   XCENC  =         6.58444655
  PAW double counting   =      1101.14090347    -1000.14338899
  entropy T*S    EENTRO =         0.00000000
  eigenvalues    EBANDS =      -472.39113353
  atomic energy  EATOM  =      2430.09487864
  Solvation  Ediel_sol  =         0.00000000
  ---------------------------------------------------
  free energy    TOTEN  =       -47.70459762 eV

  energy without entropy =      -47.70459762  energy(sigma->0) =      -47.70459762


--------------------------------------------------------------------------------------------------------




--------------------------------------- Iteration      1(  10)  ---------------------------------------


    POTLOK:  cpu time  103.9240: real time  104.9860
    SETDIJ:  cpu time    0.0480: real time    0.0490
     EDDAV:  cpu time   26.4560: real time   26.6713
 BZINTS: Fermi energy: -4.648375; 56.000000 electrons
         Band energy:-470.412424;  BLOECHL correction:  0.000000
       DOS:  cpu time    0.0000: real time    0.0021
    CHARGE:  cpu time    2.0120: real time    2.0349
    MIXING:  cpu time    0.0520: real time    0.0513
    --------------------------------------------
      LOOP:  cpu time  132.4920: real time  133.7946

 eigenvalue-minimisations  :  1144
 total energy-change (2. order) :-0.8114288E+00  (-0.2868268E+00)
 number of electron      55.9999996 magnetization       5.6370884
 augmentation part        0.0614223 magnetization       3.7544300

 Broyden mixing:
  rms(total) = 0.10133E+01    rms(broyden)= 0.10133E+01
  rms(prec ) = 0.10276E+01
  weight for this iteration     100.00

 eigenvalues of (default mixing * dielectric matrix)
  average eigenvalue GAMMA=   0.6150
  0.9832  0.9832  0.4393  0.4393  0.2303

 Free energy of the ion-electron system (eV)
  ---------------------------------------------------
  alpha Z        PSCENC =        17.65701165
  Ewald energy   TEWEN  =      5985.89955237
  -Hartree energ DENC   =     -8119.83988654
  -exchange      EXHF   =         0.00000000
  -V(xc)+E(xc)   XCENC  =         7.14374299
  PAW double counting   =      1102.87666767    -1001.93556931
  entropy T*S    EENTRO =         0.00000000
  eigenvalues    EBANDS =      -470.41242387
  atomic energy  EATOM  =      2430.09487864
  Solvation  Ediel_sol  =         0.00000000
  ---------------------------------------------------
  free energy    TOTEN  =       -48.51602642 eV

  energy without entropy =      -48.51602642  energy(sigma->0) =      -48.51602642


--------------------------------------------------------------------------------------------------------




--------------------------------------- Iteration      1(  11)  ---------------------------------------


    POTLOK:  cpu time  103.3000: real time  104.0697
    SETDIJ:  cpu time    0.0600: real time    0.0585
     EDDAV:  cpu time   27.9080: real time   28.0443
 BZINTS: Fermi energy: -4.602446; 56.000000 electrons
         Band energy:-487.529120;  BLOECHL correction: -0.120517
       DOS:  cpu time    0.0040: real time    0.0047
    CHARGE:  cpu time    2.0320: real time    2.0365
    MIXING:  cpu time    0.0640: real time    0.0636
    --------------------------------------------
      LOOP:  cpu time  133.3680: real time  134.2773

 eigenvalue-minimisations  :  1224
 total energy-change (2. order) :-0.2788142E+02  (-0.9782031E-01)
 number of electron      55.9999997 magnetization       5.6345155
 augmentation part       -0.0140815 magnetization       5.3636786

 Broyden mixing:
  rms(total) = 0.62512E+00    rms(broyden)= 0.62275E+00
  rms(prec ) = 0.67067E+00
  weight for this iteration     100.00

 eigenvalues of (default mixing * dielectric matrix)
  average eigenvalue GAMMA=   0.5372
  1.0100  1.0100  0.4366  0.4366  0.2306  0.0993

 Free energy of the ion-electron system (eV)
  ---------------------------------------------------
  alpha Z        PSCENC =        17.65701165
  Ewald energy   TEWEN  =      5985.89955237
  -Hartree energ DENC   =     -8133.15688814
  -exchange      EXHF   =         0.00000000
  -V(xc)+E(xc)   XCENC  =        10.34527565
  PAW double counting   =      1110.12951723    -1009.83767698
  entropy T*S    EENTRO =         0.00000000
  eigenvalues    EBANDS =      -487.52911958
  atomic energy  EATOM  =      2430.09487864
  Solvation  Ediel_sol  =         0.00000000
  ---------------------------------------------------
  free energy    TOTEN  =       -76.39744916 eV

  energy without entropy =      -76.39744916  energy(sigma->0) =      -76.39744916


--------------------------------------------------------------------------------------------------------




--------------------------------------- Iteration      1(  12)  ---------------------------------------


    POTLOK:  cpu time  103.0920: real time  104.1982
    SETDIJ:  cpu time    0.0680: real time    0.0668
     EDDAV:  cpu time   23.7600: real time   23.8630
 BZINTS: Fermi energy: -4.448890; 56.000000 electrons
         Band energy:-461.096631;  BLOECHL correction:  0.000000
       DOS:  cpu time    0.0040: real time    0.0020
    CHARGE:  cpu time    1.9400: real time    1.9564
    MIXING:  cpu time    0.0680: real time    0.0647
    --------------------------------------------
      LOOP:  cpu time  128.9320: real time  130.1512

 eigenvalue-minimisations  :   992
 total energy-change (2. order) : 0.2722649E+02  (-0.2730606E+02)
 number of electron      55.9999996 magnetization       5.7025299
 augmentation part        0.0567258 magnetization       4.4332042

 Broyden mixing:
  rms(total) = 0.43187E+00    rms(broyden)= 0.42968E+00
  rms(prec ) = 0.44407E+00
  weight for this iteration     100.00

 eigenvalues of (default mixing * dielectric matrix)
  average eigenvalue GAMMA=   0.6182
  1.2286  1.2286  0.5472  0.5472  0.4537  0.2296  0.0924

 Free energy of the ion-electron system (eV)
  ---------------------------------------------------
  alpha Z        PSCENC =        17.65701165
  Ewald energy   TEWEN  =      5985.89955237
  -Hartree energ DENC   =     -8132.50751733
  -exchange      EXHF   =         0.00000000
  -V(xc)+E(xc)   XCENC  =        10.56474557
  PAW double counting   =      1109.48213154    -1009.26513315
  entropy T*S    EENTRO =         0.00000000
  eigenvalues    EBANDS =      -461.09663137
  atomic energy  EATOM  =      2430.09487864
  Solvation  Ediel_sol  =         0.00000000
  ---------------------------------------------------
  free energy    TOTEN  =       -49.17096209 eV

  energy without entropy =      -49.17096209  energy(sigma->0) =      -49.17096209


--------------------------------------------------------------------------------------------------------




--------------------------------------- Iteration      1(  13)  ---------------------------------------


    POTLOK:  cpu time  104.2120: real time  104.9122
    SETDIJ:  cpu time    0.0560: real time    0.0587
     EDDAV:  cpu time   26.2240: real time   26.5486
 BZINTS: Fermi energy: -4.393102; 56.000000 electrons
         Band energy:-459.190123;  BLOECHL correction:  0.000000
       DOS:  cpu time    0.0040: real time    0.0018
    CHARGE:  cpu time    1.9920: real time    1.9956
    MIXING:  cpu time    0.0640: real time    0.0659
    --------------------------------------------
      LOOP:  cpu time  132.5520: real time  133.5829

 eigenvalue-minimisations  :  1136
 total energy-change (2. order) :-0.1613381E+00  (-0.3733698E-01)
 number of electron      55.9999996 magnetization       5.7453837
 augmentation part       -0.0709542 magnetization       4.5322724

 Broyden mixing:
  rms(total) = 0.32343E+00    rms(broyden)= 0.32332E+00
  rms(prec ) = 0.33267E+00
  weight for this iteration     100.00

 eigenvalues of (default mixing * dielectric matrix)
  average eigenvalue GAMMA=   0.6795
  1.2200  1.2200  0.8130  0.8130  0.5225  0.5225  0.2298  0.0951

 Free energy of the ion-electron system (eV)
  ---------------------------------------------------
  alpha Z        PSCENC =        17.65701165
  Ewald energy   TEWEN  =      5985.89955237
  -Hartree energ DENC   =     -8135.51068744
  -exchange      EXHF   =         0.00000000
  -V(xc)+E(xc)   XCENC  =        11.70807422
  PAW double counting   =      1110.02308330    -1010.01409026
  entropy T*S    EENTRO =         0.00000000
  eigenvalues    EBANDS =      -459.19012269
  atomic energy  EATOM  =      2430.09487864
  Solvation  Ediel_sol  =         0.00000000
  ---------------------------------------------------
  free energy    TOTEN  =       -49.33230022 eV

  energy without entropy =      -49.33230022  energy(sigma->0) =      -49.33230022


--------------------------------------------------------------------------------------------------------




--------------------------------------- Iteration      1(  14)  ---------------------------------------


    POTLOK:  cpu time  103.2320: real time  104.0042
    SETDIJ:  cpu time    0.0520: real time    0.0516
     EDDAV:  cpu time   24.2840: real time   24.4631
 BZINTS: Fermi energy: -4.445725; 56.000000 electrons
         Band energy:-459.746534;  BLOECHL correction:  0.000000
       DOS:  cpu time    0.0000: real time    0.0017
    CHARGE:  cpu time    1.9560: real time    1.9628
    MIXING:  cpu time    0.0680: real time    0.0667
    --------------------------------------------
      LOOP:  cpu time  129.5920: real time  130.5501

 eigenvalue-minimisations  :  1032
 total energy-change (2. order) : 0.1028105E+00  (-0.4963685E-01)
 number of electron      55.9999996 magnetization       5.7925188
 augmentation part       -0.1806002 magnetization       4.5071369

 Broyden mixing:
  rms(total) = 0.26195E+00    rms(broyden)= 0.26195E+00
  rms(prec ) = 0.26899E+00
  weight for this iteration     100.00

 eigenvalues of (default mixing * dielectric matrix)
  average eigenvalue GAMMA=   0.7668
  1.4096  1.4096  1.2692  0.6953  0.6953  0.5488  0.5488  0.2298  0.0951

 Free energy of the ion-electron system (eV)
  ---------------------------------------------------
  alpha Z        PSCENC =        17.65701165
  Ewald energy   TEWEN  =      5985.89955237
  -Hartree energ DENC   =     -8134.77089206
  -exchange      EXHF   =         0.00000000
  -V(xc)+E(xc)   XCENC  =        11.60316582
  PAW double counting   =      1108.74046175    -1008.70713374
  entropy T*S    EENTRO =         0.00000000
  eigenvalues    EBANDS =      -459.74653414
  atomic energy  EATOM  =      2430.09487864
  Solvation  Ediel_sol  =         0.00000000
  ---------------------------------------------------
  free energy    TOTEN  =       -49.22948971 eV

  energy without entropy =      -49.22948971  energy(sigma->0) =      -49.22948971


--------------------------------------------------------------------------------------------------------




--------------------------------------- Iteration      1(  15)  ---------------------------------------


    POTLOK:  cpu time  102.9320: real time  103.7347
    SETDIJ:  cpu time    0.0600: real time    0.0593
     EDDAV:  cpu time   25.2040: real time   25.3665
 BZINTS: Fermi energy: -4.498639; 56.000000 electrons
         Band energy:-462.079630;  BLOECHL correction:  0.000000
       DOS:  cpu time    0.0000: real time    0.0016
    CHARGE:  cpu time    2.0440: real time    2.0487
    MIXING:  cpu time    0.0560: real time    0.0568
    --------------------------------------------
      LOOP:  cpu time  130.2960: real time  131.2675

 eigenvalue-minimisations  :  1080
 total energy-change (2. order) : 0.4260511E-01  (-0.7883126E-02)
 number of electron      55.9999996 magnetization       5.8297588
 augmentation part       -0.2278539 magnetization       4.4811123

 Broyden mixing:
  rms(total) = 0.16412E+00    rms(broyden)= 0.16412E+00
  rms(prec ) = 0.16962E+00
  weight for this iteration     100.00

 eigenvalues of (default mixing * dielectric matrix)
  average eigenvalue GAMMA=   0.8621
  1.4120  1.4120  1.5157  1.5157  0.6900  0.6900  0.5303  0.5303  0.2298  0.0951

 Free energy of the ion-electron system (eV)
  ---------------------------------------------------
  alpha Z        PSCENC =        17.65701165
  Ewald energy   TEWEN  =      5985.89955237
  -Hartree energ DENC   =     -8131.95053877
  -exchange      EXHF   =         0.00000000
  -V(xc)+E(xc)   XCENC  =        10.96567196
  PAW double counting   =      1106.10803480    -1005.88186537
  entropy T*S    EENTRO =         0.00000000
  eigenvalues    EBANDS =      -462.07962987
  atomic energy  EATOM  =      2430.09487864
  Solvation  Ediel_sol  =         0.00000000
  ---------------------------------------------------
  free energy    TOTEN  =       -49.18688460 eV

  energy without entropy =      -49.18688460  energy(sigma->0) =      -49.18688460


--------------------------------------------------------------------------------------------------------




--------------------------------------- Iteration      1(  16)  ---------------------------------------


    POTLOK:  cpu time  102.8200: real time  103.6919
    SETDIJ:  cpu time    0.0560: real time    0.0591
     EDDAV:  cpu time   26.4760: real time   26.6519
 BZINTS: Fermi energy: -4.513411; 56.000000 electrons
         Band energy:-462.790301;  BLOECHL correction:  0.000000
       DOS:  cpu time    0.0000: real time    0.0019
    CHARGE:  cpu time    1.9440: real time    1.9507
    MIXING:  cpu time    0.0680: real time    0.0675
    --------------------------------------------
      LOOP:  cpu time  131.3640: real time  132.4230

 eigenvalue-minimisations  :  1152
 total energy-change (2. order) : 0.4248963E-02  (-0.2113025E-02)
 number of electron      55.9999996 magnetization       5.8526392
 augmentation part       -0.1711641 magnetization       4.5607015

 Broyden mixing:
  rms(total) = 0.13242E+00    rms(broyden)= 0.13242E+00
  rms(prec ) = 0.13610E+00
  weight for this iteration     100.00

 eigenvalues of (default mixing * dielectric matrix)
  average eigenvalue GAMMA=   0.9238
  1.9098  1.9098  1.3948  1.3948  0.7924  0.7924  0.2298  0.5362  0.5362  0.5707
  0.0951

 Free energy of the ion-electron system (eV)
  ---------------------------------------------------
  alpha Z        PSCENC =        17.65701165
  Ewald energy   TEWEN  =      5985.89955237
  -Hartree energ DENC   =     -8131.40081982
  -exchange      EXHF   =         0.00000000
  -V(xc)+E(xc)   XCENC  =        11.16432819
  PAW double counting   =      1104.89771371    -1004.70499971
  entropy T*S    EENTRO =         0.00000000
  eigenvalues    EBANDS =      -462.79030066
  atomic energy  EATOM  =      2430.09487864
  Solvation  Ediel_sol  =         0.00000000
  ---------------------------------------------------
  free energy    TOTEN  =       -49.18263564 eV

  energy without entropy =      -49.18263564  energy(sigma->0) =      -49.18263564


--------------------------------------------------------------------------------------------------------




--------------------------------------- Iteration      1(  17)  ---------------------------------------


    POTLOK:  cpu time  103.7600: real time  104.1652
    SETDIJ:  cpu time    0.0560: real time    0.0540
     EDDAV:  cpu time   22.6200: real time   23.0374
 BZINTS: Fermi energy: -4.508454; 56.000000 electrons
         Band energy:-463.284574;  BLOECHL correction:  0.000000
       DOS:  cpu time    0.0000: real time    0.0019
    CHARGE:  cpu time    1.8680: real time    1.9509
    MIXING:  cpu time    0.0640: real time    0.0634
    --------------------------------------------
      LOOP:  cpu time  128.3680: real time  129.2728

 eigenvalue-minimisations  :   936
 total energy-change (2. order) : 0.4525605E-03  (-0.9072696E-03)
 number of electron      55.9999996 magnetization       5.8883618
 augmentation part       -0.1687760 magnetization       4.6084618

 Broyden mixing:
  rms(total) = 0.11149E+00    rms(broyden)= 0.11149E+00
  rms(prec ) = 0.11479E+00
  weight for this iteration     100.00

 eigenvalues of (default mixing * dielectric matrix)
  average eigenvalue GAMMA=   0.9925
  2.4373  2.4373  1.3597  1.3597  0.8484  0.8484  0.2298  0.5418  0.5418  0.6058
  0.6058  0.0951

 Free energy of the ion-electron system (eV)
  ---------------------------------------------------
  alpha Z        PSCENC =        17.65701165
  Ewald energy   TEWEN  =      5985.89955237
  -Hartree energ DENC   =     -8130.92777115
  -exchange      EXHF   =         0.00000000
  -V(xc)+E(xc)   XCENC  =        11.21431837
  PAW double counting   =      1104.67678101    -1004.51237994
  entropy T*S    EENTRO =         0.00000000
  eigenvalues    EBANDS =      -463.28457403
  atomic energy  EATOM  =      2430.09487864
  Solvation  Ediel_sol  =         0.00000000
  ---------------------------------------------------
  free energy    TOTEN  =       -49.18218308 eV

  energy without entropy =      -49.18218308  energy(sigma->0) =      -49.18218308


--------------------------------------------------------------------------------------------------------




--------------------------------------- Iteration      1(  18)  ---------------------------------------


    POTLOK:  cpu time  103.9000: real time  104.6254
    SETDIJ:  cpu time    0.0440: real time    0.0455
     EDDAV:  cpu time   22.5880: real time   22.8587
 BZINTS: Fermi energy: -4.545332; 56.000000 electrons
         Band energy:-464.501972;  BLOECHL correction:  0.000000
       DOS:  cpu time    0.0000: real time    0.0024
    CHARGE:  cpu time    2.0280: real time    2.0438
    MIXING:  cpu time    0.0640: real time    0.0618
    --------------------------------------------
      LOOP:  cpu time  128.6240: real time  129.6377

 eigenvalue-minimisations  :   936
 total energy-change (2. order) :-0.4581355E-02  (-0.1619201E-02)
 number of electron      55.9999996 magnetization       5.9365352
 augmentation part       -0.1769481 magnetization       4.6537571

 Broyden mixing:
  rms(total) = 0.71388E-01    rms(broyden)= 0.71388E-01
  rms(prec ) = 0.73799E-01
  weight for this iteration     100.00

 eigenvalues of (default mixing * dielectric matrix)
  average eigenvalue GAMMA=   1.1901
  4.5807  2.7599  1.3663  1.3663  0.9661  0.9661  0.2298  0.5378  0.5378  0.7239
  0.7239  0.6177  0.0951

 Free energy of the ion-electron system (eV)
  ---------------------------------------------------
  alpha Z        PSCENC =        17.65701165
  Ewald energy   TEWEN  =      5985.89955237
  -Hartree energ DENC   =     -8129.62238106
  -exchange      EXHF   =         0.00000000
  -V(xc)+E(xc)   XCENC  =        11.14056508
  PAW double counting   =      1104.10627139    -1003.96069032
  entropy T*S    EENTRO =         0.00000000
  eigenvalues    EBANDS =      -464.50197218
  atomic energy  EATOM  =      2430.09487864
  Solvation  Ediel_sol  =         0.00000000
  ---------------------------------------------------
  free energy    TOTEN  =       -49.18676444 eV

  energy without entropy =      -49.18676444  energy(sigma->0) =      -49.18676444


--------------------------------------------------------------------------------------------------------




--------------------------------------- Iteration      1(  19)  ---------------------------------------


    POTLOK:  cpu time  103.6480: real time  104.2424
    SETDIJ:  cpu time    0.0480: real time    0.0500
     EDDAV:  cpu time   22.3680: real time   22.5213
 BZINTS: Fermi energy: -4.577278; 56.000000 electrons
         Band energy:-466.356232;  BLOECHL correction:  0.000000
       DOS:  cpu time    0.0040: real time    0.0020
    CHARGE:  cpu time    2.0280: real time    2.0493
    MIXING:  cpu time    0.0640: real time    0.0629
    --------------------------------------------
      LOOP:  cpu time  128.1600: real time  128.9280

 eigenvalue-minimisations  :   928
 total energy-change (2. order) :-0.8000738E-02  (-0.2138278E-02)
 number of electron      55.9999996 magnetization       5.9522913
 augmentation part       -0.1780198 magnetization       4.6710598

 Broyden mixing:
  rms(total) = 0.24609E-01    rms(broyden)= 0.24609E-01
  rms(prec ) = 0.25704E-01
  weight for this iteration     100.00

 eigenvalues of (default mixing * dielectric matrix)
  average eigenvalue GAMMA=   1.2219
  5.1790  2.7047  1.3709  1.3709  1.1313  1.1313  0.2298  0.7837  0.7837  0.5393
  0.5393  0.6237  0.6237  0.0951

 Free energy of the ion-electron system (eV)
  ---------------------------------------------------
  alpha Z        PSCENC =        17.65701165
  Ewald energy   TEWEN  =      5985.89955237
  -Hartree energ DENC   =     -8127.66701243
  -exchange      EXHF   =         0.00000000
  -V(xc)+E(xc)   XCENC  =        11.03693852
  PAW double counting   =      1103.29153975    -1003.15144121
  entropy T*S    EENTRO =         0.00000000
  eigenvalues    EBANDS =      -466.35623246
  atomic energy  EATOM  =      2430.09487864
  Solvation  Ediel_sol  =         0.00000000
  ---------------------------------------------------
  free energy    TOTEN  =       -49.19476517 eV

  energy without entropy =      -49.19476517  energy(sigma->0) =      -49.19476517


--------------------------------------------------------------------------------------------------------




--------------------------------------- Iteration      1(  20)  ---------------------------------------


    POTLOK:  cpu time  103.1840: real time  103.4553
    SETDIJ:  cpu time    0.0600: real time    0.0601
     EDDAV:  cpu time   21.3000: real time   21.3703
 BZINTS: Fermi energy: -4.592509; 56.000000 electrons
         Band energy:-467.106540;  BLOECHL correction:  0.000000
       DOS:  cpu time    0.0000: real time    0.0025
    CHARGE:  cpu time    2.0360: real time    2.0413
    MIXING:  cpu time    0.0640: real time    0.0647
    --------------------------------------------
      LOOP:  cpu time  126.6440: real time  126.9942

 eigenvalue-minimisations  :   872
 total energy-change (2. order) :-0.1272698E-01  (-0.5316142E-03)
 number of electron      55.9999996 magnetization       5.9724858
 augmentation part       -0.1754635 magnetization       4.6963454

 Broyden mixing:
  rms(total) = 0.14976E-01    rms(broyden)= 0.14976E-01
  rms(prec ) = 0.15755E-01
  weight for this iteration     100.00

 eigenvalues of (default mixing * dielectric matrix)
  average eigenvalue GAMMA=   1.2786
  5.7238  2.7368  1.7756  1.3661  1.3661  1.1451  0.2298  0.8446  0.8446  0.5383
  0.5383  0.6800  0.6800  0.6155  0.0951

 Free energy of the ion-electron system (eV)
  ---------------------------------------------------
  alpha Z        PSCENC =        17.65701165
  Ewald energy   TEWEN  =      5985.89955237
  -Hartree energ DENC   =     -8126.92299613
  -exchange      EXHF   =         0.00000000
  -V(xc)+E(xc)   XCENC  =        11.03963266
  PAW double counting   =      1103.16875596    -1003.03778682
  entropy T*S    EENTRO =         0.00000000
  eigenvalues    EBANDS =      -467.10654048
  atomic energy  EATOM  =      2430.09487864
  Solvation  Ediel_sol  =         0.00000000
  ---------------------------------------------------
  free energy    TOTEN  =       -49.20749216 eV

  energy without entropy =      -49.20749216  energy(sigma->0) =      -49.20749216


--------------------------------------------------------------------------------------------------------




--------------------------------------- Iteration      1(  21)  ---------------------------------------


    POTLOK:  cpu time   98.9760: real time  100.1489
    SETDIJ:  cpu time    0.0600: real time    0.0620
     EDDAV:  cpu time   21.1720: real time   21.5290
 BZINTS: Fermi energy: -4.605946; 56.000000 electrons
         Band energy:-468.057895;  BLOECHL correction:  0.000000
       DOS:  cpu time    0.0040: real time    0.0011
    CHARGE:  cpu time    1.9320: real time    1.9528
    MIXING:  cpu time    0.0800: real time    0.0814
    --------------------------------------------
      LOOP:  cpu time  122.2240: real time  123.7753

 eigenvalue-minimisations  :   880
 total energy-change (2. order) :-0.9715774E-02  (-0.5989021E-03)
 number of electron      55.9999996 magnetization       5.9840481
 augmentation part       -0.1756488 magnetization       4.7116090

 Broyden mixing:
  rms(total) = 0.52195E-02    rms(broyden)= 0.52194E-02
  rms(prec ) = 0.58117E-02
  weight for this iteration     100.00

 eigenvalues of (default mixing * dielectric matrix)
  average eigenvalue GAMMA=   1.3517
  6.5977  2.9934  1.9737  1.3653  1.3653  1.3316  0.2298  0.9206  0.9206  0.5385
  0.5385  0.7403  0.7403  0.6383  0.6383  0.0951

 Free energy of the ion-electron system (eV)
  ---------------------------------------------------
  alpha Z        PSCENC =        17.65701165
  Ewald energy   TEWEN  =      5985.89955237
  -Hartree energ DENC   =     -8125.96954637
  -exchange      EXHF   =         0.00000000
  -V(xc)+E(xc)   XCENC  =        11.03649189
  PAW double counting   =      1103.18114146    -1003.05884291
  entropy T*S    EENTRO =         0.00000000
  eigenvalues    EBANDS =      -468.05789465
  atomic energy  EATOM  =      2430.09487864
  Solvation  Ediel_sol  =         0.00000000
  ---------------------------------------------------
  free energy    TOTEN  =       -49.21720793 eV

  energy without entropy =      -49.21720793  energy(sigma->0) =      -49.21720793


--------------------------------------------------------------------------------------------------------




--------------------------------------- Iteration      1(  22)  ---------------------------------------


    POTLOK:  cpu time  100.0600: real time  101.3157
    SETDIJ:  cpu time    0.0520: real time    0.0506
     EDDAV:  cpu time   20.5160: real time   20.8318
 BZINTS: Fermi energy: -4.622079; 56.000000 electrons
         Band energy:-468.604468;  BLOECHL correction:  0.000000
       DOS:  cpu time    0.0000: real time    0.0019
    CHARGE:  cpu time    2.0600: real time    2.0728
    MIXING:  cpu time    0.0720: real time    0.0692
    --------------------------------------------
      LOOP:  cpu time  122.7600: real time  124.3421

 eigenvalue-minimisations  :   848
 total energy-change (2. order) : 0.2985703E-02  (-0.2466700E-03)
 number of electron      55.9999996 magnetization       5.9883450
 augmentation part       -0.1773364 magnetization       4.7151091

 Broyden mixing:
  rms(total) = 0.65815E-02    rms(broyden)= 0.65815E-02
  rms(prec ) = 0.69483E-02
  weight for this iteration     100.00

 eigenvalues of (default mixing * dielectric matrix)
  average eigenvalue GAMMA=   1.3813
  6.9307  3.1267  1.9020  1.9020  1.3637  1.3637  0.9946  0.9946  0.2298  0.0951
  0.7880  0.7880  0.5385  0.5385  0.6559  0.6559  0.6151

 Free energy of the ion-electron system (eV)
  ---------------------------------------------------
  alpha Z        PSCENC =        17.65701165
  Ewald energy   TEWEN  =      5985.89955237
  -Hartree energ DENC   =     -8125.40350824
  -exchange      EXHF   =         0.00000000
  -V(xc)+E(xc)   XCENC  =        11.02162731
  PAW double counting   =      1103.25286124    -1003.13217719
  entropy T*S    EENTRO =         0.00000000
  eigenvalues    EBANDS =      -468.60446800
  atomic energy  EATOM  =      2430.09487864
  Solvation  Ediel_sol  =         0.00000000
  ---------------------------------------------------
  free energy    TOTEN  =       -49.21422223 eV

  energy without entropy =      -49.21422223  energy(sigma->0) =      -49.21422223


--------------------------------------------------------------------------------------------------------




--------------------------------------- Iteration      1(  23)  ---------------------------------------


    POTLOK:  cpu time  106.5080: real time  106.9678
    SETDIJ:  cpu time    0.0600: real time    0.0590
     EDDAV:  cpu time   21.4280: real time   21.5507
 BZINTS: Fermi energy: -4.638635; 56.000000 electrons
         Band energy:-468.787765;  BLOECHL correction:  0.000000
       DOS:  cpu time    0.0040: real time    0.0009
    CHARGE:  cpu time    1.9640: real time    1.9680
    MIXING:  cpu time    0.0800: real time    0.0798
    --------------------------------------------
      LOOP:  cpu time  130.0440: real time  130.6262

 eigenvalue-minimisations  :   872
 total energy-change (2. order) :-0.3188413E-02  (-0.4768162E-04)
 number of electron      55.9999996 magnetization       5.9910614
 augmentation part       -0.1793088 magnetization       4.7162393

 Broyden mixing:
  rms(total) = 0.50746E-02    rms(broyden)= 0.50746E-02
  rms(prec ) = 0.53216E-02
  weight for this iteration     100.00

 eigenvalues of (default mixing * dielectric matrix)
  average eigenvalue GAMMA=   1.4663
  7.2418  3.8345  2.6696  2.0889  1.3648  1.3648  0.2298  0.0951  1.0212  1.0212
  0.8543  0.8543  0.5385  0.5385  0.6997  0.6997  0.6387  0.6387

 Free energy of the ion-electron system (eV)
  ---------------------------------------------------
  alpha Z        PSCENC =        17.65701165
  Ewald energy   TEWEN  =      5985.89955237
  -Hartree energ DENC   =     -8125.21928897
  -exchange      EXHF   =         0.00000000
  -V(xc)+E(xc)   XCENC  =        11.01385567
  PAW double counting   =      1103.41223115    -1003.28788653
  entropy T*S    EENTRO =         0.00000000
  eigenvalues    EBANDS =      -468.78776460
  atomic energy  EATOM  =      2430.09487864
  Solvation  Ediel_sol  =         0.00000000
  ---------------------------------------------------
  free energy    TOTEN  =       -49.21741064 eV

  energy without entropy =      -49.21741064  energy(sigma->0) =      -49.21741064


--------------------------------------------------------------------------------------------------------




--------------------------------------- Iteration      1(  24)  ---------------------------------------


    POTLOK:  cpu time   96.2440: real time   97.0277
    SETDIJ:  cpu time    0.0600: real time    0.0590
     EDDAV:  cpu time   21.3840: real time   21.5737
 BZINTS: Fermi energy: -4.608670; 56.000000 electrons
         Band energy:-468.856785;  BLOECHL correction:  0.000000
       DOS:  cpu time    0.0040: real time    0.0010
    CHARGE:  cpu time    1.9640: real time    1.9649
    MIXING:  cpu time    0.0880: real time    0.0890
    --------------------------------------------
      LOOP:  cpu time  119.7440: real time  120.7153

 eigenvalue-minimisations  :   880
 total energy-change (2. order) :-0.3829955E-02  (-0.6392416E-04)
 number of electron      55.9999996 magnetization       5.9932800
 augmentation part       -0.1795537 magnetization       4.7183569

 Broyden mixing:
  rms(total) = 0.26236E-02    rms(broyden)= 0.26236E-02
  rms(prec ) = 0.28098E-02
  weight for this iteration     100.00

 eigenvalues of (default mixing * dielectric matrix)
  average eigenvalue GAMMA=   1.5187
  7.4879  4.7989  2.7319  2.1615  1.3652  1.3652  1.1269  1.1269  0.2298  0.0951
  0.9051  0.9051  0.5385  0.5385  0.7662  0.7662  0.6623  0.6623  0.6217

 Free energy of the ion-electron system (eV)
  ---------------------------------------------------
[...]
     18      -5.5595      1.00000
     19      -5.5505      1.00000
     20      -5.0598      1.00000
     21      -4.9908      1.00000
     22      -4.6579      1.00000
     23      -4.5071      1.00000
     24      -4.1402      1.00000
     25      -3.4781      1.00000
     26      -1.7884      0.00000
     27      -1.4284      0.00000
     28      -1.3551      0.00000
     29      -0.7862      0.00000
     30      -0.7739      0.00000
     31      -0.6534      0.00000
     32      -0.6491      0.00000
     33      -0.2089      0.00000
     34      -0.1140      0.00000
     35       0.1504      0.00000
     36       0.8040      0.00000
     37       1.3595      0.00000
     38       1.5303      0.00000
     39       1.6895      0.00000
     40       2.4582      0.00000

 k-point     5 :      -0.4000    0.2000    0.0000
  band No.  band energies     occupation 
      1     -16.5337      1.00000
      2     -15.9662      1.00000
      3     -15.8611      1.00000
      4     -15.6163      1.00000
      5     -15.4433      1.00000
      6     -15.3034      1.00000
      7     -10.5988      1.00000
      8      -9.2988      1.00000
      9      -7.8777      1.00000
     10      -7.4768      1.00000
     11      -7.3691      1.00000
     12      -6.9165      1.00000
     13      -6.9064      1.00000
     14      -6.3131      1.00000
     15      -5.8366      1.00000
     16      -5.7227      1.00000
     17      -5.6797      1.00000
     18      -5.4473      1.00000
     19      -5.3926      1.00000
     20      -5.1664      1.00000
     21      -4.9455      1.00000
     22      -4.5741      1.00000
     23      -4.3994      1.00000
     24      -4.1899      1.00000
     25      -3.4785      1.00000
     26      -2.1362      0.00000
     27      -1.5856      0.00000
     28      -1.5196      0.00000
     29      -0.7564      0.00000
     30      -0.7251      0.00000
     31      -0.6153      0.00000
     32      -0.4211      0.00000
     33      -0.3744      0.00000
     34      -0.0048      0.00000
     35       0.0925      0.00000
     36       0.3903      0.00000
     37       1.2062      0.00000
     38       1.5546      0.00000
     39       1.6028      0.00000
     40       2.3995      0.00000


--------------------------------------------------------------------------------------------------------


 soft charge-density along one line, spin component           1
         0         1         2         3         4         5         6         7         8         9
 total charge-density along one line

 soft charge-density along one line, spin component           2
         0         1         2         3         4         5         6         7         8         9
 total charge-density along one line

 pseudopotential strength for first ion, spin component:           1
 -8.963   0.104  -0.000  -0.000  -0.000   0.733  -0.028   0.000
  0.104  -8.885   0.000   0.000  -0.000  -0.028   0.712  -0.000
 -0.000   0.000  -9.052   0.000   0.000   0.000  -0.000   0.758
 -0.000   0.000   0.000  -8.885  -0.104   0.000  -0.000  -0.000
 -0.000  -0.000   0.000  -0.104  -8.963   0.000   0.000  -0.000
  0.733  -0.028   0.000   0.000   0.000   0.349   0.007  -0.000
 -0.028   0.712  -0.000  -0.000   0.000   0.007   0.354   0.000
  0.000  -0.000   0.758  -0.000  -0.000  -0.000   0.000   0.343
  0.000  -0.000  -0.000   0.712   0.028  -0.000   0.000   0.000
  0.000   0.000  -0.000   0.028   0.733  -0.000  -0.000   0.000
 -0.000  -0.000   0.001  -0.000   0.000  -0.000   0.000  -0.001
  0.000   0.000  -0.000   0.000  -0.000  -0.000  -0.000   0.000
 -0.000  -0.000   0.000  -0.000   0.001   0.000   0.000  -0.000
 -0.000  -0.000  -0.000  -0.000  -0.000   0.000   0.000   0.000
  0.001  -0.000   0.000  -0.000   0.000   0.000   0.000  -0.000
  0.000   0.000  -0.000   0.000  -0.001  -0.000  -0.000   0.000
  0.000   0.000   0.000   0.000   0.000  -0.000  -0.000  -0.000
 -0.001   0.000  -0.000   0.000  -0.000   0.000  -0.000   0.000
 pseudopotential strength for first ion, spin component:           2
 -7.328  -0.196  -0.000   0.000   0.000   0.271   0.051   0.000
 -0.196  -7.532   0.000   0.000   0.000   0.051   0.325  -0.000
 -0.000   0.000  -7.218   0.000   0.000   0.000  -0.000   0.243
  0.000   0.000   0.000  -7.532   0.196  -0.000  -0.000  -0.000
  0.000   0.000   0.000   0.196  -7.328  -0.000  -0.000  -0.000
  0.271   0.051   0.000  -0.000  -0.000   0.476  -0.013  -0.000
  0.051   0.325  -0.000  -0.000  -0.000  -0.013   0.462   0.000
  0.000  -0.000   0.243  -0.000  -0.000  -0.000   0.000   0.483
 -0.000  -0.000  -0.000   0.325  -0.051   0.000   0.000   0.000
 -0.000  -0.000  -0.000  -0.051   0.271   0.000   0.000   0.000
 -0.000  -0.000   0.010  -0.000   0.000  -0.000   0.000  -0.002
  0.000   0.000  -0.001   0.000  -0.000  -0.000  -0.000   0.000
  0.000  -0.000   0.000  -0.000   0.001  -0.000   0.000  -0.000
 -0.000  -0.000  -0.000  -0.000   0.000   0.000   0.000   0.000
  0.001  -0.000   0.000  -0.000  -0.000   0.000   0.000  -0.000
  0.000   0.000  -0.000   0.000  -0.001   0.000  -0.000   0.000
  0.000   0.000   0.000   0.000  -0.000  -0.000  -0.000  -0.000
 -0.001   0.000  -0.000   0.000   0.000   0.000  -0.000   0.000
 total augmentation occupancy for first ion, spin component:           1
  0.984  -0.070   0.000   0.000  -0.000   0.029   0.268  -0.000  -0.000   0.000  -0.000  -0.000  -0.000   0.000   0.000   0.000
 -0.070   0.896  -0.000  -0.000   0.000   0.266   0.295   0.000  -0.000  -0.000  -0.000  -0.000  -0.000  -0.000  -0.002   0.000
  0.000  -0.000   1.050  -0.000  -0.000  -0.000   0.000  -0.144   0.000   0.000  -0.013  -0.019  -0.000   0.000   0.000   0.000
  0.000  -0.000  -0.000   0.896   0.070  -0.000   0.000   0.000   0.295  -0.266  -0.000   0.000   0.002   0.000  -0.000   0.000
 -0.000   0.000  -0.000   0.070   0.984  -0.000  -0.000   0.000  -0.268   0.029   0.000   0.000   0.000  -0.000   0.000  -0.000
  0.029   0.266  -0.000  -0.000  -0.000   0.222   0.090   0.000  -0.000  -0.000   0.000  -0.000  -0.000   0.000   0.014   0.000
  0.268   0.295   0.000   0.000  -0.000   0.090   0.312   0.000  -0.000  -0.000   0.000   0.000  -0.000   0.000  -0.002   0.000
 -0.000   0.000  -0.144   0.000   0.000   0.000   0.000   0.216   0.000  -0.000   0.058  -0.010  -0.000   0.000   0.000   0.000
 -0.000  -0.000   0.000   0.295  -0.268  -0.000  -0.000   0.000   0.312  -0.090  -0.000  -0.000   0.002  -0.000  -0.000  -0.000
  0.000  -0.000   0.000  -0.266   0.029  -0.000  -0.000  -0.000  -0.090   0.222  -0.000   0.000   0.014  -0.000   0.000  -0.002
 -0.000  -0.000  -0.013   0.000   0.000   0.000   0.000   0.058  -0.000  -0.000   1.062  -0.189   0.000  -0.000   0.000  -0.000
 -0.000  -0.000  -0.019   0.000   0.000  -0.000   0.000  -0.010  -0.000   0.000  -0.189   0.077   0.000  -0.000   0.000  -0.000
 -0.000  -0.000  -0.000   0.002   0.000  -0.000  -0.000  -0.000   0.002   0.014   0.000   0.000   0.234  -0.000  -0.000  -0.004
  0.000  -0.000   0.000   0.000  -0.000   0.000   0.000   0.000  -0.000  -0.000  -0.000  -0.000  -0.000   0.254  -0.000   0.000
  0.000  -0.002   0.000  -0.000   0.000   0.014  -0.002   0.000  -0.000   0.000   0.000   0.000  -0.000  -0.000   0.234   0.000
  0.000   0.000   0.000   0.000  -0.000   0.000   0.000   0.000  -0.000  -0.002   0.000  -0.000  -0.004   0.000   0.000   0.000
 -0.000  -0.000  -0.000   0.000   0.000  -0.000  -0.000  -0.000  -0.000   0.000  -0.000   0.000   0.000  -0.005   0.000  -0.000
 -0.000  -0.000  -0.000   0.000  -0.000  -0.002   0.000  -0.000   0.000  -0.000   0.000   0.000  -0.000   0.000  -0.004  -0.000
 total augmentation occupancy for first ion, spin component:           2
  0.705  -0.323   0.000   0.000  -0.000  -0.193   0.083  -0.000  -0.000  -0.000  -0.000  -0.000   0.000  -0.000   0.001   0.000
 -0.323   0.396  -0.000  -0.000   0.000   0.078  -0.101   0.000  -0.000  -0.000  -0.000  -0.000  -0.000  -0.000   0.002  -0.000
  0.000  -0.000   0.897  -0.000  -0.000  -0.000   0.000  -0.281   0.000   0.000  -0.030  -0.008  -0.000  -0.000   0.000  -0.000
  0.000  -0.000  -0.000   0.396   0.323  -0.000   0.000   0.000  -0.101  -0.078   0.000   0.000  -0.002   0.000  -0.000   0.000
 -0.000   0.000  -0.000   0.323   0.705   0.000  -0.000   0.000  -0.083  -0.193   0.000   0.000   0.001   0.000  -0.000   0.001
 -0.193   0.078  -0.000  -0.000   0.000   0.021  -0.068   0.000   0.000  -0.000   0.000   0.000  -0.000   0.000  -0.003  -0.000
  0.083  -0.101   0.000   0.000  -0.000  -0.068  -0.045  -0.000   0.000   0.000   0.000   0.000   0.000   0.000   0.001  -0.000
 -0.000   0.000  -0.281   0.000   0.000   0.000  -0.000   0.087  -0.000  -0.000   0.018   0.007   0.000   0.000  -0.000   0.000
 -0.000  -0.000   0.000  -0.101  -0.083   0.000   0.000  -0.000  -0.045   0.068   0.000  -0.000  -0.001  -0.000   0.000  -0.000
 -0.000  -0.000   0.000  -0.078  -0.193  -0.000   0.000  -0.000   0.068   0.021  -0.000  -0.000  -0.003  -0.000   0.000  -0.000
 -0.000  -0.000  -0.030  -0.000   0.000   0.000   0.000   0.018  -0.000  -0.000   0.146   0.065  -0.000  -0.000   0.000  -0.000
 -0.000  -0.000  -0.008   0.000   0.000   0.000   0.000   0.007  -0.000  -0.000   0.065  -0.022  -0.000  -0.000   0.000  -0.000
  0.000  -0.000  -0.000  -0.002   0.001  -0.000   0.000   0.000  -0.001  -0.003  -0.000  -0.000   0.023  -0.000  -0.000   0.003
 -0.000  -0.000  -0.000   0.000   0.000   0.000   0.000   0.000  -0.000  -0.000  -0.000  -0.000  -0.000   0.021  -0.000  -0.000
  0.001   0.002   0.000  -0.000  -0.000  -0.003   0.001  -0.000   0.000   0.000   0.000   0.000  -0.000  -0.000   0.023  -0.000
  0.000  -0.000  -0.000   0.000   0.001  -0.000  -0.000   0.000  -0.000  -0.000  -0.000   0.000   0.003  -0.000  -0.000  -0.000
  0.000  -0.000   0.000   0.000  -0.000   0.000   0.000   0.000  -0.000  -0.000  -0.000  -0.000  -0.000   0.003  -0.000   0.000
  0.001  -0.000   0.000  -0.000  -0.000  -0.000   0.000  -0.000  -0.000   0.000   0.000   0.000   0.000  -0.000   0.003   0.000


------------------------ aborting loop because EDIFF is reached ----------------------------------------





 total charge     

# of ion       s       p       d       tot
------------------------------------------
    1        0.348   0.490   4.219   5.057
    2        0.348   0.490   4.219   5.057
    3        0.742   0.901   0.000   1.643
    4        0.742   0.901   0.000   1.643
    5        1.357   2.378   0.000   3.735
    6        1.352   2.391   0.000   3.743
    7        1.356   2.380   0.000   3.736
    8        1.357   2.378   0.000   3.735
    9        1.352   2.391   0.000   3.743
   10        1.356   2.380   0.000   3.736
--------------------------------------------------
tot         10.311  17.079   8.437  35.827



 magnetization (x)

# of ion       s       p       d       tot
------------------------------------------
    1        0.032   0.037   2.900   2.970
    2        0.032   0.037   2.900   2.970
    3        0.003   0.024   0.000   0.027
    4        0.003   0.024   0.000   0.027
    5       -0.001  -0.058   0.000  -0.059
    6       -0.002  -0.044   0.000  -0.046
    7       -0.001  -0.054   0.000  -0.055
    8       -0.001  -0.058   0.000  -0.059
    9       -0.002  -0.044   0.000  -0.046
   10       -0.001  -0.054   0.000  -0.055
--------------------------------------------------
tot          0.063  -0.189   5.800   5.674

    CHARGE:  cpu time    1.7320: real time    1.7341
    FORLOC:  cpu time    0.0640: real time    0.0632
    FORNL :  cpu time    5.1480: real time    5.1592
    STRESS:  cpu time   15.4040: real time   15.4384
    FORCOR:  cpu time   70.0280: real time   70.1126
    FORHAR:  cpu time    0.3400: real time    0.3405
    MIXING:  cpu time    0.0440: real time    0.0430
    OFIELD:  cpu time    0.0000: real time    0.0000

  FORCE on cell =-STRESS in cart. coord.  units (eV):
  Direction    XX          YY          ZZ          XY          YZ          ZX
  --------------------------------------------------------------------------------------
  Alpha Z    25.82710    25.82710    25.82710
  Ewald    9662.28301  9662.28044-11330.74432    -0.00108    -0.00044    -0.00080
  Hartree  9995.99860  9995.99888 -9820.42263    -0.00004     0.00003     0.00005
  E(xc)    -210.61608  -210.61608  -210.20191     0.00002     0.00001     0.00001
  Local  -20546.49575-20546.49487 20230.13003     0.00071     0.00022     0.00040
  n-local   495.23824   496.88288   498.69086     0.71679     0.59236     0.47849
  augment   -54.98395   -54.98392   -58.32098     0.00004     0.00000     0.00003
  Kinetic   634.44380   629.62339   664.87320    -3.43021     0.89266     0.81877
  Fock        0.00000     0.00000     0.00000     0.00000     0.00000     0.00000
  -------------------------------------------------------------------------------------
  Total       0.10640     0.10640    -0.16864     0.00000     0.00000     0.00000
  in kB       0.25738     0.25738    -0.40792     0.00000     0.00000     0.00000
  external pressure =        0.04 kB  Pullay stress =        0.00 kB


 VOLUME and BASIS-vectors are now :
 -----------------------------------------------------------------------------
  energy-cutoff  :      520.00
  volume of cell :      662.36
      direct lattice vectors                 reciprocal lattice vectors
     5.926789706  0.000000065 -0.000000000     0.168725407 -0.097413651 -0.000000000
     2.963394510  5.132750272 -0.000000000    -0.000000002  0.194827325  0.000000000
    -0.000000000 -0.000000000 21.773170525     0.000000000  0.000000000  0.045928084

  length of vectors
     5.926789706  5.926789382 21.773170525     0.194827315  0.194827325  0.045928084


 FORCES acting on ions
    electron-ion (+dipol)            ewald-force                    non-local-force                 convergence-correction
 -----------------------------------------------------------------------------------------------
   -.136E-03 -.770E-04 0.547E+00   0.407E-03 0.238E-03 -.550E+00   -.174E-17 0.347E-17 0.856E-02   0.580E-07 0.210E-07 0.344E-03
   0.136E-03 0.770E-04 -.547E+00   -.407E-03 -.238E-03 0.550E+00   0.174E-17 0.347E-17 -.856E-02   -.580E-07 -.210E-07 -.344E-03
   -.382E-04 -.157E-04 0.223E+03   -.212E-03 -.119E-03 -.213E+03   0.488E-17 0.290E-17 -.973E+01   0.107E-06 0.271E-07 0.111E-01
   0.382E-04 0.157E-04 -.223E+03   0.212E-03 0.119E-03 0.213E+03   -.292E-16 -.133E-16 0.973E+01   -.107E-06 -.271E-07 -.111E-01
   0.397E+01 0.676E-02 -.468E+03   -.703E+01 -.191E-02 0.472E+03   0.309E+01 -.895E-02 -.342E+01   -.170E-01 0.280E-03 -.318E-01
   -.198E+01 -.345E+01 -.468E+03   0.351E+01 0.609E+01 0.472E+03   -.155E+01 -.267E+01 -.342E+01   0.874E-02 0.146E-01 -.318E-01
   -.200E+01 0.344E+01 -.468E+03   0.352E+01 -.609E+01 0.472E+03   -.154E+01 0.268E+01 -.342E+01   0.825E-02 -.149E-01 -.318E-01
   -.397E+01 -.676E-02 0.468E+03   0.703E+01 0.191E-02 -.472E+03   -.309E+01 0.895E-02 0.342E+01   0.170E-01 -.280E-03 0.318E-01
   0.198E+01 0.345E+01 0.468E+03   -.351E+01 -.609E+01 -.472E+03   0.155E+01 0.267E+01 0.342E+01   -.874E-02 -.146E-01 0.318E-01
   0.200E+01 -.344E+01 0.468E+03   -.352E+01 0.609E+01 -.472E+03   0.154E+01 -.268E+01 0.342E+01   -.825E-02 0.149E-01 0.318E-01
 -----------------------------------------------------------------------------------------------
   -.624E-10 -.279E-09 0.362E-10   -.266E-14 0.888E-15 0.568E-13   -.222E-15 0.888E-15 0.444E-15   -.239E-12 -.394E-13 -.113E-10


 POSITION                                       TOTAL-FORCE (eV/Angst)
 -----------------------------------------------------------------------------------
      2.96339      1.71092     10.88495         0.000000     -0.000000      0.006389
      5.92679      3.42184     10.88822         0.000000     -0.000000     -0.006389
     -0.00000     -0.00000      9.78019         0.000000     -0.000000     -0.029166
     -0.00000     -0.00000     11.99298         0.000000     -0.000000      0.029166
      3.80860      0.00103     12.43631         0.017549     -0.002925     -0.019264
      1.05999      1.83390     12.43631        -0.011308     -0.013735     -0.019264
      4.02161      3.29783     12.43631        -0.006241      0.016660     -0.019264
      5.08159      5.13172      9.33687        -0.017549      0.002925      0.019264
      7.83020      3.29885      9.33687         0.011308      0.013735      0.019264
      4.86858      1.83492      9.33687         0.006241     -0.016660      0.019264
 -----------------------------------------------------------------------------------
    total drift:                               -0.000000     -0.000000      0.000000


--------------------------------------------------------------------------------------------------------



  FREE ENERGIE OF THE ION-ELECTRON SYSTEM (eV)
  ---------------------------------------------------
  free  energy   TOTEN  =       -56.89250387 eV

  energy  without entropy=      -56.89250387  energy(sigma->0) =      -56.89250387

 d Force = 0.5638936E-02[ 0.570E-03, 0.107E-01]  d Energy = 0.6789695E-02-0.115E-02
 d Force =-0.2597041E+01[-0.259E+01,-0.260E+01]  d Ewald  =-0.5044168E+02 0.478E+02


--------------------------------------------------------------------------------------------------------


    POTLOK:  cpu time   70.4320: real time   70.5044


--------------------------------------------------------------------------------------------------------




--------------------------------------------------------------------------------------------------------


  
 reached required accuracy - stopping structural energy minimisation
     LOOP+:  cpu time  621.5600: real time  622.3705
    4ORBIT:  cpu time    0.0000: real time    0.0000



 total charge     

# of ion       s       p       d       tot
------------------------------------------
    1        0.348   0.490   4.219   5.057
    2        0.348   0.490   4.219   5.057
    3        0.742   0.901   0.000   1.643
    4        0.742   0.901   0.000   1.643
    5        1.357   2.378   0.000   3.735
    6        1.352   2.391   0.000   3.743
    7        1.356   2.380   0.000   3.736
    8        1.357   2.378   0.000   3.735
    9        1.352   2.391   0.000   3.743
   10        1.356   2.380   0.000   3.736
--------------------------------------------------
tot         10.311  17.079   8.437  35.827



 magnetization (x)

# of ion       s       p       d       tot
------------------------------------------
    1        0.032   0.037   2.900   2.970
    2        0.032   0.037   2.900   2.970
    3        0.003   0.024   0.000   0.027
    4        0.003   0.024   0.000   0.027
    5       -0.001  -0.058   0.000  -0.059
    6       -0.002  -0.044   0.000  -0.046
    7       -0.001  -0.054   0.000  -0.055
    8       -0.001  -0.058   0.000  -0.059
    9       -0.002  -0.044   0.000  -0.046
   10       -0.001  -0.054   0.000  -0.055
--------------------------------------------------
tot          0.063  -0.189   5.800   5.674

 BZINTS: Fermi energy: -3.090887; 56.000000 electrons
         Band energy:-451.200417;  BLOECHL correction:  0.000000

 total amount of memory used by VASP MPI-rank0   170500. kBytes
=======================================================================

   base      :      30000. kBytes
   nonlr-proj:       8725. kBytes
   fftplans  :      20284. kBytes
   grid      :      90201. kBytes
   one-center:        311. kBytes
   wavefun   :      20979. kBytes

  
  
 General timing and accounting informations for this job:
 ========================================================
  
                  Total CPU time used (sec):    13071.224
                            User time (sec):    13026.420
                          System time (sec):       44.804
                         Elapsed time (sec):    13167.725
  
                   Maximum memory used (kb):      590132.
                   Average memory used (kb):           0.
  
                          Minor page faults:     11641859
                          Major page faults:            7
                 Voluntary context switches:          858
