 vasp.5.4.4.18Apr17-6-g9f103f2a35 (build May  1 2020 15:48:39) complex           
 executed on             LinuxGNU date 2020.07.05  15:40:19
 running on   16 total cores
 distrk:  each k-point on   16 cores,    1 groups
 distr:  one band on NCORES_PER_BAND=   1 cores,   16 groups


--------------------------------------------------------------------------------------------------------


 INCAR:
 POTCAR:   PAW_PBE Fe 06Sep2000                   
 POTCAR:   PAW_PBE Ge 05Jan2001                   
 POTCAR:   PAW_PBE Se 06Sep2000                   

 ----------------------------------------------------------------------------- 
|                                                                             |
|           W    W    AA    RRRRR   N    N  II  N    N   GGGG   !!!           |
|           W    W   A  A   R    R  NN   N  II  NN   N  G    G  !!!           |
|           W    W  A    A  R    R  N N  N  II  N N  N  G       !!!           |
|           W WW W  AAAAAA  RRRRR   N  N N  II  N  N N  G  GGG   !            |
|           WW  WW  A    A  R   R   N   NN  II  N   NN  G    G                |
|           W    W  A    A  R    R  N    N  II  N    N   GGGG   !!!           |
|                                                                             |
|      For optimal performance we recommend to set                            |
|        NCORE= 4 - approx SQRT( number of cores)                             |
|      NCORE specifies how many cores store one orbital (NPAR=cpu/NCORE).     |
|      This setting can  greatly improve the performance of VASP for DFT.     |
|      The default,   NCORE=1            might be grossly inefficient         |
|      on modern multi-core architectures or massively parallel machines.     |
|      Do your own testing !!!!                                               |
|      Unfortunately you need to use the default for GW and RPA calculations. |
|      (for HF NCORE is supported but not extensively tested yet)             |
|                                                                             |
 ----------------------------------------------------------------------------- 


 ----------------------------------------------------------------------------- 
|                                                                             |
|  ADVICE TO THIS USER RUNNING 'VASP/VAMP'   (HEAR YOUR MASTER'S VOICE ...):  |
|                                                                             |
|      You have switched on vdW-DFT.                                          |
|      This routine was written and supplied by Jiri Klimes.                  |
|      We recommed that you carefully read and cite the following             |
|      publication                                                            |
|      J. Klimes, D.R. Bowler, A. Michelides                                  |
|        J. Phys.: Cond Matt. 22 022201 (2010)                                |
|      J. Klimes, D.R. Bowler, A. Michelides                                  |
|        Phys. Rev. B. 83, 195131 (2011)                                      |
|      and references therein.                                                |
|                                                                             |
 ----------------------------------------------------------------------------- 

 POTCAR:   PAW_PBE Fe 06Sep2000                   
   VRHFIN =Fe:  d7 s1                                                           
   LEXCH  = PE                                                                  
   EATOM  =   594.4687 eV,   43.6922 Ry                                         
                                                                                
   TITEL  = PAW_PBE Fe 06Sep2000                                                
   LULTRA =        F    use ultrasoft PP ?                                      
   IUNSCR =        1    unscreen: 0-lin 1-nonlin 2-no                           
   RPACOR =    2.000    partial core radius                                     
   POMASS =   55.847; ZVAL   =    8.000    mass and valenz                      
   RCORE  =    2.300    outmost cutoff radius                                   
   RWIGS  =    2.460; RWIGS  =    1.302    wigner-seitz radius (au A)           
   ENMAX  =  267.883; ENMIN  =  200.912 eV                                      
   RCLOC  =    1.701    cutoff for local pot                                    
   LCOR   =        T    correct aug charges                                     
   LPAW   =        T    paw PP                                                  
   EAUG   =  511.368                                                            
   DEXC   =    -.022                                                            
   RMAX   =    2.817    core radius for proj-oper                               
   RAUG   =    1.300    factor for augmentation sphere                          
   RDEP   =    2.442    radius for radial grids                                 
   QCUT   =   -4.437; QGAM   =    8.874    optimization parameters              
                                                                                
   Description                                                                  
     l     E      TYP  RCUT    TYP  RCUT                                        
     2   .000     23  2.300                                                     
     2   .000     23  2.300                                                     
     0   .000     23  2.300                                                     
     0   .000     23  2.300                                                     
     1  -.200     23  2.300                                                     
     1   .000     23  2.300                                                     
     3   .000      7   .000                                                     
  local pseudopotential read in
  partial core-charges read in
  atomic valenz-charges read in
  non local Contribution for L=           2  read in
    real space projection operators read in
  non local Contribution for L=           2  read in
    real space projection operators read in
  non local Contribution for L=           0  read in
    real space projection operators read in
  non local Contribution for L=           0  read in
    real space projection operators read in
  non local Contribution for L=           1  read in
    real space projection operators read in
  non local Contribution for L=           1  read in
    real space projection operators read in
    PAW grid and wavefunctions read in

   number of l-projection  operators is LMAX  =           6
   number of lm-projection operators is LMMAX =          18

 POTCAR:   PAW_PBE Ge 05Jan2001                   
   VRHFIN =Ge: s2p2                                                             
   LEXCH  = PE                                                                  
   EATOM  =   104.9960 eV,    7.7170 Ry                                         
                                                                                
   TITEL  = PAW_PBE Ge 05Jan2001                                                
   LULTRA =        F    use ultrasoft PP ?                                      
   IUNSCR =        1    unscreen: 0-lin 1-nonlin 2-no                           
   RPACOR =    2.170    partial core radius                                     
   POMASS =   72.610; ZVAL   =    4.000    mass and valenz                      
   RCORE  =    2.300    outmost cutoff radius                                   
   RWIGS  =    2.300; RWIGS  =    1.217    wigner-seitz radius (au A)           
   ENMAX  =  173.807; ENMIN  =  130.355 eV                                      
   ICORE  =        3    local potential                                         
   LCOR   =        T    correct aug charges                                     
   LPAW   =        T    paw PP                                                  
   EAUG   =  385.843                                                            
   DEXC   =    -.138                                                            
   RMAX   =    3.497    core radius for proj-oper                               
   RAUG   =    1.300    factor for augmentation sphere                          
   RDEP   =    2.318    radius for radial grids                                 
   QCUT   =   -3.574; QGAM   =    7.148    optimization parameters              
                                                                                
   Description                                                                  
     l     E      TYP  RCUT    TYP  RCUT                                        
     0   .000     23  2.300                                                     
     0   .000     23  2.300                                                     
     1   .000     23  2.300                                                     
     1   .000     23  2.300                                                     
     2   .000     23  2.300                                                     
     3  -.100      7  2.300                                                     
  local pseudopotential read in
  partial core-charges read in
  atomic valenz-charges read in
  non local Contribution for L=           0  read in
    real space projection operators read in
  non local Contribution for L=           0  read in
    real space projection operators read in
  non local Contribution for L=           1  read in
    real space projection operators read in
  non local Contribution for L=           1  read in
    real space projection operators read in
  non local Contribution for L=           2  read in
    real space projection operators read in
    PAW grid and wavefunctions read in

   number of l-projection  operators is LMAX  =           5
   number of lm-projection operators is LMMAX =          13

 POTCAR:   PAW_PBE Se 06Sep2000                   
   VRHFIN =Se: s2p4                                                             
   LEXCH  = PE                                                                  
   EATOM  =   256.9644 eV,   18.8864 Ry                                         
                                                                                
   TITEL  = PAW_PBE Se 06Sep2000                                                
   LULTRA =        F    use ultrasoft PP ?                                      
   IUNSCR =        1    unscreen: 0-lin 1-nonlin 2-no                           
   RPACOR =    1.900    partial core radius                                     
   POMASS =   78.960; ZVAL   =    6.000    mass and valenz                      
   RCORE  =    2.100    outmost cutoff radius                                   
   RWIGS  =    2.200; RWIGS  =    1.164    wigner-seitz radius (au A)           
   ENMAX  =  211.534; ENMIN  =  158.651 eV                                      
   ICORE  =        3    local potential                                         
   LCOR   =        T    correct aug charges                                     
   LPAW   =        T    paw PP                                                  
   EAUG   =  446.842                                                            
   DEXC   =    -.031                                                            
   RMAX   =    3.170    core radius for proj-oper                               
   RAUG   =    1.300    factor for augmentation sphere                          
   RDEP   =    2.177    radius for radial grids                                 
   QCUT   =   -3.943; QGAM   =    7.886    optimization parameters              
                                                                                
   Description                                                                  
     l     E      TYP  RCUT    TYP  RCUT                                        
     0   .000     23  2.100                                                     
     0   .000     23  2.100                                                     
     1   .000     23  2.100                                                     
     1   .000     23  2.100                                                     
     2   .000     23  2.100                                                     
     3  -.100      7  2.100                                                     
  local pseudopotential read in
  partial core-charges read in
  atomic valenz-charges read in
  non local Contribution for L=           0  read in
    real space projection operators read in
  non local Contribution for L=           0  read in
    real space projection operators read in
  non local Contribution for L=           1  read in
    real space projection operators read in
  non local Contribution for L=           1  read in
    real space projection operators read in
  non local Contribution for L=           2  read in
    real space projection operators read in
    PAW grid and wavefunctions read in

   number of l-projection  operators is LMAX  =           5
   number of lm-projection operators is LMMAX =          13

 Optimization of the real space projectors (new method)

 maximal supplied QI-value         = 16.25
 optimisation between [QCUT,QGAM] = [ 11.54, 23.24] = [ 37.28,151.24] Ry 
 Optimized for a Real-space Cutoff    1.53 Angstroem

   l    n(q)    QCUT    max X(q) W(low)/X(q) W(high)/X(q)  e(spline) 
   2     10    11.539     4.378    0.86E-05    0.15E-04    0.46E-07
   2     10    11.539    23.237    0.11E-03    0.14E-03    0.22E-06
   0     11    11.539    17.641    0.19E-04    0.14E-05    0.18E-07
   0     11    11.539    50.908    0.43E-04    0.16E-04    0.30E-06
   1     10    11.539     6.148    0.11E-04    0.38E-05    0.26E-07
   1     10    11.539     8.345    0.44E-04    0.25E-04    0.11E-06
 Optimization of the real space projectors (new method)

 maximal supplied QI-value         = 16.25
 optimisation between [QCUT,QGAM] = [ 11.54, 23.24] = [ 37.28,151.24] Ry 
 Optimized for a Real-space Cutoff    1.28 Angstroem

   l    n(q)    QCUT    max X(q) W(low)/X(q) W(high)/X(q)  e(spline) 
   0      9    11.539     8.651    0.22E-04    0.16E-04    0.10E-07
   0      9    11.539    33.192    0.11E-03    0.16E-03    0.65E-07
   1      8    11.539     5.899    0.37E-04    0.28E-04    0.43E-07
   1      8    11.539    27.289    0.22E-03    0.28E-04    0.14E-06
   2      8    11.539     4.673    0.11E-03    0.18E-03    0.58E-07
 Optimization of the real space projectors (new method)

 maximal supplied QI-value         = 17.95
 optimisation between [QCUT,QGAM] = [ 11.67, 23.34] = [ 38.13,152.52] Ry 
 Optimized for a Real-space Cutoff    1.25 Angstroem

   l    n(q)    QCUT    max X(q) W(low)/X(q) W(high)/X(q)  e(spline) 
   0      9    11.669     6.499    0.13E-04    0.81E-05    0.11E-07
   0      9    11.669    52.623    0.18E-03    0.46E-04    0.72E-07
   1      8    11.669     4.229    0.40E-04    0.45E-04    0.31E-07
   1      8    11.669    29.991    0.22E-03    0.36E-03    0.10E-06
   2      8    11.669     3.719    0.19E-03    0.46E-04    0.50E-07

 ----------------------------------------------------------------------------- 
|                                                                             |
|  ADVICE TO THIS USER RUNNING 'VASP/VAMP'   (HEAR YOUR MASTER'S VOICE ...):  |
|                                                                             |
|      You enforced a specific xc-type in the INCAR file,                     |
|      a different type was found on the POTCAR file                          |
|          I HOPE YOU KNOW, WHAT YOU ARE  DOING                               |
|                                                                             |
 ----------------------------------------------------------------------------- 

 PAW_PBE Fe 06Sep2000                   :
 energy of atom  1       EATOM= -594.4687
 kinetic energy error for atom=    0.0026 (will be added to EATOM!!)
 PAW_PBE Ge 05Jan2001                   :
 energy of atom  2       EATOM= -104.9960
 kinetic energy error for atom=    0.0002 (will be added to EATOM!!)
 PAW_PBE Se 06Sep2000                   :
 energy of atom  3       EATOM= -256.9644
 kinetic energy error for atom=    0.0007 (will be added to EATOM!!)


 POSCAR: Fe2 Ge2 Se6                             
  positions in direct lattice
  velocities in cartesian coordinates
  No initial velocities read in
 exchange correlation table for  LEXCH =       42
   RHO(1)=    0.500       N(1)  =     2000
   RHO(2)=  100.500       N(2)  =     4000



--------------------------------------------------------------------------------------------------------


 ion  position               nearest neighbor table
   1  0.333  0.333  0.500-   6 2.78   5 2.78   7 2.78   8 2.78  10 2.78   9 2.78
   2  0.667  0.667  0.500-   9 2.78   8 2.78  10 2.78   5 2.78   7 2.78   6 2.78
   3  0.000  0.000  0.448-   4 2.43   8 2.63  10 2.63   9 2.63
   4  0.000  0.000  0.552-   3 2.43   5 2.63   7 2.63   6 2.63
   5  0.626  0.000  0.574-   4 2.63   1 2.78   2 2.78
   6  0.000  0.373  0.574-   4 2.63   1 2.78   2 2.78
   7  0.373  0.626  0.574-   4 2.63   1 2.78   2 2.78
   8  0.374  1.000  0.426-   3 2.63   2 2.78   1 2.78
   9  1.000  0.627  0.426-   3 2.63   2 2.78   1 2.78
  10  0.627  0.374  0.426-   3 2.63   2 2.78   1 2.78

  LATTYP: Found a hexagonal cell.
 ALAT       =     6.9077769333
 C/A-ratio  =     3.3939410937
  
  Lattice vectors:
  
 A1 = (   3.4538890000,  -5.9823100000,   0.0000000000)
 A2 = (  -6.9077770000,   0.0000000000,   0.0000000000)
 A3 = (   0.0000000000,   0.0000000000, -23.4445880000)


Analysis of symmetry for initial positions (statically):
=====================================================================
 Subroutine PRICEL returns:
 Original cell was already a primitive cell.
 

 Routine SETGRP: Setting up the symmetry group for a 
 hexagonal supercell.


 Subroutine GETGRP returns: Found  6 space group operations
 (whereof  6 operations were pure point group operations)
 out of a pool of 24 trial point group operations.


The static configuration has the point symmetry S_6 .


Analysis of symmetry for dynamics (positions and initial velocities):
=====================================================================
 Subroutine PRICEL returns:
 Original cell was already a primitive cell.
 

 Routine SETGRP: Setting up the symmetry group for a 
 hexagonal supercell.


 Subroutine GETGRP returns: Found  6 space group operations
 (whereof  6 operations were pure point group operations)
 out of a pool of 24 trial point group operations.


The dynamic configuration has the point symmetry S_6 .


Analysis of constrained symmetry for selective dynamics:
=====================================================================
 Subroutine PRICEL returns:
 Original cell was already a primitive cell.
 

 Routine SETGRP: Setting up the symmetry group for a 
 hexagonal supercell.


 Subroutine GETGRP returns: Found  6 space group operations
 (whereof  6 operations were pure point group operations)
 out of a pool of 24 trial point group operations.


The constrained configuration has the point symmetry S_6 .


Analysis of structural, dynamic, and magnetic symmetry:
=====================================================================
 Subroutine PRICEL returns:
 Original cell was already a primitive cell.
 

 Routine SETGRP: Setting up the symmetry group for a 
 hexagonal supercell.


 Subroutine GETGRP returns: Found  6 space group operations
 (whereof  6 operations were pure point group operations)
 out of a pool of 24 trial point group operations.


The magnetic configuration has the point symmetry S_6 .


 Subroutine INISYM returns: Found  6 space group operations
 (whereof  6 operations are pure point group operations),
 and found     1 'primitive' translations



 KPOINTS: Kpoints from vasprun.xml                

Automatic generation of k-mesh.
Space group operators:
 irot       det(A)        alpha          n_x          n_y          n_z        tau_x        tau_y        tau_z
    1     1.000000     0.000000     1.000000     0.000000     0.000000     0.000000     0.000000     0.000000
    2    -1.000000     0.000000     1.000000     0.000000     0.000000     0.000000     0.000000     0.000000
    3     1.000000   120.000000     0.000000     0.000000     1.000000     0.000000     0.000000     0.000000
    4    -1.000000   120.000000     0.000000     0.000000     1.000000     0.000000     0.000000     0.000000
    5     1.000000   120.000000     0.000000     0.000000    -1.000000     0.000000     0.000000     0.000000
    6    -1.000000   120.000000     0.000000     0.000000    -1.000000     0.000000     0.000000     0.000000
 
 Subroutine IBZKPT returns following result:
 ===========================================
 
 Found      5 irreducible k-points:
 
 Following reciprocal coordinates:
            Coordinates               Weight
  0.000000  0.000000  0.000000      1.000000
  0.200000  0.000000  0.000000      6.000000
  0.400000  0.000000  0.000000      6.000000
  0.400000  0.200000  0.000000      6.000000
 -0.400000  0.200000  0.000000      6.000000
 
 Following cartesian coordinates:
            Coordinates               Weight
  0.000000  0.000000  0.000000      1.000000
  0.028953 -0.016716  0.000000      6.000000
  0.057906 -0.033432  0.000000      6.000000
  0.057906  0.000000  0.000000      6.000000
 -0.057906  0.066864  0.000000      6.000000
 
 TETIRR: Found     15 inequivalent tetrahedra from      150


--------------------------------------------------------------------------------------------------------




 Dimension of arrays:
   k-points           NKPTS =      5   k-points in BZ     NKDIM =      5   number of bands    NBANDS=     48
   number of dos      NEDOS =    301   number of ions     NIONS =     10
   non local maximal  LDIM  =      6   non local SUM 2l+1 LMDIM =     18
   total plane-waves  NPLWV = 524880
   max r-space proj   IRMAX =   8238   max aug-charges    IRDMAX=  29641
   dimension x,y,z NGX =    54 NGY =   54 NGZ =  180
   dimension x,y,z NGXF=   108 NGYF=  108 NGZF=  360
   support grid    NGXF=   108 NGYF=  108 NGZF=  360
   ions per type =               2   2   6
   NGX,Y,Z   is equivalent  to a cutoff of  13.00, 13.00, 12.76 a.u.
   NGXF,Y,Z  is equivalent  to a cutoff of  25.99, 25.99, 25.53 a.u.

 SYSTEM =  unknown system                          
 POSCAR =  Fe2 Ge2 Se6                             

 Startparameter for this run:
   NWRITE =      2    write-flag & timer
   PREC   = accura    normal or accurate (medium, high low for compatibility)
   ISTART =      0    job   : 0-new  1-cont  2-samecut
   ICHARG =      2    charge: 1-file 2-atom 10-const
   ISPIN  =      2    spin polarized calculation?
   LNONCOLLINEAR =      F non collinear calculations
   LSORBIT =      F    spin-orbit coupling
   INIWAV =      1    electr: 0-lowe 1-rand  2-diag
   LASPH  =      F    aspherical Exc in radial PAW
   METAGGA=      F    non-selfconsistent MetaGGA calc.

 Electronic Relaxation 1
   ENCUT  =  520.0 eV  38.22 Ry    6.18 a.u.  12.84 12.84 43.59*2*pi/ulx,y,z
   ENINI  =  520.0     initial cutoff
   ENAUG  =  511.4 eV  augmentation charge cutoff
   NELM   =    400;   NELMIN=  2; NELMDL=  0     # of ELM steps 
   EDIFF  = 0.1E-03   stopping-criterion for ELM
   LREAL  =      T    real-space projection
   NLSPLINE    = F    spline interpolate recip. space projectors
   LCOMPAT=      F    compatible to vasp.4.4
   GGA_COMPAT  = T    GGA compatible to vasp.4.4-vasp.4.6
   LMAXPAW     = -100 max onsite density
   LMAXMIX     =    2 max onsite mixed and CHGCAR
   VOSKOWN=      0    Vosko Wilk Nusair interpolation
   ROPT   =   -0.00025  -0.00025  -0.00025
 Ionic relaxation
   EDIFFG = 0.1E-02   stopping-criterion for IOM
   NSW    =     99    number of steps for IOM
   NBLOCK =      1;   KBLOCK =     99    inner block; outer block 
   IBRION =      2    ionic relax: 0-MD 1-quasi-New 2-CG
   NFREE  =      1    steps in history (QN), initial steepest desc. (CG)
   ISIF   =      3    stress and relaxation
   IWAVPR =     11    prediction:  0-non 1-charg 2-wave 3-comb
   ISYM   =      2    0-nonsym 1-usesym 2-fastsym
   LCORR  =      T    Harris-Foulkes like correction to forces

   POTIM  = 0.5000    time-step for ionic-motion
   TEIN   =    0.0    initial temperature
   TEBEG  =    0.0;   TEEND  =   0.0 temperature during run
   SMASS  =  -3.00    Nose mass-parameter (am)
   estimated Nose-frequenzy (Omega)   =  0.10E-29 period in steps =****** mass=  -0.109E-26a.u.
   SCALEE = 1.0000    scale energy and forces
   NPACO  =    256;   APACO  = 16.0  distance and # of slots for P.C.
   PSTRESS=    0.0 pullay stress

  Mass of Ions in am
   POMASS =  55.85 72.61 78.96
  Ionic Valenz
   ZVAL   =   8.00  4.00  6.00
  Atomic Wigner-Seitz radii
   RWIGS  =  -1.00 -1.00 -1.00
  virtual crystal weights 
   VCA    =   1.00  1.00  1.00
   NELECT =      60.0000    total number of electrons
   NUPDOWN=      -1.0000    fix difference up-down

 DOS related values:
   EMIN   =  10.00;   EMAX   =-10.00  energy-range for DOS
   EFERMI =   0.00
   ISMEAR =    -5;   SIGMA  =   0.05  broadening in eV -4-tet -1-fermi 0-gaus

 Electronic relaxation 2 (details)
   IALGO  =     38    algorithm
   LDIAG  =      T    sub-space diagonalisation (order eigenvalues)
   LSUBROT=      F    optimize rotation matrix (better conditioning)
   TURBO    =      0    0=normal 1=particle mesh
   IRESTART =      0    0=no restart 2=restart with 2 vectors
   NREBOOT  =      0    no. of reboots
   NMIN     =      0    reboot dimension
   EREF     =   0.00    reference energy to select bands
   IMIX   =      4    mixing-type and parameters
     AMIX     =   0.40;   BMIX     =  1.00
     AMIX_MAG =   1.60;   BMIX_MAG =  1.00
     AMIN     =   0.01
     WC   =   100.;   INIMIX=   1;  MIXPRE=   1;  MAXMIX= -45

 Intra band minimization:
   WEIMIN = 0.0010     energy-eigenvalue tresh-hold
   EBREAK =  0.52E-06  absolut break condition
   DEPER  =   0.30     relativ break condition  

   TIME   =   0.40     timestep for ELM

  volume/ion in A,a.u.               =      96.88       653.80
  Fermi-wavevector in a.u.,A,eV,Ry     =   0.647702  1.223979  5.707889  0.419518
  Thomas-Fermi vector in A             =   1.716096

 Write flags
   LWAVE        =      F    write WAVECAR
   LDOWNSAMPLE  =      F    k-point downsampling of WAVECAR
   LCHARG       =      T    write CHGCAR
   LVTOT        =      F    write LOCPOT, total local potential
   LVHAR        =      F    write LOCPOT, Hartree potential only
   LELF         =      F    write electronic localiz. function (ELF)
   LORBIT       =     11    0 simple, 1 ext, 2 COOP (PROOUT), +10 PAW based schemes


 Dipole corrections
   LMONO  =      F    monopole corrections only (constant potential shift)
   LDIPOL =      F    correct potential (dipole corrections)
   IDIPOL =      0    1-x, 2-y, 3-z, 4-all directions 
   EPSILON=  1.0000000 bulk dielectric constant

 Exchange correlation treatment:
   GGA     =    BO    GGA type
   LEXCH   =    42    internal setting for exchange type
   VOSKOWN=      0    Vosko Wilk Nusair interpolation
   LHFCALC =     F    Hartree Fock is set to
   LHFONE  =     F    Hartree Fock one center treatment
   AEXX    =    0.0000 exact exchange contribution

 vdW DFT:
   LUSE_VDW   =     T    switch on vdW DFT
   Zab_VDW    =-.8491    correlation parameter
   PARAM1     =0.1833
   PARAM2     =0.2200
   PARAM3     =0.0000
   -- rVV10 --
   BPARAM     = 6.3000
   CPARAM     = 0.0093

 Linear response parameters
   LEPSILON=     F    determine dielectric tensor
   LRPA    =     F    only Hartree local field effects (RPA)
   LNABLA  =     F    use nabla operator in PAW spheres
   LVEL    =     F    velocity operator in full k-point grid
   LINTERFAST=   F  fast interpolation
   KINTER  =     0    interpolate to denser k-point grid
   CSHIFT  =0.1000    complex shift for real part using Kramers Kronig
   OMEGAMAX=  -1.0    maximum frequency
   DEG_THRESHOLD= 0.2000000E-02 threshold for treating states as degnerate
   RTIME   =   -0.100 relaxation time in fs
  (WPLASMAI=    0.000 imaginary part of plasma frequency in eV, 0.658/RTIME)
   DFIELD  = 0.0000000 0.0000000 0.0000000 field for delta impulse in time

 Orbital magnetization related:
   ORBITALMAG=     F  switch on orbital magnetization
   LCHIMAG   =     F  perturbation theory with respect to B field
   DQ        =  0.001000  dq finite difference perturbation B field
   LLRAUG    =     F  two centre corrections for induced B field



--------------------------------------------------------------------------------------------------------


 conjugate gradient relaxation of ions
   using selective dynamics as specified on POSCAR
 charge density and potential will be updated during run
 spin polarized calculation
 Variant of blocked Davidson
 Davidson routine will perform the subspace rotation
 perform sub-space diagonalisation
    after iterative eigenvector-optimisation
 modified Broyden-mixing scheme, WC =      100.0
 initial mixing is a Kerker type mixing with AMIX =  0.4000 and BMIX =      1.0000
 Hartree-type preconditioning will be used
 using additional bands           18
 real space projection scheme for non local part
 use partial core corrections
 calculate Harris-corrections to forces   (improved forces if not selfconsistent)
 use gradient corrections 
 use of overlap-Matrix (Vanderbilt PP)
 Fermi weights with tetrahedron method with Bloechl corrections


--------------------------------------------------------------------------------------------------------


  energy-cutoff  :      520.00
  volume of cell :      968.84
      direct lattice vectors                 reciprocal lattice vectors
     6.907777000 -0.000000000  0.000000000     0.144764372 -0.083579742  0.000000000
     3.453888000  5.982310000  0.000000000     0.000000000  0.167159509 -0.000000000
     0.000000000  0.000000000 23.444588000    -0.000000000  0.000000000  0.042653767

  length of vectors
     6.907777000  6.907776433 23.444588000     0.167159495  0.167159509  0.042653767



 k-points in units of 2pi/SCALE and weight: Kpoints from vasprun.xml                
   0.00000000  0.00000000  0.00000000       0.040
   0.02895287 -0.01671595  0.00000000       0.240
   0.05790575 -0.03343190  0.00000000       0.240
   0.05790575  0.00000000  0.00000000       0.240
  -0.05790575  0.06686380  0.00000000       0.240

 k-points in reciprocal lattice and weights: Kpoints from vasprun.xml                
   0.00000000  0.00000000  0.00000000       0.040
   0.20000000  0.00000000  0.00000000       0.240
   0.40000000  0.00000000  0.00000000       0.240
   0.40000000  0.20000000  0.00000000       0.240
  -0.40000000  0.20000000  0.00000000       0.240

 position of ions in fractional coordinates (direct lattice) 
   0.33333300  0.33333300  0.49992500
   0.66666700  0.66666700  0.50007500
   0.00000000  0.00000000  0.44821600
   0.00000000  0.00000000  0.55178400
   0.62635700  0.00042000  0.57375200
   0.00042000  0.37322400  0.57375200
   0.37322400  0.62635700  0.57375200
   0.37364300  0.99958000  0.42624800
   0.99958000  0.62677600  0.42624800
   0.62677600  0.37364300  0.42624800

 position of ions in cartesian coordinates  (Angst):
   3.45388488  1.99410134 11.72053566
   6.90778012  3.98820866 11.72405234
   0.00000000  0.00000000 10.50823946
   0.00000000  0.00000000 12.93634854
   4.32818511  0.00251257 13.45137925
   1.29197516  2.23274167 13.45137925
   4.74151509  3.74706174 13.45137925
   6.03347989  5.97979743  9.99320875
   9.06968984  3.74956833  9.99320875
   5.62014991  2.23524826  9.99320875



--------------------------------------------------------------------------------------------------------


 k-point  1 :   0.0000 0.0000 0.0000  plane waves:   26073
 k-point  2 :   0.2000 0.0000 0.0000  plane waves:   26070
 k-point  3 :   0.4000 0.0000 0.0000  plane waves:   26086
 k-point  4 :   0.4000 0.2000 0.0000  plane waves:   26085
 k-point  5 :  -0.4000 0.2000 0.0000  plane waves:   26115

 maximum and minimum number of plane-waves per node :     26115    26070

 maximum number of plane-waves:     26115
 maximum index in each direction: 
   IXMAX=   13   IYMAX=   12   IZMAX=   43
   IXMIN=  -13   IYMIN=  -13   IZMIN=  -43


 serial   3D FFT for wavefunctions
 parallel 3D FFT for charge:
    minimum data exchange during FFTs selected (reduces bandwidth)


 total amount of memory used by VASP MPI-rank0   128227. kBytes
=======================================================================

   base      :      30000. kBytes
   nonlr-proj:       7917. kBytes
   fftplans  :      11247. kBytes
   grid      :      66142. kBytes
   one-center:        311. kBytes
   wavefun   :      12610. kBytes

     INWAV:  cpu time    0.0000: real time    0.0004
 Broyden mixing: mesh for mixing (old mesh)
   NGX = 25   NGY = 25   NGZ = 87
  (NGX  =108   NGY  =108   NGZ  =360)
  gives a total of  54375 points

 initial charge density was supplied:
 charge density of overlapping atoms calculated
 number of electron      60.0000000 magnetization       7.2600000
 keeping initial charge density in first step


--------------------------------------------------------------------------------------------------------


 Maximum index for non-local projection operator         7925
 Maximum index for augmentation-charges         2133 (set IRDMAX)


--------------------------------------------------------------------------------------------------------


 First call to EWALD:  gamma=   0.179
 Maximum number of real-space cells 4x 4x 1
 Maximum number of reciprocal cells 2x 2x 6

    FEWALD:  cpu time    0.0040: real time    0.0014


--------------------------------------- Iteration      1(   1)  ---------------------------------------


vdW kernel read from vdw_kernel.bindat
  0.0000  0.2424  0.5071  0.7962  1.1119  1.4567  1.8333  2.2446  2.6937  3.1842
  3.7199  4.3049  4.9438  5.6415  6.4036  7.2358  8.1446  9.1372 10.2212 11.4050
 12.6979 14.1099 15.6519 17.3360 19.1751 21.1837 23.3773 25.7729 28.3892 31.2465
 34.3669 37.7748 41.4965 45.5611 50.0000

    POTLOK:  cpu time   52.3200: real time   52.3985
    SETDIJ:  cpu time    0.0480: real time    0.0473
     EDDAV:  cpu time   22.7560: real time   23.0227
 BZINTS: Fermi energy:  5.044279; 60.000000 electrons
         Band energy: -27.875778;  BLOECHL correction: -0.039293
       DOS:  cpu time    0.0040: real time    0.0045
    --------------------------------------------
      LOOP:  cpu time   75.1280: real time   75.4730

 eigenvalue-minimisations  :   960
 total energy-change (2. order) : 0.4083831E+03  (-0.1761329E+04)
 number of electron      60.0000000 magnetization       7.2600000
 augmentation part       60.0000000 magnetization       7.2600000

 Free energy of the ion-electron system (eV)
  ---------------------------------------------------
  alpha Z        PSCENC =        38.19945723
  Ewald energy   TEWEN  =      7005.02028753
  -Hartree energ DENC   =     -9647.52943051
  -exchange      EXHF   =         0.00000000
  -V(xc)+E(xc)   XCENC  =       -18.76842099
  PAW double counting   =      1673.50809258    -1570.13786453
  entropy T*S    EENTRO =         0.00000000
  eigenvalues    EBANDS =       -27.87577755
  atomic energy  EATOM  =      2955.96674742
  Solvation  Ediel_sol  =         0.00000000
  ---------------------------------------------------
  free energy    TOTEN  =       408.38309118 eV

  energy without entropy =      408.38309118  energy(sigma->0) =      408.38309118


--------------------------------------------------------------------------------------------------------




--------------------------------------- Iteration      1(   2)  ---------------------------------------


     EDDAV:  cpu time   28.8840: real time   29.4742
 BZINTS: Fermi energy: -1.408900; 60.000000 electrons
         Band energy:-413.697710;  BLOECHL correction: -0.051123
       DOS:  cpu time    0.0040: real time    0.0049
    --------------------------------------------
      LOOP:  cpu time   28.8880: real time   29.4790

 eigenvalue-minimisations  :  1264
 total energy-change (2. order) :-0.3858219E+03  (-0.3600025E+03)
 number of electron      60.0000000 magnetization       7.2600000
 augmentation part       60.0000000 magnetization       7.2600000

 Free energy of the ion-electron system (eV)
  ---------------------------------------------------
  alpha Z        PSCENC =        38.19945723
  Ewald energy   TEWEN  =      7005.02028753
  -Hartree energ DENC   =     -9647.52943051
  -exchange      EXHF   =         0.00000000
  -V(xc)+E(xc)   XCENC  =       -18.76842099
  PAW double counting   =      1673.50809258    -1570.13786453
  entropy T*S    EENTRO =         0.00000000
  eigenvalues    EBANDS =      -413.69771030
  atomic energy  EATOM  =      2955.96674742
  Solvation  Ediel_sol  =         0.00000000
  ---------------------------------------------------
  free energy    TOTEN  =        22.56115842 eV

  energy without entropy =       22.56115842  energy(sigma->0) =       22.56115842


--------------------------------------------------------------------------------------------------------




--------------------------------------- Iteration      1(   3)  ---------------------------------------


     EDDAV:  cpu time   28.6920: real time   29.6915
 BZINTS: Fermi energy: -2.678792; 60.000000 electrons
         Band energy:-480.907623;  BLOECHL correction: -0.010749
       DOS:  cpu time    0.0040: real time    0.0052
    --------------------------------------------
      LOOP:  cpu time   28.6960: real time   29.6967

 eigenvalue-minimisations  :  1264
 total energy-change (2. order) :-0.6720991E+02  (-0.6580549E+02)
 number of electron      60.0000000 magnetization       7.2600000
 augmentation part       60.0000000 magnetization       7.2600000

 Free energy of the ion-electron system (eV)
  ---------------------------------------------------
  alpha Z        PSCENC =        38.19945723
  Ewald energy   TEWEN  =      7005.02028753
  -Hartree energ DENC   =     -9647.52943051
  -exchange      EXHF   =         0.00000000
  -V(xc)+E(xc)   XCENC  =       -18.76842099
  PAW double counting   =      1673.50809258    -1570.13786453
  entropy T*S    EENTRO =         0.00000000
  eigenvalues    EBANDS =      -480.90762294
  atomic energy  EATOM  =      2955.96674742
  Solvation  Ediel_sol  =         0.00000000
  ---------------------------------------------------
  free energy    TOTEN  =       -44.64875421 eV

  energy without entropy =      -44.64875421  energy(sigma->0) =      -44.64875421


--------------------------------------------------------------------------------------------------------




--------------------------------------- Iteration      1(   4)  ---------------------------------------


     EDDAV:  cpu time   29.1200: real time   29.5157
 BZINTS: Fermi energy: -2.700109; 60.000000 electrons
         Band energy:-483.870999;  BLOECHL correction: -0.011552
       DOS:  cpu time    0.0040: real time    0.0045
    --------------------------------------------
      LOOP:  cpu time   29.1240: real time   29.5202

 eigenvalue-minimisations  :  1264
 total energy-change (2. order) :-0.2963376E+01  (-0.2917786E+01)
 number of electron      60.0000000 magnetization       7.2600000
 augmentation part       60.0000000 magnetization       7.2600000

 Free energy of the ion-electron system (eV)
  ---------------------------------------------------
  alpha Z        PSCENC =        38.19945723
  Ewald energy   TEWEN  =      7005.02028753
  -Hartree energ DENC   =     -9647.52943051
  -exchange      EXHF   =         0.00000000
  -V(xc)+E(xc)   XCENC  =       -18.76842099
  PAW double counting   =      1673.50809258    -1570.13786453
  entropy T*S    EENTRO =         0.00000000
  eigenvalues    EBANDS =      -483.87099881
  atomic energy  EATOM  =      2955.96674742
  Solvation  Ediel_sol  =         0.00000000
  ---------------------------------------------------
  free energy    TOTEN  =       -47.61213008 eV

  energy without entropy =      -47.61213008  energy(sigma->0) =      -47.61213008


--------------------------------------------------------------------------------------------------------




--------------------------------------- Iteration      1(   5)  ---------------------------------------


     EDDAV:  cpu time   29.0320: real time   29.3532
 BZINTS: Fermi energy: -2.700619; 60.000000 electrons
         Band energy:-483.951648;  BLOECHL correction: -0.011497
       DOS:  cpu time    0.0040: real time    0.0061
    CHARGE:  cpu time    2.0120: real time    2.0551
    MIXING:  cpu time    0.0440: real time    0.0433
    --------------------------------------------
      LOOP:  cpu time   31.0920: real time   31.4577

 eigenvalue-minimisations  :  1264
 total energy-change (2. order) :-0.8064927E-01  (-0.8047182E-01)
 number of electron      60.0000002 magnetization       7.2624581
 augmentation part       -3.3465610 magnetization       5.0047892

 Broyden mixing:
  rms(total) = 0.25489E+01    rms(broyden)= 0.25487E+01
  rms(prec ) = 0.28172E+01
  weight for this iteration     100.00

 Free energy of the ion-electron system (eV)
  ---------------------------------------------------
  alpha Z        PSCENC =        38.19945723
  Ewald energy   TEWEN  =      7005.02028753
  -Hartree energ DENC   =     -9647.52943051
  -exchange      EXHF   =         0.00000000
  -V(xc)+E(xc)   XCENC  =       -18.76842099
  PAW double counting   =      1673.50809258    -1570.13786453
  entropy T*S    EENTRO =         0.00000000
  eigenvalues    EBANDS =      -483.95164807
  atomic energy  EATOM  =      2955.96674742
  Solvation  Ediel_sol  =         0.00000000
  ---------------------------------------------------
  free energy    TOTEN  =       -47.69277935 eV

  energy without entropy =      -47.69277935  energy(sigma->0) =      -47.69277935


--------------------------------------------------------------------------------------------------------




--------------------------------------- Iteration      1(   6)  ---------------------------------------


    POTLOK:  cpu time   51.6320: real time   52.2023
    SETDIJ:  cpu time    0.0480: real time    0.0489
     EDDAV:  cpu time   27.0080: real time   27.3022
 BZINTS: Fermi energy: -4.718873; 60.000000 electrons
         Band energy:-659.494906;  BLOECHL correction: -0.031346
       DOS:  cpu time    0.0040: real time    0.0050
    CHARGE:  cpu time    2.0440: real time    2.0607
    MIXING:  cpu time    0.0400: real time    0.0425
    --------------------------------------------
      LOOP:  cpu time   80.7760: real time   81.6616

 eigenvalue-minimisations  :  1168
 total energy-change (2. order) :-0.5737103E+02  (-0.4284699E+02)
 number of electron      60.0000012 magnetization       7.0453536
 augmentation part        7.7320393 magnetization       7.0875818

 Broyden mixing:
  rms(total) = 0.64223E+01    rms(broyden)= 0.64222E+01
  rms(prec ) = 0.68849E+01
  weight for this iteration     100.00

 eigenvalues of (default mixing * dielectric matrix)
  average eigenvalue GAMMA=   0.2294
  0.2294

 Free energy of the ion-electron system (eV)
  ---------------------------------------------------
  alpha Z        PSCENC =        38.19945723
  Ewald energy   TEWEN  =      7005.02028753
  -Hartree energ DENC   =     -9542.42422285
  -exchange      EXHF   =         0.00000000
  -V(xc)+E(xc)   XCENC  =       -18.38250056
  PAW double counting   =      1512.43371457    -1396.38238304
  entropy T*S    EENTRO =         0.00000000
  eigenvalues    EBANDS =      -659.49490642
  atomic energy  EATOM  =      2955.96674742
  Solvation  Ediel_sol  =         0.00000000
  ---------------------------------------------------
  free energy    TOTEN  =      -105.06380611 eV

  energy without entropy =     -105.06380611  energy(sigma->0) =     -105.06380611


--------------------------------------------------------------------------------------------------------




--------------------------------------- Iteration      1(   7)  ---------------------------------------


    POTLOK:  cpu time   50.8360: real time   52.3340
    SETDIJ:  cpu time    0.0400: real time    0.0470
     EDDAV:  cpu time   27.3520: real time   27.8777
 BZINTS: Fermi energy: -4.691330; 60.029643 electrons
         Band energy:-520.000649;  BLOECHL correction: -0.021875
       DOS:  cpu time    0.0080: real time    0.0093
    CHARGE:  cpu time    1.9880: real time    2.0240
    MIXING:  cpu time    0.0400: real time    0.0439
    --------------------------------------------
      LOOP:  cpu time   80.2640: real time   82.3359

 eigenvalue-minimisations  :  1184
 total energy-change (2. order) : 0.6149641E+02  (-0.6469569E+01)
 number of electron      60.0296441 magnetization       6.8140883
 augmentation part        4.6035606 magnetization       6.2241597

 Broyden mixing:
  rms(total) = 0.31557E+01    rms(broyden)= 0.31556E+01
  rms(prec ) = 0.34381E+01
  weight for this iteration     100.00

 eigenvalues of (default mixing * dielectric matrix)
  average eigenvalue GAMMA=   0.4772
  0.4772  0.4772

 Free energy of the ion-electron system (eV)
  ---------------------------------------------------
  alpha Z        PSCENC =        38.19945723
  Ewald energy   TEWEN  =      7005.02028753
  -Hartree energ DENC   =     -9606.98380215
  -exchange      EXHF   =         0.00000000
  -V(xc)+E(xc)   XCENC  =       -20.06252802
  PAW double counting   =      1626.95585995    -1522.66276719
  entropy T*S    EENTRO =         0.00000000
  eigenvalues    EBANDS =      -520.00064877
  atomic energy  EATOM  =      2955.96674742
  Solvation  Ediel_sol  =         0.00000000
  ---------------------------------------------------
  free energy    TOTEN  =       -43.56739399 eV

  energy without entropy =      -43.56739399  energy(sigma->0) =      -43.56739399


--------------------------------------------------------------------------------------------------------




--------------------------------------- Iteration      1(   8)  ---------------------------------------


    POTLOK:  cpu time   51.9400: real time   52.2326
    SETDIJ:  cpu time    0.0720: real time    0.0739
     EDDAV:  cpu time   31.8000: real time   32.7253
 BZINTS: Fermi energy: -3.092600; 60.000000 electrons
         Band energy:-482.626598;  BLOECHL correction: -0.018601
       DOS:  cpu time    0.0040: real time    0.0071
    CHARGE:  cpu time    2.0600: real time    2.0632
    MIXING:  cpu time    0.0440: real time    0.0445
    --------------------------------------------
      LOOP:  cpu time   85.9200: real time   87.1466

 eigenvalue-minimisations  :  1424
 total energy-change (2. order) : 0.2580710E+01  (-0.5394112E+01)
 number of electron      60.0000003 magnetization       6.9023931
 augmentation part       -1.6840546 magnetization       3.6179070

 Broyden mixing:
  rms(total) = 0.22882E+01    rms(broyden)= 0.22879E+01
  rms(prec ) = 0.23937E+01
  weight for this iteration     100.00

 eigenvalues of (default mixing * dielectric matrix)
  average eigenvalue GAMMA=   0.4114
  0.4873  0.3735  0.3735

 Free energy of the ion-electron system (eV)
  ---------------------------------------------------
  alpha Z        PSCENC =        38.19945723
  Ewald energy   TEWEN  =      7005.02028753
  -Hartree energ DENC   =     -9640.01139958
  -exchange      EXHF   =         0.00000000
  -V(xc)+E(xc)   XCENC  =       -19.91411869
  PAW double counting   =      1688.98412920    -1586.60518890
  entropy T*S    EENTRO =         0.00000000
  eigenvalues    EBANDS =      -482.62659783
  atomic energy  EATOM  =      2955.96674742
  Solvation  Ediel_sol  =         0.00000000
  ---------------------------------------------------
  free energy    TOTEN  =       -40.98668362 eV

  energy without entropy =      -40.98668362  energy(sigma->0) =      -40.98668362


--------------------------------------------------------------------------------------------------------




--------------------------------------- Iteration      1(   9)  ---------------------------------------


    POTLOK:  cpu time   52.2560: real time   52.5734
    SETDIJ:  cpu time    0.0680: real time    0.0690
     EDDAV:  cpu time   32.6720: real time   33.0847
 BZINTS: Fermi energy: -3.635296; 60.014034 electrons
         Band energy:-496.819144;  BLOECHL correction: -0.020088
       DOS:  cpu time    0.0080: real time    0.0091
    CHARGE:  cpu time    2.0840: real time    2.0867
    MIXING:  cpu time    0.0440: real time    0.0448
    --------------------------------------------
      LOOP:  cpu time   87.1320: real time   87.8677

 eigenvalue-minimisations  :  1440
 total energy-change (2. order) : 0.1413418E+01  (-0.5797149E+00)
 number of electron      60.0140342 magnetization       6.9428111
 augmentation part       -0.3198769 magnetization       3.8572289

 Broyden mixing:
  rms(total) = 0.11592E+01    rms(broyden)= 0.11591E+01
  rms(prec ) = 0.11815E+01
  weight for this iteration     100.00

 eigenvalues of (default mixing * dielectric matrix)
  average eigenvalue GAMMA=   0.3286
  0.4241  0.3557  0.3557  0.1789

 Free energy of the ion-electron system (eV)
  ---------------------------------------------------
  alpha Z        PSCENC =        38.19945723
  Ewald energy   TEWEN  =      7005.02028753
  -Hartree energ DENC   =     -9624.82367659
  -exchange      EXHF   =         0.00000000
  -V(xc)+E(xc)   XCENC  =       -19.35573531
  PAW double counting   =      1662.77255743    -1560.53375989
  entropy T*S    EENTRO =         0.00000000
  eigenvalues    EBANDS =      -496.81914365
  atomic energy  EATOM  =      2955.96674742
  Solvation  Ediel_sol  =         0.00000000
  ---------------------------------------------------
  free energy    TOTEN  =       -39.57326583 eV

  energy without entropy =      -39.57326583  energy(sigma->0) =      -39.57326583


--------------------------------------------------------------------------------------------------------




--------------------------------------- Iteration      1(  10)  ---------------------------------------


    POTLOK:  cpu time   51.3960: real time   52.6646
    SETDIJ:  cpu time    0.0480: real time    0.0490
     EDDAV:  cpu time   30.0200: real time   30.4375
 BZINTS: Fermi energy: -3.683652; 60.000000 electrons
         Band energy:-497.513292;  BLOECHL correction: -0.019366
       DOS:  cpu time    0.0040: real time    0.0073
    CHARGE:  cpu time    1.9520: real time    2.0472
    MIXING:  cpu time    0.0400: real time    0.0434
    --------------------------------------------
      LOOP:  cpu time   83.4600: real time   85.2490

 eigenvalue-minimisations  :  1312
 total energy-change (2. order) : 0.1665201E-01  (-0.3431692E-01)
 number of electron      60.0000004 magnetization       7.1658809
 augmentation part       -0.1908724 magnetization       4.1626553

 Broyden mixing:
  rms(total) = 0.99259E+00    rms(broyden)= 0.99259E+00
  rms(prec ) = 0.10104E+01
  weight for this iteration     100.00

 eigenvalues of (default mixing * dielectric matrix)
  average eigenvalue GAMMA=   0.6176
  0.7853  0.7853  0.6041  0.4567  0.4567

 Free energy of the ion-electron system (eV)
  ---------------------------------------------------
  alpha Z        PSCENC =        38.19945723
  Ewald energy   TEWEN  =      7005.02028753
  -Hartree energ DENC   =     -9624.21304506
  -exchange      EXHF   =         0.00000000
  -V(xc)+E(xc)   XCENC  =       -19.11800340
  PAW double counting   =      1661.50249943    -1559.40126484
  entropy T*S    EENTRO =         0.00000000
  eigenvalues    EBANDS =      -497.51329214
  atomic energy  EATOM  =      2955.96674742
  Solvation  Ediel_sol  =         0.00000000
  ---------------------------------------------------
  free energy    TOTEN  =       -39.55661383 eV

  energy without entropy =      -39.55661383  energy(sigma->0) =      -39.55661383


--------------------------------------------------------------------------------------------------------




--------------------------------------- Iteration      1(  11)  ---------------------------------------


    POTLOK:  cpu time   51.6640: real time   51.8108
    SETDIJ:  cpu time    0.0480: real time    0.0500
     EDDAV:  cpu time   29.4320: real time   29.6346
 BZINTS: Fermi energy: -3.812067; 60.000000 electrons
         Band energy:-502.795207;  BLOECHL correction: -0.017926
       DOS:  cpu time    0.0040: real time    0.0072
    CHARGE:  cpu time    2.0320: real time    2.0527
    MIXING:  cpu time    0.0480: real time    0.0465
    --------------------------------------------
      LOOP:  cpu time   83.2280: real time   83.6016

 eigenvalue-minimisations  :  1280
 total energy-change (2. order) :-0.1436423E+00  (-0.5420765E-01)
 number of electron      60.0000004 magnetization       7.3223131
 augmentation part        0.1807227 magnetization       4.3815176

 Broyden mixing:
  rms(total) = 0.33593E+00    rms(broyden)= 0.33591E+00
  rms(prec ) = 0.34178E+00
  weight for this iteration     100.00

 eigenvalues of (default mixing * dielectric matrix)
  average eigenvalue GAMMA=   0.7233
  0.9193  0.9193  0.9585  0.4700  0.4700  0.6028

 Free energy of the ion-electron system (eV)
  ---------------------------------------------------
  alpha Z        PSCENC =        38.19945723
  Ewald energy   TEWEN  =      7005.02028753
  -Hartree energ DENC   =     -9619.56133872
  -exchange      EXHF   =         0.00000000
  -V(xc)+E(xc)   XCENC  =       -17.81790642
  PAW double counting   =      1655.29503461    -1554.00733117
  entropy T*S    EENTRO =         0.00000000
  eigenvalues    EBANDS =      -502.79520661
  atomic energy  EATOM  =      2955.96674742
  Solvation  Ediel_sol  =         0.00000000
  ---------------------------------------------------
  free energy    TOTEN  =       -39.70025614 eV

  energy without entropy =      -39.70025614  energy(sigma->0) =      -39.70025614


--------------------------------------------------------------------------------------------------------




--------------------------------------- Iteration      1(  12)  ---------------------------------------


    POTLOK:  cpu time   52.1440: real time   52.4268
    SETDIJ:  cpu time    0.0560: real time    0.0571
     EDDAV:  cpu time   32.7080: real time   35.1243
 BZINTS: Fermi energy: -3.759216; 60.000000 electrons
         Band energy:-502.974325;  BLOECHL correction: -0.021489
       DOS:  cpu time    0.0040: real time    0.0062
    CHARGE:  cpu time    2.3000: real time    2.3392
    MIXING:  cpu time    0.0560: real time    0.0580
    --------------------------------------------
      LOOP:  cpu time   87.2680: real time   90.0115

 eigenvalue-minimisations  :  1232
 total energy-change (2. order) :-0.7443356E-01  (-0.1852657E-01)
 number of electron      60.0000004 magnetization       7.4524157
 augmentation part        0.0227154 magnetization       4.3558348

 Broyden mixing:
  rms(total) = 0.33806E+00    rms(broyden)= 0.33805E+00
  rms(prec ) = 0.35333E+00
  weight for this iteration     100.00

 eigenvalues of (default mixing * dielectric matrix)
  average eigenvalue GAMMA=   0.8379
  1.7256  0.8994  0.8994  0.4714  0.4714  0.7998  0.5982

 Free energy of the ion-electron system (eV)
  ---------------------------------------------------
  alpha Z        PSCENC =        38.19945723
  Ewald energy   TEWEN  =      7005.02028753
  -Hartree energ DENC   =     -9619.32040007
  -exchange      EXHF   =         0.00000000
  -V(xc)+E(xc)   XCENC  =       -17.27646302
  PAW double counting   =      1659.10443705    -1558.49443035
  entropy T*S    EENTRO =         0.00000000
  eigenvalues    EBANDS =      -502.97432548
  atomic energy  EATOM  =      2955.96674742
  Solvation  Ediel_sol  =         0.00000000
  ---------------------------------------------------
  free energy    TOTEN  =       -39.77468969 eV

  energy without entropy =      -39.77468969  energy(sigma->0) =      -39.77468969


--------------------------------------------------------------------------------------------------------




--------------------------------------- Iteration      1(  13)  ---------------------------------------


    POTLOK:  cpu time   58.0600: real time   60.8731
    SETDIJ:  cpu time    0.0880: real time    0.0891
     EDDAV:  cpu time   34.5800: real time   35.2046
 BZINTS: Fermi energy: -3.747620; 60.000000 electrons
         Band energy:-502.799516;  BLOECHL correction: -0.022740
       DOS:  cpu time    0.0080: real time    0.0083
    CHARGE:  cpu time    2.0760: real time    2.3517
    MIXING:  cpu time    0.0560: real time    0.0745
    --------------------------------------------
      LOOP:  cpu time   94.8680: real time   98.6013

 eigenvalue-minimisations  :  1264
 total energy-change (2. order) :-0.2301205E-01  (-0.1447170E-02)
 number of electron      60.0000004 magnetization       7.5719873
 augmentation part       -0.0235567 magnetization       4.4406635

 Broyden mixing:
  rms(total) = 0.33530E+00    rms(broyden)= 0.33530E+00
  rms(prec ) = 0.35412E+00
  weight for this iteration     100.00

 eigenvalues of (default mixing * dielectric matrix)
  average eigenvalue GAMMA=   0.8843
  2.0589  0.8721  0.8721  0.4722  0.4722  0.8659  0.8659  0.5951

 Free energy of the ion-electron system (eV)
  ---------------------------------------------------
  alpha Z        PSCENC =        38.19945723
  Ewald energy   TEWEN  =      7005.02028753
  -Hartree energ DENC   =     -9619.42644832
  -exchange      EXHF   =         0.00000000
  -V(xc)+E(xc)   XCENC  =       -17.01192718
  PAW double counting   =      1662.03109244    -1561.77739531
  entropy T*S    EENTRO =         0.00000000
  eigenvalues    EBANDS =      -502.79951556
  atomic energy  EATOM  =      2955.96674742
  Solvation  Ediel_sol  =         0.00000000
  ---------------------------------------------------
  free energy    TOTEN  =       -39.79770174 eV

  energy without entropy =      -39.79770174  energy(sigma->0) =      -39.79770174


--------------------------------------------------------------------------------------------------------




--------------------------------------- Iteration      1(  14)  ---------------------------------------


    POTLOK:  cpu time   53.6920: real time   55.5865
    SETDIJ:  cpu time    0.0480: real time    0.0500
     EDDAV:  cpu time   27.6440: real time   27.9462
 BZINTS: Fermi energy: -3.770902; 60.000000 electrons
         Band energy:-503.757810;  BLOECHL correction: -0.020952
       DOS:  cpu time    0.0040: real time    0.0075
    CHARGE:  cpu time    2.0520: real time    2.0578
    MIXING:  cpu time    0.0480: real time    0.0491
    --------------------------------------------
      LOOP:  cpu time   83.4880: real time   85.6970

 eigenvalue-minimisations  :  1200
 total energy-change (2. order) : 0.2937771E-01  (-0.2493711E-02)
 number of electron      60.0000004 magnetization       7.6718862
 augmentation part        0.1011450 magnetization       4.5619410

 Broyden mixing:
  rms(total) = 0.20128E+00    rms(broyden)= 0.20128E+00
  rms(prec ) = 0.21273E+00
  weight for this iteration     100.00

 eigenvalues of (default mixing * dielectric matrix)
  average eigenvalue GAMMA=   0.9107
  2.2045  0.8579  0.8579  0.4716  0.4716  1.0387  1.0387  0.6276  0.6276

 Free energy of the ion-electron system (eV)
  ---------------------------------------------------
  alpha Z        PSCENC =        38.19945723
  Ewald energy   TEWEN  =      7005.02028753
  -Hartree energ DENC   =     -9618.49325212
  -exchange      EXHF   =         0.00000000
  -V(xc)+E(xc)   XCENC  =       -16.83904943
  PAW double counting   =      1661.28195003    -1561.14665445
  entropy T*S    EENTRO =         0.00000000
  eigenvalues    EBANDS =      -503.75781025
  atomic energy  EATOM  =      2955.96674742
  Solvation  Ediel_sol  =         0.00000000
  ---------------------------------------------------
  free energy    TOTEN  =       -39.76832404 eV

  energy without entropy =      -39.76832404  energy(sigma->0) =      -39.76832404


--------------------------------------------------------------------------------------------------------




--------------------------------------- Iteration      1(  15)  ---------------------------------------


    POTLOK:  cpu time   52.3520: real time   52.5220
    SETDIJ:  cpu time    0.0480: real time    0.0488
     EDDAV:  cpu time   29.2840: real time   29.5488
 BZINTS: Fermi energy: -3.789565; 60.000000 electrons
         Band energy:-504.210511;  BLOECHL correction: -0.019743
       DOS:  cpu time    0.0040: real time    0.0187
    CHARGE:  cpu time    2.0080: real time    2.0097
    MIXING:  cpu time    0.0520: real time    0.0500
    --------------------------------------------
      LOOP:  cpu time   83.7480: real time   84.1980

 eigenvalue-minimisations  :  1264
 total energy-change (2. order) : 0.6861748E-02  (-0.2192292E-02)
 number of electron      60.0000004 magnetization       7.7779607
 augmentation part        0.1871065 magnetization       4.6701721

 Broyden mixing:
  rms(total) = 0.14272E+00    rms(broyden)= 0.14271E+00
  rms(prec ) = 0.14814E+00
  weight for this iteration     100.00

 eigenvalues of (default mixing * dielectric matrix)
  average eigenvalue GAMMA=   1.0039
  2.1312  2.1312  0.8709  0.8709  0.4717  0.4717  0.9091  0.9091  0.6042  0.6689

 Free energy of the ion-electron system (eV)
  ---------------------------------------------------
  alpha Z        PSCENC =        38.19945723
  Ewald energy   TEWEN  =      7005.02028753
  -Hartree energ DENC   =     -9618.02218961
  -exchange      EXHF   =         0.00000000
  -V(xc)+E(xc)   XCENC  =       -16.86642103
  PAW double counting   =      1660.74856428    -1560.59739740
  entropy T*S    EENTRO =         0.00000000
  eigenvalues    EBANDS =      -504.21051070
  atomic energy  EATOM  =      2955.96674742
  Solvation  Ediel_sol  =         0.00000000
  ---------------------------------------------------
  free energy    TOTEN  =       -39.76146229 eV

  energy without entropy =      -39.76146229  energy(sigma->0) =      -39.76146229


--------------------------------------------------------------------------------------------------------




--------------------------------------- Iteration      1(  16)  ---------------------------------------


    POTLOK:  cpu time   52.1760: real time   52.7274
    SETDIJ:  cpu time    0.0440: real time    0.0430
     EDDAV:  cpu time   28.9000: real time   29.1414
 BZINTS: Fermi energy: -3.799272; 60.000000 electrons
         Band energy:-504.498265;  BLOECHL correction: -0.019476
       DOS:  cpu time    0.0040: real time    0.0073
    CHARGE:  cpu time    2.0160: real time    2.0311
    MIXING:  cpu time    0.0520: real time    0.0522
    --------------------------------------------
      LOOP:  cpu time   83.1920: real time   84.0024

 eigenvalue-minimisations  :  1248
 total energy-change (2. order) : 0.5916003E-03  (-0.1217467E-02)
 number of electron      60.0000004 magnetization       7.9440957
 augmentation part        0.2185118 magnetization       4.8268582

 Broyden mixing:
  rms(total) = 0.12129E+00    rms(broyden)= 0.12129E+00
  rms(prec ) = 0.12485E+00
  weight for this iteration     100.00

 eigenvalues of (default mixing * dielectric matrix)
  average eigenvalue GAMMA=   1.1083
  2.7365  2.7365  0.8775  0.8775  1.0194  1.0194  0.4717  0.4717  0.6040  0.6886
  0.6886

 Free energy of the ion-electron system (eV)
  ---------------------------------------------------
  alpha Z        PSCENC =        38.19945723
  Ewald energy   TEWEN  =      7005.02028753
  -Hartree energ DENC   =     -9617.75011438
  -exchange      EXHF   =         0.00000000
  -V(xc)+E(xc)   XCENC  =       -16.88077308
  PAW double counting   =      1660.22610997    -1560.04432086
  entropy T*S    EENTRO =         0.00000000
  eigenvalues    EBANDS =      -504.49826451
  atomic energy  EATOM  =      2955.96674742
  Solvation  Ediel_sol  =         0.00000000
  ---------------------------------------------------
  free energy    TOTEN  =       -39.76087069 eV

  energy without entropy =      -39.76087069  energy(sigma->0) =      -39.76087069


--------------------------------------------------------------------------------------------------------




--------------------------------------- Iteration      1(  17)  ---------------------------------------


    POTLOK:  cpu time   51.3680: real time   52.7341
    SETDIJ:  cpu time    0.0480: real time    0.0500
     EDDAV:  cpu time   27.2640: real time   28.0440
 BZINTS: Fermi energy: -3.814902; 60.000000 electrons
         Band energy:-505.075561;  BLOECHL correction: -0.018803
       DOS:  cpu time    0.0040: real time    0.0068
    CHARGE:  cpu time    2.0080: real time    2.0352
    MIXING:  cpu time    0.0520: real time    0.0542
    --------------------------------------------
      LOOP:  cpu time   80.7440: real time   82.9242

 eigenvalue-minimisations  :  1200
 total energy-change (2. order) :-0.1439638E-03  (-0.6233151E-03)
 number of electron      60.0000004 magnetization       8.1205247
 augmentation part        0.2763548 magnetization       4.9954104

 Broyden mixing:
  rms(total) = 0.54720E-01    rms(broyden)= 0.54716E-01
  rms(prec ) = 0.55636E-01
  weight for this iteration     100.00

 eigenvalues of (default mixing * dielectric matrix)
  average eigenvalue GAMMA=   1.2846
  4.9218  2.6526  1.1730  1.1730  0.8684  0.8684  0.4717  0.4717  0.7862  0.7862
  0.6051  0.6371

 Free energy of the ion-electron system (eV)
  ---------------------------------------------------
  alpha Z        PSCENC =        38.19945723
  Ewald energy   TEWEN  =      7005.02028753
  -Hartree energ DENC   =     -9617.25357944
  -exchange      EXHF   =         0.00000000
  -V(xc)+E(xc)   XCENC  =       -16.79610639
  PAW double counting   =      1659.20520947    -1559.02746935
  entropy T*S    EENTRO =         0.00000000
  eigenvalues    EBANDS =      -505.07556113
  atomic energy  EATOM  =      2955.96674742
  Solvation  Ediel_sol  =         0.00000000
  ---------------------------------------------------
  free energy    TOTEN  =       -39.76101465 eV

  energy without entropy =      -39.76101465  energy(sigma->0) =      -39.76101465


--------------------------------------------------------------------------------------------------------




--------------------------------------- Iteration      1(  18)  ---------------------------------------


    POTLOK:  cpu time   51.9640: real time   52.3006
    SETDIJ:  cpu time    0.0480: real time    0.0482
     EDDAV:  cpu time   31.7600: real time   31.9765
 BZINTS: Fermi energy: -3.819894; 60.000000 electrons
         Band energy:-505.297690;  BLOECHL correction: -0.018921
       DOS:  cpu time    0.0040: real time    0.0074
    CHARGE:  cpu time    2.0480: real time    2.0493
    MIXING:  cpu time    0.0520: real time    0.0544
    --------------------------------------------
      LOOP:  cpu time   85.8760: real time   86.4364

 eigenvalue-minimisations  :  1392
 total energy-change (2. order) : 0.2967205E-03  (-0.3730554E-03)
 number of electron      60.0000004 magnetization       8.2006215
 augmentation part        0.2981631 magnetization       5.0648527

 Broyden mixing:
  rms(total) = 0.23587E-01    rms(broyden)= 0.23582E-01
  rms(prec ) = 0.23798E-01
  weight for this iteration     100.00

 eigenvalues of (default mixing * dielectric matrix)
  average eigenvalue GAMMA=   1.4283
  6.8529  2.5762  1.3432  1.3432  0.8685  0.8685  0.4717  0.4717  0.9219  0.9219
  0.6675  0.6675  0.5926

 Free energy of the ion-electron system (eV)
  ---------------------------------------------------
  alpha Z        PSCENC =        38.19945723
  Ewald energy   TEWEN  =      7005.02028753
  -Hartree energ DENC   =     -9617.09308808
  -exchange      EXHF   =         0.00000000
  -V(xc)+E(xc)   XCENC  =       -16.71741712
  PAW double counting   =      1658.78936906    -1558.62838385
  entropy T*S    EENTRO =         0.00000000
  eigenvalues    EBANDS =      -505.29769012
  atomic energy  EATOM  =      2955.96674742
  Solvation  Ediel_sol  =         0.00000000
  ---------------------------------------------------
  free energy    TOTEN  =       -39.76071793 eV

  energy without entropy =      -39.76071793  energy(sigma->0) =      -39.76071793


--------------------------------------------------------------------------------------------------------




--------------------------------------- Iteration      1(  19)  ---------------------------------------


    POTLOK:  cpu time   51.8800: real time   52.2893
    SETDIJ:  cpu time    0.0480: real time    0.0485
     EDDAV:  cpu time   33.3000: real time   33.7531
 BZINTS: Fermi energy: -3.823107; 60.000000 electrons
         Band energy:-505.441286;  BLOECHL correction: -0.018704
       DOS:  cpu time    0.0040: real time    0.0069
    CHARGE:  cpu time    2.0200: real time    2.0356
    MIXING:  cpu time    0.0840: real time    0.0852
    --------------------------------------------
      LOOP:  cpu time   87.3360: real time   88.2186

 eigenvalue-minimisations  :  1472
 total energy-change (2. order) : 0.1110628E-02  (-0.1350816E-03)
 number of electron      60.0000004 magnetization       8.2686824
 augmentation part        0.3195549 magnetization       5.1317080

 Broyden mixing:
  rms(total) = 0.10920E-01    rms(broyden)= 0.10917E-01
  rms(prec ) = 0.12009E-01
  weight for this iteration     100.00

 eigenvalues of (default mixing * dielectric matrix)
  average eigenvalue GAMMA=   1.6021
  9.2327  2.6512  1.4512  1.4512  0.8687  0.8687  0.4717  0.4717  1.1279  1.1279
  0.7845  0.6660  0.6660  0.5903

 Free energy of the ion-electron system (eV)
  ---------------------------------------------------
  alpha Z        PSCENC =        38.19945723
  Ewald energy   TEWEN  =      7005.02028753
  -Hartree energ DENC   =     -9616.97833224
  -exchange      EXHF   =         0.00000000
  -V(xc)+E(xc)   XCENC  =       -16.66144945
  PAW double counting   =      1658.53467428    -1558.39970616
  entropy T*S    EENTRO =         0.00000000
  eigenvalues    EBANDS =      -505.44128591
  atomic energy  EATOM  =      2955.96674742
  Solvation  Ediel_sol  =         0.00000000
  ---------------------------------------------------
  free energy    TOTEN  =       -39.75960730 eV

  energy without entropy =      -39.75960730  energy(sigma->0) =      -39.75960730


--------------------------------------------------------------------------------------------------------




--------------------------------------- Iteration      1(  20)  ---------------------------------------


    POTLOK:  cpu time   52.1080: real time   52.4015
    SETDIJ:  cpu time    0.0520: real time    0.0552
     EDDAV:  cpu time   22.2360: real time   22.9541
 BZINTS: Fermi energy: -3.823161; 60.000000 electrons
         Band energy:-505.431336;  BLOECHL correction: -0.018814
       DOS:  cpu time    0.0040: real time    0.0074
    CHARGE:  cpu time    2.0200: real time    2.0397
    MIXING:  cpu time    0.0600: real time    0.0589
    --------------------------------------------
      LOOP:  cpu time   76.4800: real time   77.5168

 eigenvalue-minimisations  :   944
 total energy-change (2. order) : 0.1445092E-02  (-0.4234680E-04)
 number of electron      60.0000004 magnetization       8.2719770
 augmentation part        0.3194798 magnetization       5.1321900

 Broyden mixing:
  rms(total) = 0.12260E-01    rms(broyden)= 0.12260E-01
  rms(prec ) = 0.13157E-01
  weight for this iteration     100.00

 eigenvalues of (default mixing * dielectric matrix)
  average eigenvalue GAMMA=   1.6282
  9.9123  2.6597  2.1648  0.8686  0.8686  1.2742  1.2742  0.4717  0.4717  0.9371
  0.9371  0.7018  0.6482  0.6482  0.5848

 Free energy of the ion-electron system (eV)
  ---------------------------------------------------
  alpha Z        PSCENC =        38.19945723
  Ewald energy   TEWEN  =      7005.02028753
  -Hartree energ DENC   =     -9616.99030187
  -exchange      EXHF   =         0.00000000
  -V(xc)+E(xc)   XCENC  =       -16.64225464
  PAW double counting   =      1658.52992946    -1558.41069103
  entropy T*S    EENTRO =         0.00000000
  eigenvalues    EBANDS =      -505.43133631
  atomic energy  EATOM  =      2955.96674742
  Solvation  Ediel_sol  =         0.00000000
  ---------------------------------------------------
  free energy    TOTEN  =       -39.75816221 eV

  energy without entropy =      -39.75816221  energy(sigma->0) =      -39.75816221


--------------------------------------------------------------------------------------------------------




--------------------------------------- Iteration      1(  21)  ---------------------------------------


    POTLOK:  cpu time   52.3560: real time   52.5199
    SETDIJ:  cpu time    0.0520: real time    0.0539
     EDDAV:  cpu time   19.8080: real time   20.0446
 BZINTS: Fermi energy: -3.822226; 60.000000 electrons
         Band energy:-505.406645;  BLOECHL correction: -0.018869
       DOS:  cpu time    0.0040: real time    0.0068
    CHARGE:  cpu time    1.9360: real time    2.0171
    MIXING:  cpu time    0.0520: real time    0.0533
    --------------------------------------------
      LOOP:  cpu time   74.2080: real time   74.6954

 eigenvalue-minimisations  :   784
 total energy-change (2. order) :-0.1035465E-03  (-0.4838077E-05)
 number of electron      60.0000004 magnetization       8.2661840
 augmentation part        0.3161374 magnetization       5.1269464

 Broyden mixing:
  rms(total) = 0.10130E-01    rms(broyden)= 0.10130E-01
  rms(prec ) = 0.10768E-01
  weight for this iteration     100.00

 eigenvalues of (default mixing * dielectric matrix)
  average eigenvalue GAMMA=   1.6229
  9.9756  2.5999  2.5999  0.8686  0.8686  1.2563  1.2563  0.4717  0.4717  1.0427
  1.0427  0.9061  0.6808  0.6808  0.5906  0.6543

 Free energy of the ion-electron system (eV)
  ---------------------------------------------------
  alpha Z        PSCENC =        38.19945723
  Ewald energy   TEWEN  =      7005.02028753
  -Hartree energ DENC   =     -9617.01325185
  -exchange      EXHF   =         0.00000000
  -V(xc)+E(xc)   XCENC  =       -16.63852530
  PAW double counting   =      1658.59957110    -1558.48590695
  entropy T*S    EENTRO =         0.00000000
  eigenvalues    EBANDS =      -505.40664493
  atomic energy  EATOM  =      2955.96674742
  Solvation  Ediel_sol  =         0.00000000
  ---------------------------------------------------
  free energy    TOTEN  =       -39.75826576 eV

  energy without entropy =      -39.75826576  energy(sigma->0) =      -39.75826576


--------------------------------------------------------------------------------------------------------




--------------------------------------- Iteration      1(  22)  ---------------------------------------


    POTLOK:  cpu time   51.5960: real time   51.9025
    SETDIJ:  cpu time    0.0520: real time    0.0510
     EDDAV:  cpu time   18.8960: real time   19.1346
 BZINTS: Fermi energy: -3.820915; 60.000000 electrons
         Band energy:-505.360558;  BLOECHL correction: -0.018939
       DOS:  cpu time    0.0040: real time    0.0065
    CHARGE:  cpu time    2.0040: real time    2.0180
    MIXING:  cpu time    0.0480: real time    0.0625
    --------------------------------------------
      LOOP:  cpu time   72.6000: real time   73.1752

 eigenvalue-minimisations  :   736
 total energy-change (2. order) :-0.2975567E-03  (-0.5368954E-05)
 number of electron      60.0000004 magnetization       8.2629088
 augmentation part        0.3110442 magnetization       5.1244351

 Broyden mixing:
  rms(total) = 0.52884E-02    rms(broyden)= 0.52881E-02
  rms(prec ) = 0.56252E-02
  weight for this iteration     100.00

 eigenvalues of (default mixing * dielectric matrix)
  average eigenvalue GAMMA=   1.6427
  9.9378  3.0602  2.6677  1.7607  0.8686  0.8686  1.2678  1.2678  0.4717  0.4717
  0.9835  0.9835  0.7253  0.7253  0.5876  0.6389  0.6389

 Free energy of the ion-electron system (eV)
  ---------------------------------------------------
  alpha Z        PSCENC =        38.19945723
  Ewald energy   TEWEN  =      7005.02028753
  -Hartree energ DENC   =     -9617.05663261
  -exchange      EXHF   =         0.00000000
  -V(xc)+E(xc)   XCENC  =       -16.64208516
  PAW double counting   =      1658.68114391    -1558.56692407
  entropy T*S    EENTRO =         0.00000000
  eigenvalues    EBANDS =      -505.36055757
  atomic energy  EATOM  =      2955.96674742
  Solvation  Ediel_sol  =         0.00000000
  ---------------------------------------------------
  free energy    TOTEN  =       -39.75856331 eV

  energy without entropy =      -39.75856331  energy(sigma->0) =      -39.75856331


--------------------------------------------------------------------------------------------------------




--------------------------------------- Iteration      1(  23)  ---------------------------------------


    POTLOK:  cpu time   52.1240: real time   52.3128
    SETDIJ:  cpu time    0.0480: real time    0.0480
     EDDAV:  cpu time   20.8560: real time   21.0315
 BZINTS: Fermi energy: -3.819974; 60.000000 electrons
         Band energy:-505.321073;  BLOECHL correction: -0.018996
       DOS:  cpu time    0.0040: real time    0.0071
    CHARGE:  cpu time    2.0040: real time    2.0246
    MIXING:  cpu time    0.0560: real time    0.0573
    --------------------------------------------
      LOOP:  cpu time   75.0920: real time   75.4813

 eigenvalue-minimisations  :   816
 total energy-change (2. order) :-0.1609685E-03  (-0.3691443E-05)
 number of electron      60.0000004 magnetization       8.2629862
 augmentation part        0.3071673 magnetization       5.1244103

 Broyden mixing:
  rms(total) = 0.15222E-02    rms(broyden)= 0.15215E-02
  rms(prec ) = 0.16606E-02
  weight for this iteration     100.00

 eigenvalues of (default mixing * dielectric matrix)
  average eigenvalue GAMMA=   1.6152
  9.9615  3.1037  2.6892  1.9358  1.3180  1.3180  0.8687  0.8687  0.4717  0.4717
  0.9853  0.9853  0.7852  0.7852  0.6561  0.6561  0.5914  0.6216

 Free energy of the ion-electron system (eV)
  ---------------------------------------------------
  alpha Z        PSCENC =        38.19945723
  Ewald energy   TEWEN  =      7005.02028753
  -Hartree energ DENC   =     -9617.09512602
  -exchange      EXHF   =         0.00000000
  -V(xc)+E(xc)   XCENC  =       -16.64551855
  PAW double counting   =      1658.73449310    -1558.61799179
  entropy T*S    EENTRO =         0.00000000
  eigenvalues    EBANDS =      -505.32107320
  atomic energy  EATOM  =      2955.96674742
  Solvation  Ediel_sol  =         0.00000000
  ---------------------------------------------------
  free energy    TOTEN  =       -39.75872428 eV

  energy without entropy =      -39.75872428  energy(sigma->0) =      -39.75872428


--------------------------------------------------------------------------------------------------------




--------------------------------------- Iteration      1(  24)  ---------------------------------------


    POTLOK:  cpu time   51.2600: real time   51.6141
    SETDIJ:  cpu time    0.0480: real time    0.0507
     EDDAV:  cpu time   17.0480: real time   17.2057
 BZINTS: Fermi energy: -3.819643; 60.000000 electrons
         Band energy:-505.304107;  BLOECHL correction: -0.019001
       DOS:  cpu time    0.0040: real time    0.0048
    CHARGE:  cpu time    2.0160: real time    2.0185
    MIXING:  cpu time    0.1040: real time    0.1016
    --------------------------------------------
      LOOP:  cpu time   70.4800: real time   70.9954

 eigenvalue-minimisations  :   640
 total energy-change (2. order) :-0.1264741E-03  (-0.1529215E-05)
 number of electron      60.0000004 magnetization       8.2632187
 augmentation part        0.3067880 magnetization       5.1246718

 Broyden mixing:
[...]
     34      -1.3092      0.00000
     35      -1.0292      0.00000
     36      -0.9102      0.00000
     37      -0.5902      0.00000
     38       0.6952      0.00000
     39       1.0559      0.00000
     40       1.4029      0.00000
     41       1.5448      0.00000
     42       1.9928      0.00000
     43       2.0260      0.00000
     44       2.3161      0.00000
     45       2.8041      0.00000
     46       3.1694      0.00000
     47       3.2662      0.00000
     48       3.5247      0.00000

 k-point     5 :      -0.4000    0.2000    0.0000
  band No.  band energies     occupation 
      1     -16.5348      1.00000
      2     -16.4878      1.00000
      3     -16.0570      1.00000
      4     -15.8744      1.00000
      5     -15.7787      1.00000
      6     -15.6161      1.00000
      7     -11.6907      1.00000
      8     -10.1004      1.00000
      9      -7.9299      1.00000
     10      -7.4168      1.00000
     11      -7.3847      1.00000
     12      -6.9114      1.00000
     13      -6.4954      1.00000
     14      -6.3907      1.00000
     15      -6.1953      1.00000
     16      -5.7350      1.00000
     17      -5.7263      1.00000
     18      -5.6881      1.00000
     19      -5.6436      1.00000
     20      -5.2941      1.00000
     21      -5.2556      1.00000
     22      -4.4350      1.00000
     23      -4.3643      1.00000
     24      -4.2372      1.00000
     25      -4.1133      1.00000
     26      -3.4025      1.00000
     27      -3.1171      1.00000
     28      -2.9950      1.00000
     29      -2.9424      1.00000
     30      -2.5850      0.00000
     31      -2.5595      0.00000
     32      -2.0497      0.00000
     33      -1.5281      0.00000
     34      -1.4592      0.00000
     35      -1.2966      0.00000
     36      -1.0354      0.00000
     37      -0.5147      0.00000
     38       0.5276      0.00000
     39       0.6567      0.00000
     40       1.2719      0.00000
     41       1.3200      0.00000
     42       1.4981      0.00000
     43       2.5921      0.00000
     44       2.6764      0.00000
     45       2.7665      0.00000
     46       2.7730      0.00000
     47       3.2919      0.00000
     48       3.7054      0.00000


--------------------------------------------------------------------------------------------------------


 soft charge-density along one line, spin component           1
         0         1         2         3         4         5         6         7         8         9
 total charge-density along one line

 soft charge-density along one line, spin component           2
         0         1         2         3         4         5         6         7         8         9
 total charge-density along one line

 pseudopotential strength for first ion, spin component:           1
-10.566  -0.097   0.000   0.000   0.000   0.785   0.029  -0.000
 -0.097 -10.824   0.000   0.000   0.000   0.029   0.861  -0.000
  0.000   0.000 -11.314   0.000   0.000  -0.000  -0.000   1.002
  0.000   0.000   0.000 -10.824   0.097  -0.000  -0.000  -0.000
  0.000   0.000   0.000   0.097 -10.566  -0.000  -0.000  -0.000
  0.785   0.029  -0.000  -0.000  -0.000   0.510  -0.009   0.000
  0.029   0.861  -0.000  -0.000  -0.000  -0.009   0.487   0.000
 -0.000  -0.000   1.002  -0.000  -0.000   0.000   0.000   0.447
 -0.000  -0.000  -0.000   0.861  -0.029   0.000   0.000   0.000
 -0.000  -0.000  -0.000  -0.029   0.785   0.000   0.000   0.000
 -0.000  -0.000   0.086  -0.000   0.000  -0.000  -0.000  -0.021
  0.000   0.000  -0.009   0.000  -0.000  -0.000  -0.000   0.002
  0.000   0.000   0.000  -0.000   0.001  -0.000  -0.000  -0.000
 -0.000  -0.000   0.000  -0.000  -0.000  -0.000   0.000   0.000
  0.001  -0.000   0.000   0.000  -0.000   0.000  -0.000  -0.000
 -0.000  -0.000  -0.000   0.000  -0.001   0.000   0.000   0.000
  0.000   0.000   0.000   0.000   0.000  -0.000  -0.000  -0.000
 -0.001   0.000  -0.000  -0.000   0.000   0.000  -0.000   0.000
 pseudopotential strength for first ion, spin component:           2
 -9.965  -0.039  -0.000  -0.000   0.000   0.605   0.012   0.000
 -0.039 -10.283  -0.000   0.000  -0.000   0.012   0.694   0.000
 -0.000  -0.000  -9.899   0.000   0.000   0.000   0.000   0.589
 -0.000   0.000   0.000 -10.283   0.039   0.000  -0.000  -0.000
  0.000  -0.000   0.000   0.039  -9.965  -0.000   0.000  -0.000
  0.605   0.012   0.000   0.000  -0.000   0.563  -0.005  -0.000
  0.012   0.694   0.000  -0.000   0.000  -0.005   0.539   0.000
  0.000   0.000   0.589  -0.000  -0.000  -0.000   0.000   0.566
  0.000  -0.000  -0.000   0.694  -0.012  -0.000   0.000   0.000
 -0.000   0.000  -0.000  -0.012   0.605   0.000  -0.000   0.000
 -0.000  -0.000   0.007  -0.000   0.000  -0.000  -0.000  -0.006
  0.000   0.000  -0.002   0.000  -0.000  -0.000  -0.000   0.001
  0.000   0.000   0.000  -0.000   0.002   0.000  -0.000  -0.000
 -0.000  -0.000   0.000  -0.000  -0.000  -0.000   0.000  -0.000
  0.002  -0.000   0.000   0.000  -0.000   0.000  -0.000  -0.000
 -0.000  -0.000  -0.000   0.000  -0.001   0.000   0.000   0.000
  0.000   0.000  -0.000   0.000   0.000  -0.000  -0.000   0.000
 -0.001   0.000  -0.000  -0.000   0.000   0.000  -0.000   0.000
 total augmentation occupancy for first ion, spin component:           1
  1.524  -0.360   0.000  -0.000  -0.000   0.108   0.210   0.000   0.000   0.000   0.000   0.000   0.000  -0.000   0.005  -0.000
 -0.360   1.402  -0.000  -0.000  -0.000   0.166   0.214   0.000   0.000   0.000   0.000   0.000   0.000   0.000   0.012  -0.000
  0.000  -0.000   1.149  -0.000  -0.000   0.000   0.000  -0.064   0.000  -0.000   0.025   0.053  -0.000  -0.000   0.000   0.000
 -0.000  -0.000  -0.000   1.402   0.360   0.000  -0.000   0.000   0.214  -0.166  -0.000  -0.000  -0.012   0.000   0.000   0.000
 -0.000  -0.000  -0.000   0.360   1.524  -0.000   0.000  -0.000  -0.210   0.108  -0.000  -0.000   0.005   0.000  -0.000  -0.000
  0.108   0.166   0.000   0.000  -0.000   0.113   0.053   0.000   0.000  -0.000   0.000  -0.000   0.000  -0.000   0.028  -0.000
  0.210   0.214   0.000  -0.000   0.000   0.053   0.181   0.000  -0.000   0.000  -0.000   0.000   0.000  -0.000  -0.007  -0.000
  0.000   0.000  -0.064   0.000  -0.000   0.000   0.000   0.115   0.000  -0.000   0.040  -0.022  -0.000  -0.000   0.000   0.000
  0.000   0.000   0.000   0.214  -0.210   0.000  -0.000   0.000   0.181  -0.053   0.000   0.000   0.007  -0.000   0.000  -0.001
  0.000   0.000  -0.000  -0.166   0.108  -0.000   0.000  -0.000  -0.053   0.113  -0.000   0.000   0.028   0.000  -0.000  -0.003
  0.000   0.000   0.025   0.000  -0.000   0.000  -0.000   0.040   0.000  -0.000   1.082  -0.256  -0.000   0.000  -0.000   0.000
  0.000  -0.000   0.053  -0.000  -0.000  -0.000   0.000  -0.022   0.000   0.000  -0.256   0.118   0.000  -0.000   0.000  -0.000
  0.000   0.000  -0.000  -0.012   0.005   0.000   0.000  -0.000   0.007   0.028  -0.000   0.000   0.186  -0.000  -0.000  -0.012
 -0.000   0.000  -0.000   0.000   0.000  -0.000  -0.000  -0.000  -0.000   0.000   0.000  -0.000  -0.000   0.197  -0.000   0.000
  0.005   0.012   0.000   0.000  -0.000   0.028  -0.007   0.000   0.000  -0.000   0.000   0.000  -0.000  -0.000   0.186  -0.000
 -0.000  -0.000   0.000   0.000  -0.000  -0.000  -0.000   0.000  -0.001  -0.003   0.000   0.000  -0.012   0.000  -0.000   0.001
  0.000   0.000   0.000  -0.000  -0.000   0.000   0.000   0.000  -0.000  -0.000  -0.000   0.000   0.000  -0.012   0.000  -0.000
 -0.000  -0.000  -0.000  -0.000   0.000  -0.003   0.001  -0.000  -0.000   0.000   0.000  -0.000   0.000   0.000  -0.012  -0.000
 total augmentation occupancy for first ion, spin component:           2
  0.102   0.040   0.000  -0.000  -0.000  -0.052   0.000  -0.000   0.000  -0.000  -0.000   0.000  -0.000   0.000   0.005   0.000
  0.040   0.054   0.000  -0.000  -0.000   0.011  -0.043   0.000  -0.000   0.000   0.000  -0.000  -0.000   0.000  -0.003   0.000
  0.000   0.000   0.785   0.000  -0.000  -0.000   0.000  -0.194   0.000   0.000  -0.014   0.061  -0.000   0.000   0.000  -0.000
 -0.000  -0.000   0.000   0.054  -0.040   0.000   0.000   0.000  -0.043  -0.011   0.000  -0.000   0.003  -0.000  -0.000  -0.000
 -0.000  -0.000  -0.000  -0.040   0.102   0.000   0.000   0.000  -0.000  -0.052   0.000  -0.000   0.005  -0.000   0.000   0.000
 -0.052   0.011  -0.000   0.000   0.000  -0.008  -0.016   0.000  -0.000  -0.000   0.000  -0.000  -0.000  -0.000  -0.000   0.000
  0.000  -0.043   0.000   0.000   0.000  -0.016  -0.019  -0.000   0.000  -0.000  -0.000   0.000  -0.000  -0.000   0.001   0.000
 -0.000   0.000  -0.194   0.000   0.000   0.000  -0.000   0.038  -0.000  -0.000   0.010  -0.010   0.000  -0.000  -0.000  -0.000
  0.000  -0.000   0.000  -0.043  -0.000  -0.000   0.000  -0.000  -0.019   0.016  -0.000   0.000  -0.001  -0.000  -0.000   0.000
 -0.000   0.000   0.000  -0.011  -0.052  -0.000  -0.000  -0.000   0.016  -0.008  -0.000   0.000  -0.000   0.000   0.000   0.000
 -0.000   0.000  -0.014   0.000   0.000   0.000  -0.000   0.010  -0.000  -0.000   0.051   0.032   0.000  -0.000   0.000   0.000
  0.000  -0.000   0.061  -0.000  -0.000  -0.000   0.000  -0.010   0.000   0.000   0.032  -0.012   0.000   0.000   0.000   0.000
 -0.000  -0.000  -0.000   0.003   0.005  -0.000  -0.000   0.000  -0.001  -0.000   0.000   0.000   0.007  -0.000  -0.000   0.001
  0.000   0.000   0.000  -0.000  -0.000  -0.000  -0.000  -0.000  -0.000   0.000  -0.000   0.000  -0.000   0.007  -0.000  -0.000
  0.005  -0.003   0.000  -0.000   0.000  -0.000   0.001  -0.000  -0.000   0.000   0.000   0.000  -0.000  -0.000   0.007   0.000
  0.000   0.000  -0.000  -0.000   0.000   0.000   0.000  -0.000   0.000   0.000   0.000   0.000   0.001  -0.000   0.000  -0.000
 -0.000   0.000  -0.000   0.000   0.000  -0.000   0.000  -0.000  -0.000   0.000   0.000  -0.000  -0.000   0.001  -0.000   0.000
  0.000   0.000   0.000   0.000  -0.000   0.000  -0.000   0.000   0.000  -0.000   0.000   0.000  -0.000  -0.000   0.001   0.000


------------------------ aborting loop because EDIFF is reached ----------------------------------------





 total charge     

# of ion       s       p       d       tot
------------------------------------------
    1        0.370   0.462   6.318   7.150
    2        0.370   0.462   6.318   7.150
    3        1.161   1.142   0.090   2.393
    4        1.161   1.142   0.090   2.393
    5        1.487   2.274   0.047   3.808
    6        1.483   2.286   0.046   3.815
    7        1.486   2.275   0.047   3.809
    8        1.487   2.274   0.047   3.808
    9        1.483   2.286   0.046   3.815
   10        1.486   2.275   0.047   3.809
--------------------------------------------------
tot         11.974  16.879  13.096  41.949



 magnetization (x)

# of ion       s       p       d       tot
------------------------------------------
    1        0.011   0.013   1.091   1.115
    2        0.011   0.013   1.091   1.115
    3       -0.004   0.007  -0.000   0.002
    4       -0.004   0.007  -0.000   0.002
    5       -0.001  -0.041  -0.000  -0.043
    6       -0.001  -0.022  -0.000  -0.023
    7       -0.001  -0.037  -0.000  -0.038
    8       -0.001  -0.041  -0.000  -0.043
    9       -0.001  -0.022  -0.000  -0.023
   10       -0.001  -0.037  -0.000  -0.038
--------------------------------------------------
tot          0.007  -0.160   2.179   2.025

    CHARGE:  cpu time    2.0520: real time    2.0531
    FORLOC:  cpu time    0.0560: real time    0.0555
    FORNL :  cpu time    6.8200: real time    6.8474
    STRESS:  cpu time   20.3640: real time   20.4429
    FORCOR:  cpu time   51.2800: real time   51.4945
    FORHAR:  cpu time    0.3200: real time    0.3209
    MIXING:  cpu time    0.0440: real time    0.0423
    OFIELD:  cpu time    0.0000: real time    0.0000

  FORCE on cell =-STRESS in cart. coord.  units (eV):
  Direction    XX          YY          ZZ          XY          YZ          ZX
  --------------------------------------------------------------------------------------
  Alpha Z    46.05116    46.05116    46.05116
  Ewald   11240.61383 11240.61176-13071.49415    -0.00200    -0.00049    -0.00088
  Hartree 11718.45136 11718.45218-11370.93556    -0.00031     0.00006     0.00010
  E(xc)    -243.13943  -243.13944  -241.94288     0.00003     0.00000     0.00001
  Local  -23673.02837-23673.02832 23707.17824     0.00187     0.00025     0.00047
  n-local   230.74544   230.63100   238.08457    -0.01255     0.35737     0.38383
  augment    56.80330    56.80341    47.17712     0.00003     0.00004     0.00004
  Kinetic   625.47279   621.97909   645.91541    -2.35232     1.58124     1.88920
  Fock        0.00000     0.00000     0.00000     0.00000     0.00000     0.00000
  -------------------------------------------------------------------------------------
  Total       0.16547     0.16547     0.03391     0.00000     0.00000    -0.00000
  in kB       0.32988     0.32988     0.06761     0.00000     0.00000    -0.00000
  external pressure =        0.24 kB  Pullay stress =        0.00 kB


 VOLUME and BASIS-vectors are now :
 -----------------------------------------------------------------------------
  energy-cutoff  :      520.00
  volume of cell :      803.65
      direct lattice vectors                 reciprocal lattice vectors
     6.299414485 -0.000000714 -0.000000000     0.158744902 -0.091651430  0.000000000
     3.149707496  5.455452349 -0.000000000     0.000000021  0.183302845  0.000000000
    -0.000000000 -0.000000000 23.384898201     0.000000000  0.000000000  0.042762641

  length of vectors
     6.299414485  6.299414072 23.384898201     0.183302833  0.183302845  0.042762641


 FORCES acting on ions
    electron-ion (+dipol)            ewald-force                    non-local-force                 convergence-correction
 -----------------------------------------------------------------------------------------------
   -.590E-04 -.491E-04 -.353E+00   0.576E-03 0.347E-03 0.354E+00   0.845E-20 0.694E-17 -.461E-02   0.160E-06 0.161E-06 0.354E-03
   0.590E-04 0.491E-04 0.353E+00   -.576E-03 -.347E-03 -.354E+00   0.173E-17 -.348E-17 0.461E-02   -.160E-06 -.161E-06 -.354E-03
   -.302E-04 -.168E-04 0.234E+03   -.175E-03 -.978E-04 -.232E+03   0.290E-16 0.135E-16 -.254E+01   0.280E-08 0.163E-07 -.412E-02
   0.302E-04 0.168E-04 -.234E+03   0.175E-03 0.978E-04 0.232E+03   -.290E-16 -.828E-17 0.254E+01   -.280E-08 -.163E-07 0.412E-02
   -.268E+02 0.582E-01 -.469E+03   0.245E+02 -.609E-01 0.472E+03   0.233E+01 0.174E-02 -.243E+01   0.183E-02 -.433E-05 0.112E-01
   0.135E+02 0.232E+02 -.469E+03   -.123E+02 -.212E+02 0.472E+03   -.116E+01 -.202E+01 -.243E+01   -.917E-03 -.158E-02 0.112E-01
   0.134E+02 -.233E+02 -.469E+03   -.122E+02 0.212E+02 0.472E+03   -.117E+01 0.202E+01 -.243E+01   -.910E-03 0.158E-02 0.112E-01
   0.268E+02 -.582E-01 0.469E+03   -.245E+02 0.609E-01 -.472E+03   -.233E+01 -.174E-02 0.243E+01   -.183E-02 0.433E-05 -.112E-01
   -.135E+02 -.232E+02 0.469E+03   0.123E+02 0.212E+02 -.472E+03   0.116E+01 0.202E+01 0.243E+01   0.917E-03 0.158E-02 -.112E-01
   -.134E+02 0.233E+02 0.469E+03   0.122E+02 -.212E+02 -.472E+03   0.117E+01 -.202E+01 0.243E+01   0.910E-03 -.158E-02 -.112E-01
 -----------------------------------------------------------------------------------------------
   0.479E-10 0.196E-09 -.269E-09   -.160E-13 0.355E-14 0.114E-12   0.000E+00 0.000E+00 0.000E+00   0.423E-12 0.320E-13 0.372E-10


 POSITION                                       TOTAL-FORCE (eV/Angst)
 -----------------------------------------------------------------------------------
      3.14970      1.81848     11.69342        -0.000000      0.000000     -0.004189
      6.29942      3.63697     11.69147        -0.000000     -0.000000      0.004189
     -0.00000     -0.00000     10.48149        -0.000000     -0.000000      0.126102
     -0.00000     -0.00000     12.90341         0.000000      0.000000     -0.126102
      3.87417     -0.00028     13.18298        -0.023490     -0.000207      0.018175
      1.21238      2.10047     13.18298         0.011566      0.020447      0.018175
      4.36258      3.35527     13.18298         0.011924     -0.020240      0.018175
      2.42525      0.00028     10.20191         0.023490      0.000207     -0.018175
      1.93732      3.35498     10.20191        -0.011566     -0.020447     -0.018175
      5.08654      2.10018     10.20191        -0.011924      0.020240     -0.018175
 -----------------------------------------------------------------------------------
    total drift:                                0.000000      0.000000     -0.000000


--------------------------------------------------------------------------------------------------------



  FREE ENERGIE OF THE ION-ELECTRON SYSTEM (eV)
  ---------------------------------------------------
  free  energy   TOTEN  =       -42.41858314 eV

  energy  without entropy=      -42.41858314  energy(sigma->0) =      -42.41858314

 d Force = 0.3137530E-03[ 0.341E-03, 0.286E-03]  d Energy = 0.4255051E-02-0.394E-02
 d Force = 0.9453939E+01[ 0.949E+01, 0.941E+01]  d Ewald  =-0.9209483E+02 0.102E+03


--------------------------------------------------------------------------------------------------------


    POTLOK:  cpu time   51.5560: real time   51.6815


--------------------------------------------------------------------------------------------------------




--------------------------------------------------------------------------------------------------------


  
 reached required accuracy - stopping structural energy minimisation
     LOOP+:  cpu time  605.0320: real time  609.1599
    4ORBIT:  cpu time    0.0000: real time    0.0000



 total charge     

# of ion       s       p       d       tot
------------------------------------------
    1        0.370   0.462   6.318   7.150
    2        0.370   0.462   6.318   7.150
    3        1.161   1.142   0.090   2.393
    4        1.161   1.142   0.090   2.393
    5        1.487   2.274   0.047   3.808
    6        1.483   2.286   0.046   3.815
    7        1.486   2.275   0.047   3.809
    8        1.487   2.274   0.047   3.808
    9        1.483   2.286   0.046   3.815
   10        1.486   2.275   0.047   3.809
--------------------------------------------------
tot         11.974  16.879  13.096  41.949



 magnetization (x)

# of ion       s       p       d       tot
------------------------------------------
    1        0.011   0.013   1.091   1.115
    2        0.011   0.013   1.091   1.115
    3       -0.004   0.007  -0.000   0.002
    4       -0.004   0.007  -0.000   0.002
    5       -0.001  -0.041  -0.000  -0.043
    6       -0.001  -0.022  -0.000  -0.023
    7       -0.001  -0.037  -0.000  -0.038
    8       -0.001  -0.041  -0.000  -0.043
    9       -0.001  -0.022  -0.000  -0.023
   10       -0.001  -0.037  -0.000  -0.038
--------------------------------------------------
tot          0.007  -0.160   2.179   2.025

 BZINTS: Fermi energy: -2.805465; 60.000000 electrons
         Band energy:-472.481999;  BLOECHL correction:  0.000000

 total amount of memory used by VASP MPI-rank0   130141. kBytes
=======================================================================

   base      :      30000. kBytes
   nonlr-proj:       9831. kBytes
   fftplans  :      11247. kBytes
   grid      :      66142. kBytes
   one-center:        311. kBytes
   wavefun   :      12610. kBytes

  
  
 General timing and accounting informations for this job:
 ========================================================
  
                  Total CPU time used (sec):    19070.104
                            User time (sec):    18552.860
                          System time (sec):      517.244
                         Elapsed time (sec):    19253.148
  
                   Maximum memory used (kb):      387240.
                   Average memory used (kb):           0.
  
                          Minor page faults:     17527336
                          Major page faults:           11
                 Voluntary context switches:         1070
