 vasp.5.4.4.18Apr17-6-g9f103f2a35 (build May  1 2020 15:48:39) complex           
 executed on             LinuxGNU date 2020.07.07  20:45:20
 running on   16 total cores
 distrk:  each k-point on   16 cores,    1 groups
 distr:  one band on NCORES_PER_BAND=   1 cores,   16 groups


--------------------------------------------------------------------------------------------------------


 INCAR:
 POTCAR:   PAW_PBE Fe 06Sep2000                   
 POTCAR:    PAW_PBE P 17Jan2003                   
 POTCAR:    PAW_PBE S 17Jan2003                   

 ----------------------------------------------------------------------------- 
|                                                                             |
|           W    W    AA    RRRRR   N    N  II  N    N   GGGG   !!!           |
|           W    W   A  A   R    R  NN   N  II  NN   N  G    G  !!!           |
|           W    W  A    A  R    R  N N  N  II  N N  N  G       !!!           |
|           W WW W  AAAAAA  RRRRR   N  N N  II  N  N N  G  GGG   !            |
|           WW  WW  A    A  R   R   N   NN  II  N   NN  G    G                |
|           W    W  A    A  R    R  N    N  II  N    N   GGGG   !!!           |
|                                                                             |
|      For optimal performance we recommend to set                            |
|        NCORE= 4 - approx SQRT( number of cores)                             |
|      NCORE specifies how many cores store one orbital (NPAR=cpu/NCORE).     |
|      This setting can  greatly improve the performance of VASP for DFT.     |
|      The default,   NCORE=1            might be grossly inefficient         |
|      on modern multi-core architectures or massively parallel machines.     |
|      Do your own testing !!!!                                               |
|      Unfortunately you need to use the default for GW and RPA calculations. |
|      (for HF NCORE is supported but not extensively tested yet)             |
|                                                                             |
 ----------------------------------------------------------------------------- 


 ----------------------------------------------------------------------------- 
|                                                                             |
|  ADVICE TO THIS USER RUNNING 'VASP/VAMP'   (HEAR YOUR MASTER'S VOICE ...):  |
|                                                                             |
|      You have switched on vdW-DFT.                                          |
|      This routine was written and supplied by Jiri Klimes.                  |
|      We recommed that you carefully read and cite the following             |
|      publication                                                            |
|      J. Klimes, D.R. Bowler, A. Michelides                                  |
|        J. Phys.: Cond Matt. 22 022201 (2010)                                |
|      J. Klimes, D.R. Bowler, A. Michelides                                  |
|        Phys. Rev. B. 83, 195131 (2011)                                      |
|      and references therein.                                                |
|                                                                             |
 ----------------------------------------------------------------------------- 

 POTCAR:   PAW_PBE Fe 06Sep2000                   
   VRHFIN =Fe:  d7 s1                                                           
   LEXCH  = PE                                                                  
   EATOM  =   594.4687 eV,   43.6922 Ry                                         
                                                                                
   TITEL  = PAW_PBE Fe 06Sep2000                                                
   LULTRA =        F    use ultrasoft PP ?                                      
   IUNSCR =        1    unscreen: 0-lin 1-nonlin 2-no                           
   RPACOR =    2.000    partial core radius                                     
   POMASS =   55.847; ZVAL   =    8.000    mass and valenz                      
   RCORE  =    2.300    outmost cutoff radius                                   
   RWIGS  =    2.460; RWIGS  =    1.302    wigner-seitz radius (au A)           
   ENMAX  =  267.883; ENMIN  =  200.912 eV                                      
   RCLOC  =    1.701    cutoff for local pot                                    
   LCOR   =        T    correct aug charges                                     
   LPAW   =        T    paw PP                                                  
   EAUG   =  511.368                                                            
   DEXC   =    -.022                                                            
   RMAX   =    2.817    core radius for proj-oper                               
   RAUG   =    1.300    factor for augmentation sphere                          
   RDEP   =    2.442    radius for radial grids                                 
   QCUT   =   -4.437; QGAM   =    8.874    optimization parameters              
                                                                                
   Description                                                                  
     l     E      TYP  RCUT    TYP  RCUT                                        
     2   .000     23  2.300                                                     
     2   .000     23  2.300                                                     
     0   .000     23  2.300                                                     
     0   .000     23  2.300                                                     
     1  -.200     23  2.300                                                     
     1   .000     23  2.300                                                     
     3   .000      7   .000                                                     
  local pseudopotential read in
  partial core-charges read in
  atomic valenz-charges read in
  non local Contribution for L=           2  read in
    real space projection operators read in
  non local Contribution for L=           2  read in
    real space projection operators read in
  non local Contribution for L=           0  read in
    real space projection operators read in
  non local Contribution for L=           0  read in
    real space projection operators read in
  non local Contribution for L=           1  read in
    real space projection operators read in
  non local Contribution for L=           1  read in
    real space projection operators read in
    PAW grid and wavefunctions read in

   number of l-projection  operators is LMAX  =           6
   number of lm-projection operators is LMMAX =          18

 POTCAR:    PAW_PBE P 17Jan2003                   
   VRHFIN =P : s2p3                                                             
   LEXCH  = PE                                                                  
   EATOM  =   176.0430 eV,   12.9388 Ry                                         
                                                                                
   TITEL  = PAW_PBE P 17Jan2003                                                 
   LULTRA =        F    use ultrasoft PP ?                                      
   IUNSCR =        1    unscreen: 0-lin 1-nonlin 2-no                           
   RPACOR =    1.500    partial core radius                                     
   POMASS =   30.974; ZVAL   =    5.000    mass and valenz                      
   RCORE  =    1.900    outmost cutoff radius                                   
   RWIGS  =    2.330; RWIGS  =    1.233    wigner-seitz radius (au A)           
   ENMAX  =  270.000; ENMIN  =  191.280 eV                                      
   ICORE  =        2    local potential                                         
   LCOR   =        T    correct aug charges                                     
   LPAW   =        T    paw PP                                                  
   EAUG   =  342.924                                                            
   DEXC   =    -.002                                                            
   RMAX   =    2.887    core radius for proj-oper                               
   RAUG   =    1.300    factor for augmentation sphere                          
   RDEP   =    1.931    radius for radial grids                                 
   QCUT   =   -4.330; QGAM   =    8.659    optimization parameters              
                                                                                
   Description                                                                  
     l     E      TYP  RCUT    TYP  RCUT                                        
     0   .000     23  1.900                                                     
     0   .000     23  1.900                                                     
     1   .000     23  1.900                                                     
     1   .000     23  1.900                                                     
     2   .000     23  1.900                                                     
  local pseudopotential read in
  partial core-charges read in
  atomic valenz-charges read in
  non local Contribution for L=           0  read in
    real space projection operators read in
  non local Contribution for L=           0  read in
    real space projection operators read in
  non local Contribution for L=           1  read in
    real space projection operators read in
  non local Contribution for L=           1  read in
    real space projection operators read in
    PAW grid and wavefunctions read in

   number of l-projection  operators is LMAX  =           4
   number of lm-projection operators is LMMAX =           8

 POTCAR:    PAW_PBE S 17Jan2003                   
   VRHFIN =S : s2p4                                                             
   LEXCH  = PE                                                                  
   EATOM  =   276.8230 eV,   20.3459 Ry                                         
                                                                                
   TITEL  = PAW_PBE S 17Jan2003                                                 
   LULTRA =        F    use ultrasoft PP ?                                      
   IUNSCR =        1    unscreen: 0-lin 1-nonlin 2-no                           
   RPACOR =    1.500    partial core radius                                     
   POMASS =   32.066; ZVAL   =    6.000    mass and valenz                      
   RCORE  =    1.900    outmost cutoff radius                                   
   RWIGS  =    2.200; RWIGS  =    1.164    wigner-seitz radius (au A)           
   ENMAX  =  280.000; ENMIN  =  194.016 eV                                      
   ICORE  =        2    local potential                                         
   LCOR   =        T    correct aug charges                                     
   LPAW   =        T    paw PP                                                  
   EAUG   =  335.092                                                            
   DEXC   =     .000                                                            
   RMAX   =    2.867    core radius for proj-oper                               
   RAUG   =    1.300    factor for augmentation sphere                          
   RDEP   =    1.954    radius for radial grids                                 
   QCUT   =   -4.360; QGAM   =    8.721    optimization parameters              
                                                                                
   Description                                                                  
     l     E      TYP  RCUT    TYP  RCUT                                        
     0   .000     23  1.900                                                     
     0   .000     23  1.900                                                     
     1   .000     23  1.900                                                     
     1   .000     23  1.900                                                     
     2   .000     23  1.900                                                     
  local pseudopotential read in
  partial core-charges read in
  atomic valenz-charges read in
  non local Contribution for L=           0  read in
    real space projection operators read in
  non local Contribution for L=           0  read in
    real space projection operators read in
  non local Contribution for L=           1  read in
    real space projection operators read in
  non local Contribution for L=           1  read in
    real space projection operators read in
    PAW grid and wavefunctions read in

   number of l-projection  operators is LMAX  =           4
   number of lm-projection operators is LMMAX =           8

 Optimization of the real space projectors (new method)

 maximal supplied QI-value         = 16.25
 optimisation between [QCUT,QGAM] = [ 11.54, 23.24] = [ 37.28,151.24] Ry 
 Optimized for a Real-space Cutoff    1.53 Angstroem

   l    n(q)    QCUT    max X(q) W(low)/X(q) W(high)/X(q)  e(spline) 
   2     10    11.539     4.378    0.86E-05    0.15E-04    0.46E-07
   2     10    11.539    23.237    0.11E-03    0.14E-03    0.22E-06
   0     11    11.539    17.641    0.19E-04    0.14E-05    0.18E-07
   0     11    11.539    50.908    0.43E-04    0.16E-04    0.30E-06
   1     10    11.539     6.148    0.11E-04    0.38E-05    0.26E-07
   1     10    11.539     8.345    0.44E-04    0.25E-04    0.11E-06
 Optimization of the real space projectors (new method)

 maximal supplied QI-value         = 19.84
 optimisation between [QCUT,QGAM] = [ 11.51, 23.22] = [ 37.09,150.92] Ry 
 Optimized for a Real-space Cutoff    1.21 Angstroem

   l    n(q)    QCUT    max X(q) W(low)/X(q) W(high)/X(q)  e(spline) 
   0      8    11.508     6.651    0.19E-04    0.31E-05    0.49E-08
   0      8    11.508    90.285    0.95E-04    0.17E-03    0.51E-07
   1      8    11.508     4.328    0.14E-04    0.32E-04    0.22E-07
   1      8    11.508    54.583    0.16E-03    0.71E-04    0.89E-07
 Optimization of the real space projectors (new method)

 maximal supplied QI-value         = 19.84
 optimisation between [QCUT,QGAM] = [ 11.51, 23.22] = [ 37.09,150.92] Ry 
 Optimized for a Real-space Cutoff    1.21 Angstroem

   l    n(q)    QCUT    max X(q) W(low)/X(q) W(high)/X(q)  e(spline) 
   0      8    11.508     5.487    0.18E-04    0.22E-05    0.47E-08
   0      8    11.508    85.627    0.96E-04    0.18E-03    0.54E-07
   1      8    11.508     3.530    0.17E-04    0.28E-04    0.21E-07
   1      8    11.508    42.714    0.18E-03    0.63E-04    0.92E-07

 ----------------------------------------------------------------------------- 
|                                                                             |
|  ADVICE TO THIS USER RUNNING 'VASP/VAMP'   (HEAR YOUR MASTER'S VOICE ...):  |
|                                                                             |
|      You enforced a specific xc-type in the INCAR file,                     |
|      a different type was found on the POTCAR file                          |
|          I HOPE YOU KNOW, WHAT YOU ARE  DOING                               |
|                                                                             |
 ----------------------------------------------------------------------------- 

 PAW_PBE Fe 06Sep2000                   :
 energy of atom  1       EATOM= -594.4687
 kinetic energy error for atom=    0.0026 (will be added to EATOM!!)
  PAW_PBE P 17Jan2003                   :
 energy of atom  2       EATOM= -176.0430
 kinetic energy error for atom=    0.0011 (will be added to EATOM!!)
  PAW_PBE S 17Jan2003                   :
 energy of atom  3       EATOM= -276.8230
 kinetic energy error for atom=    0.0016 (will be added to EATOM!!)


 POSCAR: Fe2 P2 S6                               
  positions in direct lattice
  velocities in cartesian coordinates
  No initial velocities read in
 exchange correlation table for  LEXCH =       42
   RHO(1)=    0.500       N(1)  =     2000
   RHO(2)=  100.500       N(2)  =     4000



--------------------------------------------------------------------------------------------------------


 ion  position               nearest neighbor table
   1  0.333  0.333  0.500-   6 2.78   5 2.78   7 2.78   8 2.78  10 2.78   9 2.78
   2  0.667  0.667  0.500-   9 2.78   8 2.78  10 2.78   5 2.78   7 2.78   6 2.78
   3  0.000  0.000  0.448-   4 2.43   8 2.63  10 2.63   9 2.63
   4  0.000  0.000  0.552-   3 2.43   5 2.63   7 2.63   6 2.63
   5  0.626  0.000  0.574-   4 2.63   1 2.78   2 2.78
   6  0.000  0.373  0.574-   4 2.63   1 2.78   2 2.78
   7  0.373  0.626  0.574-   4 2.63   1 2.78   2 2.78
   8  0.374  1.000  0.426-   3 2.63   2 2.78   1 2.78
   9  1.000  0.627  0.426-   3 2.63   2 2.78   1 2.78
  10  0.627  0.374  0.426-   3 2.63   2 2.78   1 2.78

  LATTYP: Found a hexagonal cell.
 ALAT       =     6.9077769333
 C/A-ratio  =     3.3939410937
  
  Lattice vectors:
  
 A1 = (   3.4538890000,  -5.9823100000,   0.0000000000)
 A2 = (  -6.9077770000,   0.0000000000,   0.0000000000)
 A3 = (   0.0000000000,   0.0000000000, -23.4445880000)


Analysis of symmetry for initial positions (statically):
=====================================================================
 Subroutine PRICEL returns:
 Original cell was already a primitive cell.
 

 Routine SETGRP: Setting up the symmetry group for a 
 hexagonal supercell.


 Subroutine GETGRP returns: Found  6 space group operations
 (whereof  6 operations were pure point group operations)
 out of a pool of 24 trial point group operations.


The static configuration has the point symmetry S_6 .


Analysis of symmetry for dynamics (positions and initial velocities):
=====================================================================
 Subroutine PRICEL returns:
 Original cell was already a primitive cell.
 

 Routine SETGRP: Setting up the symmetry group for a 
 hexagonal supercell.


 Subroutine GETGRP returns: Found  6 space group operations
 (whereof  6 operations were pure point group operations)
 out of a pool of 24 trial point group operations.


The dynamic configuration has the point symmetry S_6 .


Analysis of constrained symmetry for selective dynamics:
=====================================================================
 Subroutine PRICEL returns:
 Original cell was already a primitive cell.
 

 Routine SETGRP: Setting up the symmetry group for a 
 hexagonal supercell.


 Subroutine GETGRP returns: Found  6 space group operations
 (whereof  6 operations were pure point group operations)
 out of a pool of 24 trial point group operations.


The constrained configuration has the point symmetry S_6 .


Analysis of structural, dynamic, and magnetic symmetry:
=====================================================================
 Subroutine PRICEL returns:
 Original cell was already a primitive cell.
 

 Routine SETGRP: Setting up the symmetry group for a 
 hexagonal supercell.


 Subroutine GETGRP returns: Found  6 space group operations
 (whereof  6 operations were pure point group operations)
 out of a pool of 24 trial point group operations.


The magnetic configuration has the point symmetry S_6 .


 Subroutine INISYM returns: Found  6 space group operations
 (whereof  6 operations are pure point group operations),
 and found     1 'primitive' translations



 KPOINTS: Kpoints from vasprun.xml                

Automatic generation of k-mesh.
Space group operators:
 irot       det(A)        alpha          n_x          n_y          n_z        tau_x        tau_y        tau_z
    1     1.000000     0.000000     1.000000     0.000000     0.000000     0.000000     0.000000     0.000000
    2    -1.000000     0.000000     1.000000     0.000000     0.000000     0.000000     0.000000     0.000000
    3     1.000000   120.000000     0.000000     0.000000     1.000000     0.000000     0.000000     0.000000
    4    -1.000000   120.000000     0.000000     0.000000     1.000000     0.000000     0.000000     0.000000
    5     1.000000   120.000000     0.000000     0.000000    -1.000000     0.000000     0.000000     0.000000
    6    -1.000000   120.000000     0.000000     0.000000    -1.000000     0.000000     0.000000     0.000000
 
 Subroutine IBZKPT returns following result:
 ===========================================
 
 Found      5 irreducible k-points:
 
 Following reciprocal coordinates:
            Coordinates               Weight
  0.000000  0.000000  0.000000      1.000000
  0.200000  0.000000  0.000000      6.000000
  0.400000  0.000000  0.000000      6.000000
  0.400000  0.200000  0.000000      6.000000
 -0.400000  0.200000  0.000000      6.000000
 
 Following cartesian coordinates:
            Coordinates               Weight
  0.000000  0.000000  0.000000      1.000000
  0.028953 -0.016716  0.000000      6.000000
  0.057906 -0.033432  0.000000      6.000000
  0.057906  0.000000  0.000000      6.000000
 -0.057906  0.066864  0.000000      6.000000
 
 TETIRR: Found     15 inequivalent tetrahedra from      150


--------------------------------------------------------------------------------------------------------




 Dimension of arrays:
   k-points           NKPTS =      5   k-points in BZ     NKDIM =      5   number of bands    NBANDS=     48
   number of dos      NEDOS =    301   number of ions     NIONS =     10
   non local maximal  LDIM  =      6   non local SUM 2l+1 LMDIM =     18
   total plane-waves  NPLWV = 524880
   max r-space proj   IRMAX =   8238   max aug-charges    IRDMAX=  19496
   dimension x,y,z NGX =    54 NGY =   54 NGZ =  180
   dimension x,y,z NGXF=   108 NGYF=  108 NGZF=  360
   support grid    NGXF=   108 NGYF=  108 NGZF=  360
   ions per type =               2   2   6
   NGX,Y,Z   is equivalent  to a cutoff of  13.00, 13.00, 12.76 a.u.
   NGXF,Y,Z  is equivalent  to a cutoff of  25.99, 25.99, 25.53 a.u.

 SYSTEM =  unknown system                          
 POSCAR =  Fe2 P2 S6                               

 Startparameter for this run:
   NWRITE =      2    write-flag & timer
   PREC   = accura    normal or accurate (medium, high low for compatibility)
   ISTART =      0    job   : 0-new  1-cont  2-samecut
   ICHARG =      2    charge: 1-file 2-atom 10-const
   ISPIN  =      2    spin polarized calculation?
   LNONCOLLINEAR =      F non collinear calculations
   LSORBIT =      F    spin-orbit coupling
   INIWAV =      1    electr: 0-lowe 1-rand  2-diag
   LASPH  =      F    aspherical Exc in radial PAW
   METAGGA=      F    non-selfconsistent MetaGGA calc.

 Electronic Relaxation 1
   ENCUT  =  520.0 eV  38.22 Ry    6.18 a.u.  12.84 12.84 43.59*2*pi/ulx,y,z
   ENINI  =  520.0     initial cutoff
   ENAUG  =  511.4 eV  augmentation charge cutoff
   NELM   =    400;   NELMIN=  2; NELMDL=  0     # of ELM steps 
   EDIFF  = 0.1E-03   stopping-criterion for ELM
   LREAL  =      T    real-space projection
   NLSPLINE    = F    spline interpolate recip. space projectors
   LCOMPAT=      F    compatible to vasp.4.4
   GGA_COMPAT  = T    GGA compatible to vasp.4.4-vasp.4.6
   LMAXPAW     = -100 max onsite density
   LMAXMIX     =    2 max onsite mixed and CHGCAR
   VOSKOWN=      0    Vosko Wilk Nusair interpolation
   ROPT   =   -0.00025  -0.00025  -0.00025
 Ionic relaxation
   EDIFFG = 0.1E-02   stopping-criterion for IOM
   NSW    =     99    number of steps for IOM
   NBLOCK =      1;   KBLOCK =     99    inner block; outer block 
   IBRION =      2    ionic relax: 0-MD 1-quasi-New 2-CG
   NFREE  =      1    steps in history (QN), initial steepest desc. (CG)
   ISIF   =      3    stress and relaxation
   IWAVPR =     11    prediction:  0-non 1-charg 2-wave 3-comb
   ISYM   =      2    0-nonsym 1-usesym 2-fastsym
   LCORR  =      T    Harris-Foulkes like correction to forces

   POTIM  = 0.5000    time-step for ionic-motion
   TEIN   =    0.0    initial temperature
   TEBEG  =    0.0;   TEEND  =   0.0 temperature during run
   SMASS  =  -3.00    Nose mass-parameter (am)
   estimated Nose-frequenzy (Omega)   =  0.10E-29 period in steps =****** mass=  -0.109E-26a.u.
   SCALEE = 1.0000    scale energy and forces
   NPACO  =    256;   APACO  = 16.0  distance and # of slots for P.C.
   PSTRESS=    0.0 pullay stress

  Mass of Ions in am
   POMASS =  55.85 30.97 32.07
  Ionic Valenz
   ZVAL   =   8.00  5.00  6.00
  Atomic Wigner-Seitz radii
   RWIGS  =  -1.00 -1.00 -1.00
  virtual crystal weights 
   VCA    =   1.00  1.00  1.00
   NELECT =      62.0000    total number of electrons
   NUPDOWN=      -1.0000    fix difference up-down

 DOS related values:
   EMIN   =  10.00;   EMAX   =-10.00  energy-range for DOS
   EFERMI =   0.00
   ISMEAR =    -5;   SIGMA  =   0.05  broadening in eV -4-tet -1-fermi 0-gaus

 Electronic relaxation 2 (details)
   IALGO  =     38    algorithm
   LDIAG  =      T    sub-space diagonalisation (order eigenvalues)
   LSUBROT=      F    optimize rotation matrix (better conditioning)
   TURBO    =      0    0=normal 1=particle mesh
   IRESTART =      0    0=no restart 2=restart with 2 vectors
   NREBOOT  =      0    no. of reboots
   NMIN     =      0    reboot dimension
   EREF     =   0.00    reference energy to select bands
   IMIX   =      4    mixing-type and parameters
     AMIX     =   0.40;   BMIX     =  1.00
     AMIX_MAG =   1.60;   BMIX_MAG =  1.00
     AMIN     =   0.01
     WC   =   100.;   INIMIX=   1;  MIXPRE=   1;  MAXMIX= -45

 Intra band minimization:
   WEIMIN = 0.0010     energy-eigenvalue tresh-hold
   EBREAK =  0.52E-06  absolut break condition
   DEPER  =   0.30     relativ break condition  

   TIME   =   0.40     timestep for ELM

  volume/ion in A,a.u.               =      96.88       653.80
  Fermi-wavevector in a.u.,A,eV,Ry     =   0.654820  1.237431  5.834037  0.428790
  Thomas-Fermi vector in A             =   1.725500

 Write flags
   LWAVE        =      F    write WAVECAR
   LDOWNSAMPLE  =      F    k-point downsampling of WAVECAR
   LCHARG       =      T    write CHGCAR
   LVTOT        =      F    write LOCPOT, total local potential
   LVHAR        =      F    write LOCPOT, Hartree potential only
   LELF         =      F    write electronic localiz. function (ELF)
   LORBIT       =     11    0 simple, 1 ext, 2 COOP (PROOUT), +10 PAW based schemes


 Dipole corrections
   LMONO  =      F    monopole corrections only (constant potential shift)
   LDIPOL =      F    correct potential (dipole corrections)
   IDIPOL =      0    1-x, 2-y, 3-z, 4-all directions 
   EPSILON=  1.0000000 bulk dielectric constant

 Exchange correlation treatment:
   GGA     =    BO    GGA type
   LEXCH   =    42    internal setting for exchange type
   VOSKOWN=      0    Vosko Wilk Nusair interpolation
   LHFCALC =     F    Hartree Fock is set to
   LHFONE  =     F    Hartree Fock one center treatment
   AEXX    =    0.0000 exact exchange contribution

 vdW DFT:
   LUSE_VDW   =     T    switch on vdW DFT
   Zab_VDW    =-.8491    correlation parameter
   PARAM1     =0.1833
   PARAM2     =0.2200
   PARAM3     =0.0000
   -- rVV10 --
   BPARAM     = 6.3000
   CPARAM     = 0.0093

 Linear response parameters
   LEPSILON=     F    determine dielectric tensor
   LRPA    =     F    only Hartree local field effects (RPA)
   LNABLA  =     F    use nabla operator in PAW spheres
   LVEL    =     F    velocity operator in full k-point grid
   LINTERFAST=   F  fast interpolation
   KINTER  =     0    interpolate to denser k-point grid
   CSHIFT  =0.1000    complex shift for real part using Kramers Kronig
   OMEGAMAX=  -1.0    maximum frequency
   DEG_THRESHOLD= 0.2000000E-02 threshold for treating states as degnerate
   RTIME   =   -0.100 relaxation time in fs
  (WPLASMAI=    0.000 imaginary part of plasma frequency in eV, 0.658/RTIME)
   DFIELD  = 0.0000000 0.0000000 0.0000000 field for delta impulse in time

 Orbital magnetization related:
   ORBITALMAG=     F  switch on orbital magnetization
   LCHIMAG   =     F  perturbation theory with respect to B field
   DQ        =  0.001000  dq finite difference perturbation B field
   LLRAUG    =     F  two centre corrections for induced B field



--------------------------------------------------------------------------------------------------------


 conjugate gradient relaxation of ions
   using selective dynamics as specified on POSCAR
 charge density and potential will be updated during run
 spin polarized calculation
 Variant of blocked Davidson
 Davidson routine will perform the subspace rotation
 perform sub-space diagonalisation
    after iterative eigenvector-optimisation
 modified Broyden-mixing scheme, WC =      100.0
 initial mixing is a Kerker type mixing with AMIX =  0.4000 and BMIX =      1.0000
 Hartree-type preconditioning will be used
 using additional bands           17
 real space projection scheme for non local part
 use partial core corrections
 calculate Harris-corrections to forces   (improved forces if not selfconsistent)
 use gradient corrections 
 use of overlap-Matrix (Vanderbilt PP)
 Fermi weights with tetrahedron method with Bloechl corrections


--------------------------------------------------------------------------------------------------------


  energy-cutoff  :      520.00
  volume of cell :      968.84
      direct lattice vectors                 reciprocal lattice vectors
     6.907777000 -0.000000000  0.000000000     0.144764372 -0.083579742  0.000000000
     3.453888000  5.982310000  0.000000000     0.000000000  0.167159509 -0.000000000
     0.000000000  0.000000000 23.444588000    -0.000000000  0.000000000  0.042653767

  length of vectors
     6.907777000  6.907776433 23.444588000     0.167159495  0.167159509  0.042653767



 k-points in units of 2pi/SCALE and weight: Kpoints from vasprun.xml                
   0.00000000  0.00000000  0.00000000       0.040
   0.02895287 -0.01671595  0.00000000       0.240
   0.05790575 -0.03343190  0.00000000       0.240
   0.05790575  0.00000000  0.00000000       0.240
  -0.05790575  0.06686380  0.00000000       0.240

 k-points in reciprocal lattice and weights: Kpoints from vasprun.xml                
   0.00000000  0.00000000  0.00000000       0.040
   0.20000000  0.00000000  0.00000000       0.240
   0.40000000  0.00000000  0.00000000       0.240
   0.40000000  0.20000000  0.00000000       0.240
  -0.40000000  0.20000000  0.00000000       0.240

 position of ions in fractional coordinates (direct lattice) 
   0.33333300  0.33333300  0.49992500
   0.66666700  0.66666700  0.50007500
   0.00000000  0.00000000  0.44821600
   0.00000000  0.00000000  0.55178400
   0.62635700  0.00042000  0.57375200
   0.00042000  0.37322400  0.57375200
   0.37322400  0.62635700  0.57375200
   0.37364300  0.99958000  0.42624800
   0.99958000  0.62677600  0.42624800
   0.62677600  0.37364300  0.42624800

 position of ions in cartesian coordinates  (Angst):
   3.45388488  1.99410134 11.72053566
   6.90778012  3.98820866 11.72405234
   0.00000000  0.00000000 10.50823946
   0.00000000  0.00000000 12.93634854
   4.32818511  0.00251257 13.45137925
   1.29197516  2.23274167 13.45137925
   4.74151509  3.74706174 13.45137925
   6.03347989  5.97979743  9.99320875
   9.06968984  3.74956833  9.99320875
   5.62014991  2.23524826  9.99320875



--------------------------------------------------------------------------------------------------------


 k-point  1 :   0.0000 0.0000 0.0000  plane waves:   26073
 k-point  2 :   0.2000 0.0000 0.0000  plane waves:   26070
 k-point  3 :   0.4000 0.0000 0.0000  plane waves:   26086
 k-point  4 :   0.4000 0.2000 0.0000  plane waves:   26085
 k-point  5 :  -0.4000 0.2000 0.0000  plane waves:   26115

 maximum and minimum number of plane-waves per node :     26115    26070

 maximum number of plane-waves:     26115
 maximum index in each direction: 
   IXMAX=   13   IYMAX=   12   IZMAX=   43
   IXMIN=  -13   IYMIN=  -13   IZMIN=  -43


 serial   3D FFT for wavefunctions
 parallel 3D FFT for charge:
    minimum data exchange during FFTs selected (reduces bandwidth)


 total amount of memory used by VASP MPI-rank0   126399. kBytes
=======================================================================

   base      :      30000. kBytes
   nonlr-proj:       6104. kBytes
   fftplans  :      11247. kBytes
   grid      :      66142. kBytes
   one-center:        311. kBytes
   wavefun   :      12595. kBytes

     INWAV:  cpu time    0.0000: real time    0.0002
 Broyden mixing: mesh for mixing (old mesh)
   NGX = 25   NGY = 25   NGZ = 87
  (NGX  =108   NGY  =108   NGZ  =360)
  gives a total of  54375 points

 initial charge density was supplied:
 charge density of overlapping atoms calculated
 number of electron      62.0000000 magnetization       7.2600000
 keeping initial charge density in first step


--------------------------------------------------------------------------------------------------------


 Maximum index for non-local projection operator         7925
 Maximum index for augmentation-charges         1238 (set IRDMAX)


--------------------------------------------------------------------------------------------------------


 First call to EWALD:  gamma=   0.179
 Maximum number of real-space cells 4x 4x 1
 Maximum number of reciprocal cells 2x 2x 6

    FEWALD:  cpu time    0.0000: real time    0.0015


--------------------------------------- Iteration      1(   1)  ---------------------------------------


vdW kernel read from vdw_kernel.bindat
  0.0000  0.2424  0.5071  0.7962  1.1119  1.4567  1.8333  2.2446  2.6937  3.1842
  3.7199  4.3049  4.9438  5.6415  6.4036  7.2358  8.1446  9.1372 10.2212 11.4050
 12.6979 14.1099 15.6519 17.3360 19.1751 21.1837 23.3773 25.7729 28.3892 31.2465
 34.3669 37.7748 41.4965 45.5611 50.0000

    POTLOK:  cpu time   51.1080: real time   52.3795
    SETDIJ:  cpu time    0.0400: real time    0.0395
     EDDAV:  cpu time   22.4360: real time   22.6074
 BZINTS: Fermi energy:  5.271016; 62.000000 electrons
         Band energy: -22.589895;  BLOECHL correction: -0.037763
       DOS:  cpu time    0.0040: real time    0.0052
    --------------------------------------------
      LOOP:  cpu time   73.5880: real time   75.0315

 eigenvalue-minimisations  :   960
 total energy-change (2. order) : 0.4331293E+03  (-0.1855433E+04)
 number of electron      62.0000000 magnetization       7.2600000
 augmentation part       62.0000000 magnetization       7.2600000

 Free energy of the ion-electron system (eV)
  ---------------------------------------------------
  alpha Z        PSCENC =        23.27933002
  Ewald energy   TEWEN  =      7519.48427785
  -Hartree energ DENC   =    -10406.02865867
  -exchange      EXHF   =         0.00000000
  -V(xc)+E(xc)   XCENC  =        79.35365221
  PAW double counting   =      1645.59793535    -1620.12948393
  entropy T*S    EENTRO =         0.00000000
  eigenvalues    EBANDS =       -22.58989470
  atomic energy  EATOM  =      3214.16218276
  Solvation  Ediel_sol  =         0.00000000
  ---------------------------------------------------
  free energy    TOTEN  =       433.12934088 eV

  energy without entropy =      433.12934088  energy(sigma->0) =      433.12934088


--------------------------------------------------------------------------------------------------------




--------------------------------------- Iteration      1(   2)  ---------------------------------------


     EDDAV:  cpu time   27.3680: real time   27.9415
 BZINTS: Fermi energy: -1.255704; 62.000000 electrons
         Band energy:-419.238425;  BLOECHL correction: -0.082587
       DOS:  cpu time    0.0040: real time    0.0047
    --------------------------------------------
      LOOP:  cpu time   27.3720: real time   27.9463

 eigenvalue-minimisations  :  1216
 total energy-change (2. order) :-0.3966485E+03  (-0.3663207E+03)
 number of electron      62.0000000 magnetization       7.2600000
 augmentation part       62.0000000 magnetization       7.2600000

 Free energy of the ion-electron system (eV)
  ---------------------------------------------------
  alpha Z        PSCENC =        23.27933002
  Ewald energy   TEWEN  =      7519.48427785
  -Hartree energ DENC   =    -10406.02865867
  -exchange      EXHF   =         0.00000000
  -V(xc)+E(xc)   XCENC  =        79.35365221
  PAW double counting   =      1645.59793535    -1620.12948393
  entropy T*S    EENTRO =         0.00000000
  eigenvalues    EBANDS =      -419.23842537
  atomic energy  EATOM  =      3214.16218276
  Solvation  Ediel_sol  =         0.00000000
  ---------------------------------------------------
  free energy    TOTEN  =        36.48081021 eV

  energy without entropy =       36.48081021  energy(sigma->0) =       36.48081021


--------------------------------------------------------------------------------------------------------




--------------------------------------- Iteration      1(   3)  ---------------------------------------


     EDDAV:  cpu time   29.9880: real time   30.3154
 BZINTS: Fermi energy: -2.793356; 62.000000 electrons
         Band energy:-505.284592;  BLOECHL correction:  0.000000
       DOS:  cpu time    0.0000: real time    0.0012
    --------------------------------------------
      LOOP:  cpu time   29.9880: real time   30.3167

 eigenvalue-minimisations  :  1328
 total energy-change (2. order) :-0.8604617E+02  (-0.8365596E+02)
 number of electron      62.0000000 magnetization       7.2600000
 augmentation part       62.0000000 magnetization       7.2600000

 Free energy of the ion-electron system (eV)
  ---------------------------------------------------
  alpha Z        PSCENC =        23.27933002
  Ewald energy   TEWEN  =      7519.48427785
  -Hartree energ DENC   =    -10406.02865867
  -exchange      EXHF   =         0.00000000
  -V(xc)+E(xc)   XCENC  =        79.35365221
  PAW double counting   =      1645.59793535    -1620.12948393
  entropy T*S    EENTRO =         0.00000000
  eigenvalues    EBANDS =      -505.28459156
  atomic energy  EATOM  =      3214.16218276
  Solvation  Ediel_sol  =         0.00000000
  ---------------------------------------------------
  free energy    TOTEN  =       -49.56535598 eV

  energy without entropy =      -49.56535598  energy(sigma->0) =      -49.56535598


--------------------------------------------------------------------------------------------------------




--------------------------------------- Iteration      1(   4)  ---------------------------------------


     EDDAV:  cpu time   25.7000: real time   25.8639
 BZINTS: Fermi energy: -2.830200; 62.000000 electrons
         Band energy:-508.895699;  BLOECHL correction: -0.001975
       DOS:  cpu time    0.0240: real time    0.0229
    --------------------------------------------
      LOOP:  cpu time   25.7240: real time   25.8868

 eigenvalue-minimisations  :  1120
 total energy-change (2. order) :-0.3611107E+01  (-0.3563351E+01)
 number of electron      62.0000000 magnetization       7.2600000
 augmentation part       62.0000000 magnetization       7.2600000

 Free energy of the ion-electron system (eV)
  ---------------------------------------------------
  alpha Z        PSCENC =        23.27933002
  Ewald energy   TEWEN  =      7519.48427785
  -Hartree energ DENC   =    -10406.02865867
  -exchange      EXHF   =         0.00000000
  -V(xc)+E(xc)   XCENC  =        79.35365221
  PAW double counting   =      1645.59793535    -1620.12948393
  entropy T*S    EENTRO =         0.00000000
  eigenvalues    EBANDS =      -508.89569865
  atomic energy  EATOM  =      3214.16218276
  Solvation  Ediel_sol  =         0.00000000
  ---------------------------------------------------
  free energy    TOTEN  =       -53.17646307 eV

  energy without entropy =      -53.17646307  energy(sigma->0) =      -53.17646307


--------------------------------------------------------------------------------------------------------




--------------------------------------- Iteration      1(   5)  ---------------------------------------


     EDDAV:  cpu time   30.6720: real time   30.7461
 BZINTS: Fermi energy: -2.831161; 62.000000 electrons
         Band energy:-509.021328;  BLOECHL correction: -0.001984
       DOS:  cpu time    0.0080: real time    0.0078
    CHARGE:  cpu time    2.0360: real time    2.0412
    MIXING:  cpu time    0.0400: real time    0.0402
    --------------------------------------------
      LOOP:  cpu time   32.7600: real time   32.8353

 eigenvalue-minimisations  :  1360
 total energy-change (2. order) :-0.1256289E+00  (-0.1255351E+00)
 number of electron      62.0000000 magnetization       7.3393419
 augmentation part       -1.2490805 magnetization       4.3781337

 Broyden mixing:
  rms(total) = 0.26975E+01    rms(broyden)= 0.26973E+01
  rms(prec ) = 0.29929E+01
  weight for this iteration     100.00

 Free energy of the ion-electron system (eV)
  ---------------------------------------------------
  alpha Z        PSCENC =        23.27933002
  Ewald energy   TEWEN  =      7519.48427785
  -Hartree energ DENC   =    -10406.02865867
  -exchange      EXHF   =         0.00000000
  -V(xc)+E(xc)   XCENC  =        79.35365221
  PAW double counting   =      1645.59793535    -1620.12948393
  entropy T*S    EENTRO =         0.00000000
  eigenvalues    EBANDS =      -509.02132758
  atomic energy  EATOM  =      3214.16218276
  Solvation  Ediel_sol  =         0.00000000
  ---------------------------------------------------
  free energy    TOTEN  =       -53.30209200 eV

  energy without entropy =      -53.30209200  energy(sigma->0) =      -53.30209200


--------------------------------------------------------------------------------------------------------




--------------------------------------- Iteration      1(   6)  ---------------------------------------


    POTLOK:  cpu time   52.0920: real time   52.2022
    SETDIJ:  cpu time    0.0720: real time    0.0717
     EDDAV:  cpu time   27.4080: real time   28.2214
 BZINTS: Fermi energy: -4.610582; 62.000000 electrons
         Band energy:-684.616293;  BLOECHL correction: -0.013941
       DOS:  cpu time    0.0040: real time    0.0069
    CHARGE:  cpu time    2.0280: real time    2.0757
    MIXING:  cpu time    0.0360: real time    0.0403
    --------------------------------------------
      LOOP:  cpu time   81.6360: real time   82.6181

 eigenvalue-minimisations  :  1232
 total energy-change (2. order) :-0.6110768E+02  (-0.2483253E+02)
 number of electron      62.0000010 magnetization       7.1086407
 augmentation part        9.6032701 magnetization       7.3408174

 Broyden mixing:
  rms(total) = 0.65957E+01    rms(broyden)= 0.65956E+01
  rms(prec ) = 0.70787E+01
  weight for this iteration     100.00

 eigenvalues of (default mixing * dielectric matrix)
  average eigenvalue GAMMA=   0.2362
  0.2362

 Free energy of the ion-electron system (eV)
  ---------------------------------------------------
  alpha Z        PSCENC =        23.27933002
  Ewald energy   TEWEN  =      7519.48427785
  -Hartree energ DENC   =    -10306.15422857
  -exchange      EXHF   =         0.00000000
  -V(xc)+E(xc)   XCENC  =        80.71464070
  PAW double counting   =      1467.47246202    -1428.75213918
  entropy T*S    EENTRO =         0.00000000
  eigenvalues    EBANDS =      -684.61629283
  atomic energy  EATOM  =      3214.16218276
  Solvation  Ediel_sol  =         0.00000000
  ---------------------------------------------------
  free energy    TOTEN  =      -114.40976723 eV

  energy without entropy =     -114.40976723  energy(sigma->0) =     -114.40976723


--------------------------------------------------------------------------------------------------------




--------------------------------------- Iteration      1(   7)  ---------------------------------------


    POTLOK:  cpu time   51.4360: real time   52.5395
    SETDIJ:  cpu time    0.0360: real time    0.0386
     EDDAV:  cpu time   25.3480: real time   26.5596
 BZINTS: Fermi energy: -4.786599; 62.000000 electrons
         Band energy:-542.458553;  BLOECHL correction: -0.013712
       DOS:  cpu time    0.0080: real time    0.0068
    CHARGE:  cpu time    2.0120: real time    2.0521
    MIXING:  cpu time    0.0400: real time    0.0418
    --------------------------------------------
      LOOP:  cpu time   78.8800: real time   81.2384

 eigenvalue-minimisations  :  1152
 total energy-change (2. order) : 0.6810997E+02  (-0.6991504E+01)
 number of electron      62.0000008 magnetization       6.7797304
 augmentation part        6.6777865 magnetization       7.5469331

 Broyden mixing:
  rms(total) = 0.34157E+01    rms(broyden)= 0.34156E+01
  rms(prec ) = 0.37162E+01
  weight for this iteration     100.00

 eigenvalues of (default mixing * dielectric matrix)
  average eigenvalue GAMMA=   0.4775
  0.4775  0.4775

 Free energy of the ion-electron system (eV)
  ---------------------------------------------------
  alpha Z        PSCENC =        23.27933002
  Ewald energy   TEWEN  =      7519.48427785
  -Hartree energ DENC   =    -10365.81271328
  -exchange      EXHF   =         0.00000000
  -V(xc)+E(xc)   XCENC  =        78.32450083
  PAW double counting   =      1578.15705407    -1551.43587219
  entropy T*S    EENTRO =         0.00000000
  eigenvalues    EBANDS =      -542.45855330
  atomic energy  EATOM  =      3214.16218276
  Solvation  Ediel_sol  =         0.00000000
  ---------------------------------------------------
  free energy    TOTEN  =       -46.29979324 eV

  energy without entropy =      -46.29979324  energy(sigma->0) =      -46.29979324


--------------------------------------------------------------------------------------------------------




--------------------------------------- Iteration      1(   8)  ---------------------------------------


    POTLOK:  cpu time   51.7400: real time   52.1745
    SETDIJ:  cpu time    0.0400: real time    0.0405
     EDDAV:  cpu time   32.9760: real time   33.6281
 BZINTS: Fermi energy: -3.478877; 62.000000 electrons
         Band energy:-510.473140;  BLOECHL correction:  0.000000
       DOS:  cpu time    0.0040: real time    0.0038
    CHARGE:  cpu time    1.9520: real time    2.0443
    MIXING:  cpu time    0.0440: real time    0.0413
    --------------------------------------------
      LOOP:  cpu time   86.7560: real time   87.9325

 eigenvalue-minimisations  :  1488
 total energy-change (2. order) : 0.1922199E+01  (-0.3341256E+01)
 number of electron      62.0000000 magnetization       6.8518837
 augmentation part       -0.1932540 magnetization       4.3224322

 Broyden mixing:
  rms(total) = 0.25201E+01    rms(broyden)= 0.25199E+01
  rms(prec ) = 0.26742E+01
  weight for this iteration     100.00

 eigenvalues of (default mixing * dielectric matrix)
  average eigenvalue GAMMA=   0.4414
  0.5783  0.3729  0.3729

 Free energy of the ion-electron system (eV)
  ---------------------------------------------------
  alpha Z        PSCENC =        23.27933002
  Ewald energy   TEWEN  =      7519.48427785
  -Hartree energ DENC   =    -10394.01093315
  -exchange      EXHF   =         0.00000000
  -V(xc)+E(xc)   XCENC  =        78.10875345
  PAW double counting   =      1632.16495645    -1607.09302215
  entropy T*S    EENTRO =         0.00000000
  eigenvalues    EBANDS =      -510.47313966
  atomic energy  EATOM  =      3214.16218276
  Solvation  Ediel_sol  =         0.00000000
  ---------------------------------------------------
  free energy    TOTEN  =       -44.37759443 eV

  energy without entropy =      -44.37759443  energy(sigma->0) =      -44.37759443


--------------------------------------------------------------------------------------------------------




--------------------------------------- Iteration      1(   9)  ---------------------------------------


    POTLOK:  cpu time   51.8440: real time   52.2880
    SETDIJ:  cpu time    0.0360: real time    0.0394
     EDDAV:  cpu time   34.3760: real time   34.8772
 BZINTS: Fermi energy: -4.061960; 62.024092 electrons
         Band energy:-526.447236;  BLOECHL correction: -0.002203
       DOS:  cpu time    0.0080: real time    0.0085
    CHARGE:  cpu time    2.0360: real time    2.0429
    MIXING:  cpu time    0.0440: real time    0.0447
    --------------------------------------------
      LOOP:  cpu time   88.3440: real time   89.3007

 eigenvalue-minimisations  :  1552
 total energy-change (2. order) : 0.2603051E+01  (-0.7763390E+00)
 number of electron      62.0240922 magnetization       6.8597965
 augmentation part        1.8379693 magnetization       4.2720144

 Broyden mixing:
  rms(total) = 0.12512E+01    rms(broyden)= 0.12511E+01
  rms(prec ) = 0.12649E+01
  weight for this iteration     100.00

 eigenvalues of (default mixing * dielectric matrix)
  average eigenvalue GAMMA=   0.3315
  0.5720  0.3719  0.3719  0.0101

 Free energy of the ion-electron system (eV)
  ---------------------------------------------------
  alpha Z        PSCENC =        23.27933002
  Ewald energy   TEWEN  =      7519.48427785
  -Hartree energ DENC   =    -10375.98737542
  -exchange      EXHF   =         0.00000000
  -V(xc)+E(xc)   XCENC  =        78.70155574
  PAW double counting   =      1597.13908573    -1572.10636417
  entropy T*S    EENTRO =         0.00000000
  eigenvalues    EBANDS =      -526.44723643
  atomic energy  EATOM  =      3214.16218276
  Solvation  Ediel_sol  =         0.00000000
  ---------------------------------------------------
  free energy    TOTEN  =       -41.77454392 eV

  energy without entropy =      -41.77454392  energy(sigma->0) =      -41.77454392


--------------------------------------------------------------------------------------------------------




--------------------------------------- Iteration      1(  10)  ---------------------------------------


    POTLOK:  cpu time   51.8920: real time   52.3721
    SETDIJ:  cpu time    0.0440: real time    0.0448
     EDDAV:  cpu time   28.0240: real time   29.4147
 BZINTS: Fermi energy: -4.086357; 62.000000 electrons
         Band energy:-526.302304;  BLOECHL correction: -0.002816
       DOS:  cpu time    0.0040: real time    0.0069
    CHARGE:  cpu time    2.0080: real time    2.0510
    MIXING:  cpu time    0.0440: real time    0.0448
    --------------------------------------------
      LOOP:  cpu time   82.0160: real time   83.9342

 eigenvalue-minimisations  :  1280
 total energy-change (2. order) : 0.9386383E-01  (-0.4440410E-01)
 number of electron      62.0000001 magnetization       6.8638327
 augmentation part        1.8555954 magnetization       4.3990568

 Broyden mixing:
  rms(total) = 0.12109E+01    rms(broyden)= 0.12109E+01
  rms(prec ) = 0.12244E+01
  weight for this iteration     100.00

 eigenvalues of (default mixing * dielectric matrix)
  average eigenvalue GAMMA=   0.3182
  0.5704  0.3676  0.3676  0.1428  0.1428

 Free energy of the ion-electron system (eV)
  ---------------------------------------------------
  alpha Z        PSCENC =        23.27933002
  Ewald energy   TEWEN  =      7519.48427785
  -Hartree energ DENC   =    -10376.06571977
  -exchange      EXHF   =         0.00000000
  -V(xc)+E(xc)   XCENC  =        78.76432564
  PAW double counting   =      1597.24876093    -1572.25153338
  entropy T*S    EENTRO =         0.00000000
  eigenvalues    EBANDS =      -526.30230414
  atomic energy  EATOM  =      3214.16218276
  Solvation  Ediel_sol  =         0.00000000
  ---------------------------------------------------
  free energy    TOTEN  =       -41.68068009 eV

  energy without entropy =      -41.68068009  energy(sigma->0) =      -41.68068009


--------------------------------------------------------------------------------------------------------




--------------------------------------- Iteration      1(  11)  ---------------------------------------


    POTLOK:  cpu time   52.0880: real time   52.4800
    SETDIJ:  cpu time    0.0520: real time    0.0497
     EDDAV:  cpu time   31.1880: real time   31.5496
 BZINTS: Fermi energy: -4.108274; 62.000000 electrons
         Band energy:-526.795577;  BLOECHL correction: -0.006902
       DOS:  cpu time    0.0080: real time    0.0069
    CHARGE:  cpu time    2.0160: real time    2.0622
    MIXING:  cpu time    0.0560: real time    0.0577
    --------------------------------------------
      LOOP:  cpu time   85.4080: real time   86.2062

 eigenvalue-minimisations  :  1392
 total energy-change (2. order) : 0.4381854E-04  (-0.1436412E-02)
 number of electron      62.0000001 magnetization       6.8290747
 augmentation part        1.9352681 magnetization       4.4136793

 Broyden mixing:
  rms(total) = 0.11341E+01    rms(broyden)= 0.11341E+01
  rms(prec ) = 0.11450E+01
  weight for this iteration     100.00

 eigenvalues of (default mixing * dielectric matrix)
  average eigenvalue GAMMA=   0.3760
  0.5947  0.3411  0.3411  0.3832  0.3832  0.2129

 Free energy of the ion-electron system (eV)
  ---------------------------------------------------
  alpha Z        PSCENC =        23.27933002
  Ewald energy   TEWEN  =      7519.48427785
  -Hartree energ DENC   =    -10375.58368817
  -exchange      EXHF   =         0.00000000
  -V(xc)+E(xc)   XCENC  =        78.76630581
  PAW double counting   =      1596.41681160    -1571.41027888
  entropy T*S    EENTRO =         0.00000000
  eigenvalues    EBANDS =      -526.79557725
  atomic energy  EATOM  =      3214.16218276
  Solvation  Ediel_sol  =         0.00000000
  ---------------------------------------------------
  free energy    TOTEN  =       -41.68063627 eV

  energy without entropy =      -41.68063627  energy(sigma->0) =      -41.68063627


--------------------------------------------------------------------------------------------------------




--------------------------------------- Iteration      1(  12)  ---------------------------------------


    POTLOK:  cpu time   52.3200: real time   52.7763
    SETDIJ:  cpu time    0.0400: real time    0.0392
     EDDAV:  cpu time   29.2840: real time   29.7465
 BZINTS: Fermi energy: -4.160709; 62.000000 electrons
         Band energy:-529.543323;  BLOECHL correction: -0.015015
       DOS:  cpu time    0.0040: real time    0.0058
    CHARGE:  cpu time    2.0360: real time    2.0857
    MIXING:  cpu time    0.0440: real time    0.0457
    --------------------------------------------
      LOOP:  cpu time   83.7280: real time   84.6993

 eigenvalue-minimisations  :  1296
 total energy-change (2. order) :-0.5461740E-01  (-0.1273220E-01)
 number of electron      62.0000002 magnetization       6.7036453
 augmentation part        2.1140711 magnetization       4.4643485

 Broyden mixing:
  rms(total) = 0.90555E+00    rms(broyden)= 0.90555E+00
  rms(prec ) = 0.91141E+00
  weight for this iteration     100.00

 eigenvalues of (default mixing * dielectric matrix)
  average eigenvalue GAMMA=   0.5459
  0.5256  0.5256  0.7133  0.7133  0.5604  0.3915  0.3915

 Free energy of the ion-electron system (eV)
  ---------------------------------------------------
  alpha Z        PSCENC =        23.27933002
  Ewald energy   TEWEN  =      7519.48427785
  -Hartree energ DENC   =    -10372.98516254
  -exchange      EXHF   =         0.00000000
  -V(xc)+E(xc)   XCENC  =        78.82194956
  PAW double counting   =      1592.66450303    -1567.61901108
  entropy T*S    EENTRO =         0.00000000
  eigenvalues    EBANDS =      -529.54332327
  atomic energy  EATOM  =      3214.16218276
  Solvation  Ediel_sol  =         0.00000000
  ---------------------------------------------------
  free energy    TOTEN  =       -41.73525367 eV

  energy without entropy =      -41.73525367  energy(sigma->0) =      -41.73525367


--------------------------------------------------------------------------------------------------------




--------------------------------------- Iteration      1(  13)  ---------------------------------------


    POTLOK:  cpu time   51.6880: real time   52.5152
    SETDIJ:  cpu time    0.0360: real time    0.0373
     EDDAV:  cpu time   31.5200: real time   32.0845
 BZINTS: Fermi energy: -4.291404; 62.000000 electrons
         Band energy:-537.059462;  BLOECHL correction: -0.015386
       DOS:  cpu time    0.0040: real time    0.0070
    CHARGE:  cpu time    2.0440: real time    2.0809
    MIXING:  cpu time    0.0440: real time    0.0462
    --------------------------------------------
      LOOP:  cpu time   85.3360: real time   86.7711

 eigenvalue-minimisations  :  1408
 total energy-change (2. order) :-0.1520668E+00  (-0.4497179E-01)
 number of electron      62.0000002 magnetization       6.6648227
 augmentation part        2.2385638 magnetization       4.5730503

 Broyden mixing:
  rms(total) = 0.58006E+00    rms(broyden)= 0.58004E+00
  rms(prec ) = 0.58320E+00
  weight for this iteration     100.00

 eigenvalues of (default mixing * dielectric matrix)
  average eigenvalue GAMMA=   0.7289
  1.4623  1.4623  0.4783  0.4783  0.7520  0.4012  0.4012  0.3955

 Free energy of the ion-electron system (eV)
  ---------------------------------------------------
  alpha Z        PSCENC =        23.27933002
  Ewald energy   TEWEN  =      7519.48427785
  -Hartree energ DENC   =    -10365.97320673
  -exchange      EXHF   =         0.00000000
  -V(xc)+E(xc)   XCENC  =        79.27238752
  PAW double counting   =      1584.22634772    -1559.27917802
  entropy T*S    EENTRO =         0.00000000
  eigenvalues    EBANDS =      -537.05946161
  atomic energy  EATOM  =      3214.16218276
  Solvation  Ediel_sol  =         0.00000000
  ---------------------------------------------------
  free energy    TOTEN  =       -41.88732050 eV

  energy without entropy =      -41.88732050  energy(sigma->0) =      -41.88732050


--------------------------------------------------------------------------------------------------------




--------------------------------------- Iteration      1(  14)  ---------------------------------------


    POTLOK:  cpu time   51.9640: real time   52.5316
    SETDIJ:  cpu time    0.0360: real time    0.0378
     EDDAV:  cpu time   32.5240: real time   33.2109
 BZINTS: Fermi energy: -4.292582; 62.038599 electrons
         Band energy:-544.262280;  BLOECHL correction: -0.001880
       DOS:  cpu time    0.0080: real time    0.0098
    CHARGE:  cpu time    2.0480: real time    2.0657
    MIXING:  cpu time    0.0640: real time    0.0639
    --------------------------------------------
      LOOP:  cpu time   86.6440: real time   87.9197

 eigenvalue-minimisations  :  1472
 total energy-change (2. order) :-0.3718758E+00  (-0.4607580E-01)
 number of electron      62.0385992 magnetization       6.7013768
 augmentation part        1.7544295 magnetization       4.5048096

 Broyden mixing:
  rms(total) = 0.69391E+00    rms(broyden)= 0.69388E+00
  rms(prec ) = 0.72386E+00
  weight for this iteration     100.00

 eigenvalues of (default mixing * dielectric matrix)
  average eigenvalue GAMMA=   0.6645
  1.4329  1.3203  0.8118  0.4769  0.4769  0.4038  0.4038  0.3857  0.2683

 Free energy of the ion-electron system (eV)
  ---------------------------------------------------
  alpha Z        PSCENC =        23.27933002
  Ewald energy   TEWEN  =      7519.48427785
  -Hartree energ DENC   =    -10359.68602371
  -exchange      EXHF   =         0.00000000
  -V(xc)+E(xc)   XCENC  =        80.34561140
  PAW double counting   =      1578.88469667    -1554.46699106
  entropy T*S    EENTRO =         0.00000000
  eigenvalues    EBANDS =      -544.26228019
  atomic energy  EATOM  =      3214.16218276
  Solvation  Ediel_sol  =         0.00000000
  ---------------------------------------------------
  free energy    TOTEN  =       -42.25919626 eV

  energy without entropy =      -42.25919626  energy(sigma->0) =      -42.25919626


--------------------------------------------------------------------------------------------------------




--------------------------------------- Iteration      1(  15)  ---------------------------------------


    POTLOK:  cpu time   50.8000: real time   52.6559
    SETDIJ:  cpu time    0.0400: real time    0.0416
     EDDAV:  cpu time   32.3400: real time   32.7263
 BZINTS: Fermi energy: -4.312511; 62.031509 electrons
         Band energy:-545.461802;  BLOECHL correction: -0.000842
       DOS:  cpu time    0.0080: real time    0.0090
    CHARGE:  cpu time    2.0920: real time    2.1049
    MIXING:  cpu time    0.0440: real time    0.0466
    --------------------------------------------
      LOOP:  cpu time   85.3240: real time   87.5844

 eigenvalue-minimisations  :  1440
 total energy-change (2. order) : 0.2526484E-01  (-0.5704229E-02)
 number of electron      62.0315090 magnetization       6.7581891
 augmentation part        1.8314696 magnetization       4.6161334

 Broyden mixing:
  rms(total) = 0.57530E+00    rms(broyden)= 0.57530E+00
  rms(prec ) = 0.60246E+00
  weight for this iteration     100.00

 eigenvalues of (default mixing * dielectric matrix)
  average eigenvalue GAMMA=   0.7141
  1.6733  0.9715  0.9715  0.4875  0.4875  0.6773  0.6773  0.3998  0.3998  0.3955

 Free energy of the ion-electron system (eV)
  ---------------------------------------------------
  alpha Z        PSCENC =        23.27933002
  Ewald energy   TEWEN  =      7519.48427785
  -Hartree energ DENC   =    -10358.56572647
  -exchange      EXHF   =         0.00000000
  -V(xc)+E(xc)   XCENC  =        80.58622758
  PAW double counting   =      1577.40156845    -1553.11998938
  entropy T*S    EENTRO =         0.00000000
  eigenvalues    EBANDS =      -545.46180222
  atomic energy  EATOM  =      3214.16218276
  Solvation  Ediel_sol  =         0.00000000
  ---------------------------------------------------
  free energy    TOTEN  =       -42.23393142 eV

  energy without entropy =      -42.23393142  energy(sigma->0) =      -42.23393142


--------------------------------------------------------------------------------------------------------




--------------------------------------- Iteration      1(  16)  ---------------------------------------


    POTLOK:  cpu time   51.9840: real time   52.1945
    SETDIJ:  cpu time    0.0360: real time    0.0385
     EDDAV:  cpu time   31.3880: real time   31.8577
 BZINTS: Fermi energy: -4.333479; 61.991953 electrons
         Band energy:-546.396960;  BLOECHL correction: -0.000548
       DOS:  cpu time    0.0080: real time    0.0097
    CHARGE:  cpu time    2.0640: real time    2.0794
    MIXING:  cpu time    0.0520: real time    0.0554
    --------------------------------------------
      LOOP:  cpu time   85.5320: real time   86.2353

 eigenvalue-minimisations  :  1408
 total energy-change (2. order) : 0.1539322E+00  (-0.2401340E-02)
 number of electron      61.9919531 magnetization       6.7966915
 augmentation part        1.8579053 magnetization       4.6220458

 Broyden mixing:
  rms(total) = 0.50337E+00    rms(broyden)= 0.50337E+00
  rms(prec ) = 0.52980E+00
  weight for this iteration     100.00

 eigenvalues of (default mixing * dielectric matrix)
  average eigenvalue GAMMA=   0.7775
  1.3676  1.3676  1.5802  0.4864  0.4864  0.7922  0.7922  0.4015  0.4015  0.4108
  0.4656

 Free energy of the ion-electron system (eV)
  ---------------------------------------------------
  alpha Z        PSCENC =        23.27933002
  Ewald energy   TEWEN  =      7519.48427785
  -Hartree energ DENC   =    -10357.50637449
  -exchange      EXHF   =         0.00000000
  -V(xc)+E(xc)   XCENC  =        80.79759499
  PAW double counting   =      1576.40431340    -1552.30436387
  entropy T*S    EENTRO =         0.00000000
  eigenvalues    EBANDS =      -546.39695985
  atomic energy  EATOM  =      3214.16218276
  Solvation  Ediel_sol  =         0.00000000
  ---------------------------------------------------
  free energy    TOTEN  =       -42.07999919 eV

  energy without entropy =      -42.07999919  energy(sigma->0) =      -42.07999919


--------------------------------------------------------------------------------------------------------




--------------------------------------- Iteration      1(  17)  ---------------------------------------


    POTLOK:  cpu time   51.7880: real time   51.9989
    SETDIJ:  cpu time    0.0360: real time    0.0363
     EDDAV:  cpu time   33.2000: real time   33.4612
 BZINTS: Fermi energy: -4.347342; 62.031058 electrons
         Band energy:-547.069427;  BLOECHL correction: -0.003594
       DOS:  cpu time    0.0080: real time    0.0091
    CHARGE:  cpu time    2.0320: real time    2.0413
    MIXING:  cpu time    0.0480: real time    0.0484
    --------------------------------------------
      LOOP:  cpu time   87.1120: real time   87.5952

 eigenvalue-minimisations  :  1488
 total energy-change (2. order) :-0.1915500E+00  (-0.1169607E-02)
 number of electron      62.0310579 magnetization       6.9644028
 augmentation part        1.8833661 magnetization       4.7436380

 Broyden mixing:
  rms(total) = 0.47338E+00    rms(broyden)= 0.47338E+00
  rms(prec ) = 0.49770E+00
  weight for this iteration     100.00

 eigenvalues of (default mixing * dielectric matrix)
  average eigenvalue GAMMA=   0.8615
  1.8210  1.8210  1.8467  0.4856  0.4856  0.8224  0.8224  0.4012  0.4012  0.3950
  0.5181  0.5181

 Free energy of the ion-electron system (eV)
  ---------------------------------------------------
  alpha Z        PSCENC =        23.27933002
  Ewald energy   TEWEN  =      7519.48427785
  -Hartree energ DENC   =    -10356.93932049
  -exchange      EXHF   =         0.00000000
  -V(xc)+E(xc)   XCENC  =        80.80277579
  PAW double counting   =      1576.14644272    -1552.13781103
  entropy T*S    EENTRO =         0.00000000
  eigenvalues    EBANDS =      -547.06942683
  atomic energy  EATOM  =      3214.16218276
  Solvation  Ediel_sol  =         0.00000000
  ---------------------------------------------------
  free energy    TOTEN  =       -42.27154922 eV

  energy without entropy =      -42.27154922  energy(sigma->0) =      -42.27154922


--------------------------------------------------------------------------------------------------------




--------------------------------------- Iteration      1(  18)  ---------------------------------------


    POTLOK:  cpu time   51.3800: real time   52.3519
    SETDIJ:  cpu time    0.0240: real time    0.0280
     EDDAV:  cpu time   32.3360: real time   32.7531
 BZINTS: Fermi energy: -4.388104; 61.985596 electrons
         Band energy:-547.801711;  BLOECHL correction: -0.001201
       DOS:  cpu time    0.0040: real time    0.0095
    CHARGE:  cpu time    2.0720: real time    2.0879
    MIXING:  cpu time    0.0480: real time    0.0531
    --------------------------------------------
      LOOP:  cpu time   85.8640: real time   87.2834

 eigenvalue-minimisations  :  1440
 total energy-change (2. order) : 0.1576479E+00  (-0.9136864E-02)
 number of electron      61.9855959 magnetization       7.0666858
 augmentation part        1.9749801 magnetization       4.8148164

 Broyden mixing:
  rms(total) = 0.32350E+00    rms(broyden)= 0.32349E+00
  rms(prec ) = 0.34228E+00
  weight for this iteration     100.00

 eigenvalues of (default mixing * dielectric matrix)
  average eigenvalue GAMMA=   0.9536
  2.3885  2.3885  1.9740  0.9396  0.9396  0.4856  0.4856  0.4012  0.4012  0.5914
  0.5914  0.3924  0.4180

 Free energy of the ion-electron system (eV)
  ---------------------------------------------------
  alpha Z        PSCENC =        23.27933002
  Ewald energy   TEWEN  =      7519.48427785
  -Hartree energ DENC   =    -10355.90997786
  -exchange      EXHF   =         0.00000000
  -V(xc)+E(xc)   XCENC  =        81.08370887
  PAW double counting   =      1576.64701787    -1553.05873001
  entropy T*S    EENTRO =         0.00000000
  eigenvalues    EBANDS =      -547.80171080
  atomic energy  EATOM  =      3214.16218276
  Solvation  Ediel_sol  =         0.00000000
  ---------------------------------------------------
  free energy    TOTEN  =       -42.11390130 eV

  energy without entropy =      -42.11390130  energy(sigma->0) =      -42.11390130


--------------------------------------------------------------------------------------------------------




--------------------------------------- Iteration      1(  19)  ---------------------------------------


    POTLOK:  cpu time   52.2160: real time   52.2944
    SETDIJ:  cpu time    0.0360: real time    0.0370
     EDDAV:  cpu time   28.1320: real time   28.8283
 BZINTS: Fermi energy: -4.380435; 61.984405 electrons
         Band energy:-546.704237;  BLOECHL correction: -0.001291
       DOS:  cpu time    0.0040: real time    0.0092
    CHARGE:  cpu time    2.0160: real time    2.0453
    MIXING:  cpu time    0.0560: real time    0.0582
    --------------------------------------------
      LOOP:  cpu time   82.4600: real time   83.2725

 eigenvalue-minimisations  :  1264
 total energy-change (2. order) :-0.3105276E-01  (-0.3843250E-02)
 number of electron      61.9844056 magnetization       7.1430398
 augmentation part        1.9736334 magnetization       4.8806137

 Broyden mixing:
  rms(total) = 0.31666E+00    rms(broyden)= 0.31666E+00
  rms(prec ) = 0.33460E+00
  weight for this iteration     100.00

 eigenvalues of (default mixing * dielectric matrix)
  average eigenvalue GAMMA=   0.9557
  2.5422  2.5422  1.6993  1.0458  1.0458  0.4856  0.4856  0.4012  0.4012  0.6528
  0.6528  0.3968  0.5143  0.5143

 Free energy of the ion-electron system (eV)
  ---------------------------------------------------
  alpha Z        PSCENC =        23.27933002
  Ewald energy   TEWEN  =      7519.48427785
  -Hartree energ DENC   =    -10356.81949782
  -exchange      EXHF   =         0.00000000
  -V(xc)+E(xc)   XCENC  =        81.05075243
  PAW double counting   =      1579.19273054    -1555.79049325
  entropy T*S    EENTRO =         0.00000000
  eigenvalues    EBANDS =      -546.70423658
  atomic energy  EATOM  =      3214.16218276
  Solvation  Ediel_sol  =         0.00000000
  ---------------------------------------------------
  free energy    TOTEN  =       -42.14495406 eV

  energy without entropy =      -42.14495406  energy(sigma->0) =      -42.14495406


--------------------------------------------------------------------------------------------------------




--------------------------------------- Iteration      1(  20)  ---------------------------------------


    POTLOK:  cpu time   50.7720: real time   52.7149
    SETDIJ:  cpu time    0.0400: real time    0.0382
     EDDAV:  cpu time   30.2960: real time   31.3088
 BZINTS: Fermi energy: -4.375545; 62.023624 electrons
         Band energy:-546.271530;  BLOECHL correction: -0.005541
       DOS:  cpu time    0.0080: real time    0.0093
    CHARGE:  cpu time    2.0520: real time    2.0537
    MIXING:  cpu time    0.0520: real time    0.0552
    --------------------------------------------
      LOOP:  cpu time   83.2200: real time   86.1801

 eigenvalue-minimisations  :  1376
 total energy-change (2. order) :-0.1928446E+00  (-0.7855730E-03)
 number of electron      62.0236244 magnetization       7.2551155
 augmentation part        1.9880158 magnetization       4.9431426

 Broyden mixing:
  rms(total) = 0.31056E+00    rms(broyden)= 0.31055E+00
  rms(prec ) = 0.32662E+00
  weight for this iteration     100.00

 eigenvalues of (default mixing * dielectric matrix)
  average eigenvalue GAMMA=   1.0429
  2.7564  2.7564  1.7414  1.7414  1.2167  0.4856  0.4856  0.8004  0.8004  0.4012
  0.4012  0.3972  0.5430  0.5430  0.5739

 Free energy of the ion-electron system (eV)
  ---------------------------------------------------
  alpha Z        PSCENC =        23.27933002
  Ewald energy   TEWEN  =      7519.48427785
  -Hartree energ DENC   =    -10357.38705226
  -exchange      EXHF   =         0.00000000
  -V(xc)+E(xc)   XCENC  =        81.06560854
  PAW double counting   =      1580.45210934    -1557.12272457
  entropy T*S    EENTRO =         0.00000000
  eigenvalues    EBANDS =      -546.27153032
  atomic energy  EATOM  =      3214.16218276
  Solvation  Ediel_sol  =         0.00000000
  ---------------------------------------------------
  free energy    TOTEN  =       -42.33779864 eV

  energy without entropy =      -42.33779864  energy(sigma->0) =      -42.33779864


--------------------------------------------------------------------------------------------------------




--------------------------------------- Iteration      1(  21)  ---------------------------------------


    POTLOK:  cpu time   51.4320: real time   52.6228
    SETDIJ:  cpu time    0.0400: real time    0.0393
     EDDAV:  cpu time   30.8520: real time   32.3782
 BZINTS: Fermi energy: -4.372967; 61.983567 electrons
         Band energy:-545.793926;  BLOECHL correction: -0.001430
       DOS:  cpu time    0.0080: real time    0.0091
    CHARGE:  cpu time    2.0160: real time    2.0255
    MIXING:  cpu time    0.0560: real time    0.0553
    --------------------------------------------
      LOOP:  cpu time   84.4040: real time   87.1303

 eigenvalue-minimisations  :  1424
 total energy-change (2. order) : 0.1799823E+00  (-0.2047539E-02)
 number of electron      61.9835673 magnetization       7.2678458
 augmentation part        2.0886980 magnetization       4.9301124

 Broyden mixing:
  rms(total) = 0.22648E+00    rms(broyden)= 0.22648E+00
  rms(prec ) = 0.23623E+00
  weight for this iteration     100.00

 eigenvalues of (default mixing * dielectric matrix)
  average eigenvalue GAMMA=   0.9955
  2.7645  2.7645  1.8280  1.8280  1.1386  0.4856  0.4856  0.8085  0.8085  0.4012
  0.4012  0.3974  0.5478  0.5478  0.5589  0.1623

 Free energy of the ion-electron system (eV)
  ---------------------------------------------------
  alpha Z        PSCENC =        23.27933002
  Ewald energy   TEWEN  =      7519.48427785
  -Hartree energ DENC   =    -10357.74242402
  -exchange      EXHF   =         0.00000000
  -V(xc)+E(xc)   XCENC  =        81.18389490
  PAW double counting   =      1580.70273096    -1557.43388299
  entropy T*S    EENTRO =         0.00000000
  eigenvalues    EBANDS =      -545.79392584
  atomic energy  EATOM  =      3214.16218276
  Solvation  Ediel_sol  =         0.00000000
  ---------------------------------------------------
  free energy    TOTEN  =       -42.15781635 eV

  energy without entropy =      -42.15781635  energy(sigma->0) =      -42.15781635


--------------------------------------------------------------------------------------------------------




--------------------------------------- Iteration      1(  22)  ---------------------------------------


    POTLOK:  cpu time   51.5840: real time   52.2575
    SETDIJ:  cpu time    0.0520: real time    0.0514
     EDDAV:  cpu time   26.5000: real time   26.9980
 BZINTS: Fermi energy: -4.372912; 62.024243 electrons
         Band energy:-545.959290;  BLOECHL correction: -0.005829
       DOS:  cpu time    0.0080: real time    0.0096
    CHARGE:  cpu time    2.0160: real time    2.0339
    MIXING:  cpu time    0.0560: real time    0.0585
    --------------------------------------------
      LOOP:  cpu time   80.2160: real time   81.4089

 eigenvalue-minimisations  :  1168
 total energy-change (2. order) :-0.1839996E+00  (-0.3640789E-03)
 number of electron      62.0242431 magnetization       7.2495261
 augmentation part        2.1035470 magnetization       4.8761849

 Broyden mixing:
  rms(total) = 0.22674E+00    rms(broyden)= 0.22674E+00
  rms(prec ) = 0.23517E+00
  weight for this iteration     100.00

 eigenvalues of (default mixing * dielectric matrix)
  average eigenvalue GAMMA=   0.9460
  2.7527  2.7527  1.8480  1.8480  1.1210  0.4856  0.4856  0.8028  0.8028  0.4012
  0.4012  0.3975  0.5465  0.5465  0.5621  0.1638  0.1638

 Free energy of the ion-electron system (eV)
  ---------------------------------------------------
  alpha Z        PSCENC =        23.27933002
  Ewald energy   TEWEN  =      7519.48427785
  -Hartree energ DENC   =    -10357.72192950
  -exchange      EXHF   =         0.00000000
  -V(xc)+E(xc)   XCENC  =        81.15573959
  PAW double counting   =      1580.71759300    -1557.45971942
  entropy T*S    EENTRO =         0.00000000
  eigenvalues    EBANDS =      -545.95929026
  atomic energy  EATOM  =      3214.16218276
  Solvation  Ediel_sol  =         0.00000000
  ---------------------------------------------------
  free energy    TOTEN  =       -42.34181596 eV

  energy without entropy =      -42.34181596  energy(sigma->0) =      -42.34181596


--------------------------------------------------------------------------------------------------------




--------------------------------------- Iteration      1(  23)  ---------------------------------------


    POTLOK:  cpu time   51.6640: real time   52.5613
    SETDIJ:  cpu time    0.0360: real time    0.0371
     EDDAV:  cpu time   27.2400: real time   27.6434
 BZINTS: Fermi energy: -4.373674; 61.983669 electrons
         Band energy:-545.882408;  BLOECHL correction: -0.001426
       DOS:  cpu time    0.0040: real time    0.0086
    CHARGE:  cpu time    2.0360: real time    2.0490
    MIXING:  cpu time    0.0600: real time    0.0620
    --------------------------------------------
      LOOP:  cpu time   81.0400: real time   82.3612

 eigenvalue-minimisations  :  1200
 total energy-change (2. order) : 0.1857243E+00  (-0.4837076E-03)
 number of electron      61.9836688 magnetization       7.2653799
 augmentation part        2.0825730 magnetization       4.9234710

 Broyden mixing:
  rms(total) = 0.23134E+00    rms(broyden)= 0.23133E+00
  rms(prec ) = 0.24148E+00
  weight for this iteration     100.00

 eigenvalues of (default mixing * dielectric matrix)
  average eigenvalue GAMMA=   0.9766
  2.8052  2.8052  2.0261  2.0261  0.4856  0.4856  0.8714  0.8714  0.9232  0.4012
  0.4012  0.6322  0.6322  0.5186  0.3982  0.4475  0.4475  0.4004

 Free energy of the ion-electron system (eV)
  ---------------------------------------------------
  alpha Z        PSCENC =        23.27933002
  Ewald energy   TEWEN  =      7519.48427785
  -Hartree energ DENC   =    -10357.64485753
  -exchange      EXHF   =         0.00000000
  -V(xc)+E(xc)   XCENC  =        81.15909215
  PAW double counting   =      1580.61933612    -1557.33304470
  entropy T*S    EENTRO =         0.00000000
  eigenvalues    EBANDS =      -545.88240833
  atomic energy  EATOM  =      3214.16218276
  Solvation  Ediel_sol  =         0.00000000
  ---------------------------------------------------
  free energy    TOTEN  =       -42.15609165 eV

  energy without entropy =      -42.15609165  energy(sigma->0) =      -42.15609165


--------------------------------------------------------------------------------------------------------




--------------------------------------- Iteration      1(  24)  ---------------------------------------


    POTLOK:  cpu time   52.1600: real time   52.5416
    SETDIJ:  cpu time    0.0440: real time    0.0440
     EDDAV:  cpu time   25.9000: real time   26.3089
 BZINTS: Fermi energy: -4.377191; 62.023754 electrons
         Band energy:-546.143461;  BLOECHL correction: -0.005747
       DOS:  cpu time    0.0080: real time    0.0087
    CHARGE:  cpu time    2.0480: real time    2.0483
    MIXING:  cpu time    0.0560: real time    0.0612
    --------------------------------------------
      LOOP:  cpu time   80.2160: real time   81.0126

 eigenvalue-minimisations  :  1136
 total energy-change (2. order) :-0.1829809E+00  (-0.1666870E-03)
 number of electron      62.0237538 magnetization       7.2858294
 augmentation part        2.0893104 magnetization       4.9026940

 Broyden mixing:
  rms(total) = 0.23466E+00    rms(broyden)= 0.23465E+00
  rms(prec ) = 0.24397E+00
  weight for this iteration     100.00

 eigenvalues of (default mixing * dielectric matrix)
  average eigenvalue GAMMA=   1.0032
  2.8516  2.8516  2.1741  2.1741  0.5932  0.9866  0.9866  0.4856  0.4856  0.8675
  0.7391  0.7391  0.4012  0.4012  0.3972  0.4935  0.4935  0.4699  0.4699

 Free energy of the ion-electron system (eV)
  ---------------------------------------------------
[...]
     34      -0.5644      0.00000
     35      -0.2470      0.00000
     36      -0.2190      0.00000
     37       0.1477      0.00000
     38       1.0934      0.00000
     39       1.1159      0.00000
     40       1.4442      0.00000
     41       1.9816      0.00000
     42       2.0703      0.00000
     43       2.7017      0.00000
     44       2.9458      0.00000
     45       3.6969      0.00000
     46       3.9294      0.00000
     47       4.0694      0.00000
     48       4.3426      0.00000

 k-point     5 :      -0.4000    0.2000    0.0000
  band No.  band energies     occupation 
      1     -18.2678      1.00000
      2     -16.7101      1.00000
      3     -16.4299      1.00000
      4     -16.0139      1.00000
      5     -15.5837      1.00000
      6     -15.4507      1.00000
      7     -12.4172      1.00000
      8     -11.0018      1.00000
      9      -8.8331      1.00000
     10      -8.3782      1.00000
     11      -8.3414      1.00000
     12      -7.8320      1.00000
     13      -7.4052      1.00000
     14      -6.6063      1.00000
     15      -6.1263      1.00000
     16      -6.0532      1.00000
     17      -5.9502      1.00000
     18      -5.8312      1.00000
     19      -5.8092      1.00000
     20      -5.2527      1.00000
     21      -5.1847      1.00000
     22      -4.3842      1.00000
     23      -4.2893      1.00000
     24      -4.2062      1.00000
     25      -4.0400      1.00000
     26      -3.2253      1.00000
     27      -2.6303      1.00000
     28      -2.5836      1.00000
     29      -2.0373      1.00000
     30      -2.0052      1.00000
     31      -1.9323      1.00000
     32      -1.4710      0.00000
     33      -0.8962      0.00000
     34      -0.6989      0.00000
     35      -0.2595      0.00000
     36      -0.1524      0.00000
     37       0.2574      0.00000
     38       0.5985      0.00000
     39       1.1450      0.00000
     40       1.4600      0.00000
     41       1.6973      0.00000
     42       1.8364      0.00000
     43       3.2977      0.00000
     44       3.5167      0.00000
     45       3.5820      0.00000
     46       3.7139      0.00000
     47       3.9261      0.00000
     48       4.2024      0.00000


--------------------------------------------------------------------------------------------------------


 soft charge-density along one line, spin component           1
         0         1         2         3         4         5         6         7         8         9
 total charge-density along one line

 soft charge-density along one line, spin component           2
         0         1         2         3         4         5         6         7         8         9
 total charge-density along one line

 pseudopotential strength for first ion, spin component:           1
 -9.536  -0.069  -0.000   0.000  -0.000   0.483   0.021   0.000
 -0.069  -9.653   0.000   0.000   0.000   0.021   0.518  -0.000
 -0.000   0.000  -9.527   0.000   0.000   0.000  -0.000   0.480
  0.000   0.000   0.000  -9.653   0.070  -0.000  -0.000  -0.000
 -0.000   0.000   0.000   0.070  -9.536   0.000  -0.000  -0.000
  0.483   0.021   0.000  -0.000   0.000   0.598  -0.007  -0.000
  0.021   0.518  -0.000  -0.000  -0.000  -0.007   0.586   0.000
  0.000  -0.000   0.480  -0.000  -0.000  -0.000   0.000   0.600
 -0.000  -0.000  -0.000   0.518  -0.021   0.000   0.000   0.000
  0.000  -0.000  -0.000  -0.021   0.483  -0.000   0.000   0.000
 -0.000  -0.000   0.008  -0.000   0.000  -0.000  -0.000  -0.002
  0.000   0.000  -0.001   0.000  -0.000  -0.000  -0.000   0.000
 -0.000  -0.000   0.000  -0.000   0.002  -0.000   0.000  -0.000
 -0.000  -0.000  -0.000  -0.000   0.000  -0.000   0.000   0.000
  0.002  -0.000   0.000  -0.000   0.000  -0.000  -0.000  -0.000
  0.000   0.000  -0.000   0.000  -0.002  -0.000  -0.000   0.000
  0.000   0.000   0.000   0.000  -0.000  -0.000  -0.000  -0.000
 -0.002   0.000  -0.000   0.000  -0.000   0.000  -0.000   0.000
 pseudopotential strength for first ion, spin component:           2
 -9.536  -0.069  -0.000   0.000  -0.000   0.483   0.021   0.000
 -0.069  -9.653   0.000   0.000   0.000   0.021   0.518  -0.000
 -0.000   0.000  -9.527   0.000   0.000   0.000  -0.000   0.480
  0.000   0.000   0.000  -9.653   0.070  -0.000  -0.000  -0.000
 -0.000   0.000   0.000   0.070  -9.536   0.000  -0.000  -0.000
  0.483   0.021   0.000  -0.000   0.000   0.598  -0.007  -0.000
  0.021   0.518  -0.000  -0.000  -0.000  -0.007   0.586   0.000
  0.000  -0.000   0.480  -0.000  -0.000  -0.000   0.000   0.600
 -0.000  -0.000  -0.000   0.518  -0.021   0.000   0.000   0.000
  0.000  -0.000  -0.000  -0.021   0.483  -0.000   0.000   0.000
 -0.000  -0.000   0.008  -0.000   0.000  -0.000  -0.000  -0.002
  0.000   0.000  -0.001   0.000  -0.000  -0.000  -0.000   0.000
 -0.000  -0.000   0.000  -0.000   0.002  -0.000   0.000  -0.000
 -0.000  -0.000  -0.000  -0.000   0.000  -0.000   0.000   0.000
  0.002  -0.000   0.000  -0.000   0.000  -0.000  -0.000  -0.000
  0.000   0.000  -0.000   0.000  -0.002  -0.000  -0.000   0.000
  0.000   0.000   0.000   0.000  -0.000  -0.000  -0.000  -0.000
 -0.002   0.000  -0.000   0.000  -0.000   0.000  -0.000   0.000
 total augmentation occupancy for first ion, spin component:           1
  1.553  -0.404   0.000   0.000  -0.000   0.170   0.198   0.000  -0.000   0.000  -0.000   0.000  -0.000   0.000   0.019   0.000
 -0.404   1.136  -0.000  -0.000   0.000   0.189   0.370   0.000  -0.000  -0.000   0.000   0.000  -0.000  -0.000  -0.002   0.000
  0.000  -0.000   1.893  -0.000  -0.000   0.000   0.000  -0.017   0.000  -0.000  -0.008   0.001  -0.000   0.000   0.000  -0.000
  0.000  -0.000  -0.000   1.136   0.404  -0.000   0.000   0.000   0.370  -0.189   0.000   0.000   0.002   0.000  -0.000   0.000
 -0.000   0.000  -0.000   0.404   1.553  -0.000  -0.000  -0.000  -0.198   0.170   0.000  -0.000   0.019  -0.000   0.000   0.001
  0.170   0.189   0.000  -0.000  -0.000   0.180   0.120   0.000  -0.000  -0.000   0.000  -0.000  -0.000   0.000   0.008   0.000
  0.198   0.370   0.000   0.000  -0.000   0.120   0.282   0.000  -0.000  -0.000   0.000  -0.000  -0.000   0.000  -0.002   0.000
  0.000   0.000  -0.017   0.000  -0.000   0.000   0.000   0.132   0.000  -0.000   0.036  -0.013  -0.000   0.000   0.000   0.000
 -0.000  -0.000   0.000   0.370  -0.198  -0.000  -0.000   0.000   0.282  -0.120  -0.000   0.000   0.002  -0.000  -0.000  -0.001
  0.000  -0.000  -0.000  -0.189   0.170  -0.000  -0.000  -0.000  -0.120   0.180  -0.000   0.000   0.008  -0.000   0.000  -0.003
 -0.000   0.000  -0.008   0.000   0.000   0.000   0.000   0.036  -0.000  -0.000   1.058  -0.347   0.000  -0.000   0.000  -0.000
  0.000   0.000   0.001   0.000  -0.000  -0.000  -0.000  -0.013  -0.000   0.000  -0.347   0.178   0.000  -0.000   0.000   0.000
 -0.000  -0.000  -0.000   0.002   0.019  -0.000  -0.000  -0.000   0.002   0.008   0.000   0.000   0.202   0.000  -0.000  -0.016
  0.000  -0.000   0.000   0.000  -0.000   0.000   0.000   0.000  -0.000  -0.000  -0.000  -0.000  -0.000   0.207   0.000  -0.000
  0.019  -0.002   0.000  -0.000   0.000   0.008  -0.002   0.000  -0.000   0.000   0.000   0.000  -0.000   0.000   0.202   0.000
  0.000   0.000  -0.000   0.000   0.001   0.000   0.000   0.000  -0.001  -0.003  -0.000   0.000  -0.016   0.000   0.000   0.002
  0.000   0.000   0.000   0.000  -0.000  -0.000  -0.000  -0.000   0.000   0.000   0.000   0.000  -0.000  -0.018  -0.000  -0.000
  0.001  -0.000   0.000   0.000  -0.000  -0.003   0.001  -0.000   0.000  -0.000   0.000  -0.000  -0.000  -0.000  -0.016  -0.000
 total augmentation occupancy for first ion, spin component:           2
  0.000   0.000   0.000   0.000   0.000   0.000   0.000   0.000   0.000  -0.000   0.000   0.000  -0.000   0.000  -0.000   0.000
  0.000   0.000   0.000  -0.000   0.000   0.000   0.000   0.000   0.000   0.000  -0.000   0.000   0.000   0.000   0.000   0.000
  0.000   0.000   0.000   0.000  -0.000   0.000   0.000   0.000   0.000  -0.000   0.000   0.000   0.000   0.000  -0.000  -0.000
  0.000  -0.000   0.000   0.000  -0.000   0.000  -0.000   0.000   0.000  -0.000  -0.000   0.000  -0.000   0.000   0.000   0.000
 -0.000   0.000  -0.000  -0.000   0.000   0.000   0.000  -0.000  -0.000   0.000  -0.000  -0.000  -0.000  -0.000   0.000   0.000
  0.000   0.000   0.000   0.000   0.000  -0.000  -0.000  -0.000   0.000  -0.000  -0.000   0.000   0.000  -0.000  -0.000   0.000
  0.000   0.000   0.000  -0.000   0.000  -0.000   0.000  -0.000  -0.000   0.000   0.000   0.000   0.000  -0.000   0.000   0.000
  0.000   0.000   0.000   0.000  -0.000  -0.000  -0.000  -0.000  -0.000   0.000  -0.000   0.000   0.000  -0.000  -0.000   0.000
  0.000   0.000   0.000   0.000  -0.000   0.000  -0.000  -0.000   0.000   0.000   0.000   0.000  -0.000   0.000   0.000   0.000
 -0.000   0.000  -0.000  -0.000   0.000   0.000   0.000   0.000   0.000  -0.000   0.000  -0.000  -0.000   0.000  -0.000  -0.000
  0.000   0.000   0.000  -0.000  -0.000  -0.000   0.000  -0.000  -0.000   0.000   0.000   0.000   0.000   0.000   0.000   0.000
  0.000   0.000   0.000   0.000  -0.000   0.000   0.000   0.000   0.000  -0.000   0.000  -0.000   0.000  -0.000   0.000   0.000
 -0.000   0.000   0.000  -0.000  -0.000   0.000   0.000   0.000  -0.000  -0.000  -0.000   0.000   0.000   0.000  -0.000   0.000
  0.000   0.000   0.000   0.000  -0.000  -0.000   0.000  -0.000   0.000   0.000   0.000  -0.000   0.000   0.000   0.000   0.000
 -0.000   0.000  -0.000   0.000   0.000  -0.000   0.000  -0.000   0.000  -0.000  -0.000   0.000  -0.000  -0.000   0.000   0.000
  0.000   0.000  -0.000   0.000   0.000   0.000   0.000   0.000   0.000  -0.000   0.000   0.000   0.000   0.000   0.000  -0.000
  0.000  -0.000   0.000   0.000  -0.000  -0.000   0.000  -0.000  -0.000   0.000   0.000  -0.000   0.000   0.000   0.000  -0.000
  0.000  -0.000   0.000   0.000  -0.000  -0.000  -0.000  -0.000   0.000  -0.000   0.000   0.000  -0.000   0.000   0.000   0.000


------------------------ aborting loop because EDIFF is reached ----------------------------------------





 total charge     

# of ion       s       p       d       tot
------------------------------------------
    1        0.375   0.508   6.482   7.365
    2        0.375   0.508   6.482   7.365
    3        1.020   1.414   0.000   2.434
    4        1.020   1.414   0.000   2.434
    5        1.373   2.320   0.000   3.693
    6        1.360   2.322   0.000   3.683
    7        1.370   2.320   0.000   3.690
    8        1.373   2.320   0.000   3.693
    9        1.360   2.322   0.000   3.683
   10        1.370   2.320   0.000   3.690
--------------------------------------------------
tot         10.996  17.769  12.964  41.729



 magnetization (x)

# of ion       s       p       d       tot
------------------------------------------
    1       -0.000   0.000  -0.000  -0.000
    2       -0.000   0.000  -0.000  -0.000
    3        0.000   0.000   0.000   0.000
    4        0.000   0.000   0.000   0.000
    5       -0.000   0.000   0.000   0.000
    6       -0.000   0.000   0.000   0.000
    7       -0.000   0.000   0.000   0.000
    8       -0.000   0.000   0.000   0.000
    9       -0.000   0.000   0.000   0.000
   10       -0.000   0.000   0.000   0.000
--------------------------------------------------
tot         -0.000   0.000  -0.000  -0.000

    CHARGE:  cpu time    2.0400: real time    2.0393
    FORLOC:  cpu time    0.0520: real time    0.0553
    FORNL :  cpu time    6.9800: real time    6.9832
    STRESS:  cpu time   20.6920: real time   20.9332
    FORCOR:  cpu time   52.4680: real time   52.8925
    FORHAR:  cpu time    0.3240: real time    0.3229
    MIXING:  cpu time    0.0400: real time    0.0436
    OFIELD:  cpu time    0.0000: real time    0.0000

  FORCE on cell =-STRESS in cart. coord.  units (eV):
  Direction    XX          YY          ZZ          XY          YZ          ZX
  --------------------------------------------------------------------------------------
  Alpha Z    38.69238    38.69238    38.69238
  Ewald   11925.61520 11925.61168-14075.42926    -0.00176    -0.00062    -0.00112
  Hartree 12409.43342 12409.43399-12109.88783    -0.00015     0.00005     0.00009
  E(xc)    -244.91996  -244.91997  -244.86766     0.00002     0.00000     0.00001
  Local  -25291.60113-25291.59984 25176.03815     0.00140     0.00036     0.00066
  n-local   483.73616   484.57163   493.29497     0.36000     0.30279     0.31239
  augment   -47.40006   -47.39997   -53.39198     0.00002     0.00004     0.00004
  Kinetic   728.99921   722.96581   775.49108    -3.84225     0.06233     0.15732
  Fock        0.00000     0.00000     0.00000     0.00000     0.00000     0.00000
  -------------------------------------------------------------------------------------
  Total      -0.04454    -0.04454    -0.06016     0.00000     0.00000     0.00000
  in kB      -0.12242    -0.12242    -0.16537     0.00000     0.00000     0.00000
  external pressure =       -0.14 kB  Pullay stress =        0.00 kB


 VOLUME and BASIS-vectors are now :
 -----------------------------------------------------------------------------
  energy-cutoff  :      520.00
  volume of cell :      582.90
      direct lattice vectors                 reciprocal lattice vectors
     5.763252696 -0.000000639  0.000000000     0.173513116 -0.100177865  0.000000000
     2.881626655  4.991122743  0.000000000     0.000000022  0.200355709  0.000000000
    -0.000000000 -0.000000000 20.264174269    -0.000000000 -0.000000000  0.049348174

  length of vectors
     5.763252696  5.763252416 20.264174269     0.200355699  0.200355709  0.049348174


 FORCES acting on ions
    electron-ion (+dipol)            ewald-force                    non-local-force                 convergence-correction
 -----------------------------------------------------------------------------------------------
   -.193E-03 -.118E-03 0.858E+00   0.726E-03 0.425E-03 -.867E+00   0.416E-16 -.258E-21 0.129E-01   0.127E-06 0.206E-07 -.382E-03
   0.193E-03 0.118E-03 -.858E+00   -.726E-03 -.425E-03 0.867E+00   -.416E-16 -.139E-16 -.129E-01   -.127E-06 -.206E-07 0.382E-03
   -.374E-04 -.250E-04 0.350E+03   -.284E-03 -.160E-03 -.346E+03   -.416E-16 -.341E-17 -.311E+01   0.109E-07 0.390E-08 0.198E-02
   0.374E-04 0.250E-04 -.350E+03   0.284E-03 0.160E-03 0.346E+03   0.416E-16 0.341E-17 0.311E+01   -.109E-07 -.390E-08 -.198E-02
   -.451E+01 -.207E-01 -.565E+03   -.233E+00 0.304E-01 0.569E+03   0.475E+01 -.139E-01 -.442E+01   -.612E-02 -.106E-03 -.578E-02
   0.224E+01 0.391E+01 -.565E+03   0.142E+00 0.186E+00 0.569E+03   -.239E+01 -.411E+01 -.442E+01   0.297E-02 0.536E-02 -.578E-02
   0.227E+01 -.390E+01 -.565E+03   0.900E-01 -.217E+00 0.569E+03   -.236E+01 0.412E+01 -.442E+01   0.315E-02 -.525E-02 -.578E-02
   0.451E+01 0.207E-01 0.565E+03   0.233E+00 -.304E-01 -.569E+03   -.475E+01 0.139E-01 0.442E+01   0.612E-02 0.106E-03 0.578E-02
   -.224E+01 -.391E+01 0.565E+03   -.142E+00 -.186E+00 -.569E+03   0.239E+01 0.411E+01 0.442E+01   -.297E-02 -.536E-02 0.578E-02
   -.227E+01 0.390E+01 0.565E+03   -.900E-01 0.217E+00 -.569E+03   0.236E+01 -.412E+01 0.442E+01   -.315E-02 0.525E-02 0.578E-02
 -----------------------------------------------------------------------------------------------
   0.177E-09 0.216E-09 0.946E-09   -.167E-13 0.838E-14 0.000E+00   -.178E-14 0.888E-15 0.888E-15   0.221E-13 0.393E-12 0.328E-10


 POSITION                                       TOTAL-FORCE (eV/Angst)
 -----------------------------------------------------------------------------------
      2.88162      1.66371     10.13063        -0.000000      0.000000      0.002948
      5.76326      3.32742     10.13354        -0.000000      0.000000     -0.002948
     -0.00000     -0.00000      9.05745        -0.000000      0.000000      0.015960
     -0.00000     -0.00000     11.20673        -0.000000      0.000000     -0.015960
      3.66776      0.00091     11.53794         0.004877     -0.003513      0.001877
      1.04854      1.81430     11.53794        -0.005481     -0.002467      0.001877
      3.92859      3.17592     11.53794         0.000604      0.005980      0.001877
      4.97712      4.99021      8.72623        -0.004877      0.003513     -0.001877
      7.59634      3.17682      8.72623         0.005481      0.002467     -0.001877
      4.71629      1.81520      8.72623        -0.000604     -0.005980     -0.001877
 -----------------------------------------------------------------------------------
    total drift:                                0.000000      0.000000      0.000000


--------------------------------------------------------------------------------------------------------



  FREE ENERGIE OF THE ION-ELECTRON SYSTEM (eV)
  ---------------------------------------------------
  free  energy   TOTEN  =       -50.52296855 eV

  energy  without entropy=      -50.52296855  energy(sigma->0) =      -50.52296855

 d Force = 0.9905379E-04[ 0.235E-04, 0.175E-03]  d Energy = 0.5982906E-03-0.499E-03
 d Force =-0.1869360E+01[-0.187E+01,-0.187E+01]  d Ewald  = 0.4221572E+01-0.609E+01


--------------------------------------------------------------------------------------------------------


    POTLOK:  cpu time   52.5400: real time   52.8481


--------------------------------------------------------------------------------------------------------




--------------------------------------------------------------------------------------------------------


  
 reached required accuracy - stopping structural energy minimisation
     LOOP+:  cpu time  528.2520: real time  532.3948
    4ORBIT:  cpu time    0.0000: real time    0.0000



 total charge     

# of ion       s       p       d       tot
------------------------------------------
    1        0.375   0.508   6.482   7.365
    2        0.375   0.508   6.482   7.365
    3        1.020   1.414   0.000   2.434
    4        1.020   1.414   0.000   2.434
    5        1.373   2.320   0.000   3.693
    6        1.360   2.322   0.000   3.683
    7        1.370   2.320   0.000   3.690
    8        1.373   2.320   0.000   3.693
    9        1.360   2.322   0.000   3.683
   10        1.370   2.320   0.000   3.690
--------------------------------------------------
tot         10.996  17.769  12.964  41.729



 magnetization (x)

# of ion       s       p       d       tot
------------------------------------------
    1       -0.000   0.000  -0.000  -0.000
    2       -0.000   0.000  -0.000  -0.000
    3        0.000   0.000   0.000   0.000
    4        0.000   0.000   0.000   0.000
    5       -0.000   0.000   0.000   0.000
    6       -0.000   0.000   0.000   0.000
    7       -0.000   0.000   0.000   0.000
    8       -0.000   0.000   0.000   0.000
    9       -0.000   0.000   0.000   0.000
   10       -0.000   0.000   0.000   0.000
--------------------------------------------------
tot         -0.000   0.000  -0.000  -0.000

 BZINTS: Fermi energy: -1.887583; 62.000000 electrons
         Band energy:-481.429803;  BLOECHL correction:  0.000000

 total amount of memory used by VASP MPI-rank0   131831. kBytes
=======================================================================

   base      :      30000. kBytes
   nonlr-proj:      11536. kBytes
   fftplans  :      11247. kBytes
   grid      :      66142. kBytes
   one-center:        311. kBytes
   wavefun   :      12595. kBytes

  
  
 General timing and accounting informations for this job:
 ========================================================
  
                  Total CPU time used (sec):    12423.092
                            User time (sec):    12060.396
                          System time (sec):      362.696
                         Elapsed time (sec):    12571.884
  
                   Maximum memory used (kb):      384556.
                   Average memory used (kb):           0.
  
                          Minor page faults:     11582245
                          Major page faults:            6
                 Voluntary context switches:         1104
