 vasp.5.4.4.18Apr17-6-g9f103f2a35 (build May  1 2020 15:48:39) complex           
 executed on             LinuxGNU date 2020.06.27  09:44:16
 running on   16 total cores
 distrk:  each k-point on   16 cores,    1 groups
 distr:  one band on NCORES_PER_BAND=   1 cores,   16 groups


--------------------------------------------------------------------------------------------------------


 INCAR:
 POTCAR:   PAW_PBE Co 06Sep2000                   
 POTCAR:   PAW_PBE Ge 05Jan2001                   
 POTCAR:   PAW_PBE Te 08Apr2002                   

 ----------------------------------------------------------------------------- 
|                                                                             |
|           W    W    AA    RRRRR   N    N  II  N    N   GGGG   !!!           |
|           W    W   A  A   R    R  NN   N  II  NN   N  G    G  !!!           |
|           W    W  A    A  R    R  N N  N  II  N N  N  G       !!!           |
|           W WW W  AAAAAA  RRRRR   N  N N  II  N  N N  G  GGG   !            |
|           WW  WW  A    A  R   R   N   NN  II  N   NN  G    G                |
|           W    W  A    A  R    R  N    N  II  N    N   GGGG   !!!           |
|                                                                             |
|      For optimal performance we recommend to set                            |
|        NCORE= 4 - approx SQRT( number of cores)                             |
|      NCORE specifies how many cores store one orbital (NPAR=cpu/NCORE).     |
|      This setting can  greatly improve the performance of VASP for DFT.     |
|      The default,   NCORE=1            might be grossly inefficient         |
|      on modern multi-core architectures or massively parallel machines.     |
|      Do your own testing !!!!                                               |
|      Unfortunately you need to use the default for GW and RPA calculations. |
|      (for HF NCORE is supported but not extensively tested yet)             |
|                                                                             |
 ----------------------------------------------------------------------------- 


 ----------------------------------------------------------------------------- 
|                                                                             |
|  ADVICE TO THIS USER RUNNING 'VASP/VAMP'   (HEAR YOUR MASTER'S VOICE ...):  |
|                                                                             |
|      You have switched on vdW-DFT.                                          |
|      This routine was written and supplied by Jiri Klimes.                  |
|      We recommed that you carefully read and cite the following             |
|      publication                                                            |
|      J. Klimes, D.R. Bowler, A. Michelides                                  |
|        J. Phys.: Cond Matt. 22 022201 (2010)                                |
|      J. Klimes, D.R. Bowler, A. Michelides                                  |
|        Phys. Rev. B. 83, 195131 (2011)                                      |
|      and references therein.                                                |
|                                                                             |
 ----------------------------------------------------------------------------- 

 POTCAR:   PAW_PBE Co 06Sep2000                   
   VRHFIN =Co: d8 s1                                                            
   LEXCH  = PE                                                                  
   EATOM  =   813.5563 eV,   59.7947 Ry                                         
                                                                                
   TITEL  = PAW_PBE Co 06Sep2000                                                
   LULTRA =        F    use ultrasoft PP ?                                      
   IUNSCR =        1    unscreen: 0-lin 1-nonlin 2-no                           
   RPACOR =    2.000    partial core radius                                     
   POMASS =   58.933; ZVAL   =    9.000    mass and valenz                      
   RCORE  =    2.300    outmost cutoff radius                                   
   RWIGS  =    2.460; RWIGS  =    1.302    wigner-seitz radius (au A)           
   ENMAX  =  267.969; ENMIN  =  200.977 eV                                      
   RCLOC  =    1.697    cutoff for local pot                                    
   LCOR   =        T    correct aug charges                                     
   LPAW   =        T    paw PP                                                  
   EAUG   =  477.818                                                            
   DEXC   =    -.016                                                            
   RMAX   =    2.817    core radius for proj-oper                               
   RAUG   =    1.300    factor for augmentation sphere                          
   RDEP   =    2.393    radius for radial grids                                 
   QCUT   =   -4.438; QGAM   =    8.876    optimization parameters              
                                                                                
   Description                                                                  
     l     E      TYP  RCUT    TYP  RCUT                                        
     2   .000     23  2.300                                                     
     2   .000     23  2.300                                                     
     0   .000     23  2.300                                                     
     0   .000     23  2.300                                                     
     1  -.200     23  2.300                                                     
     1   .000     23  2.300                                                     
     3   .000      7   .000                                                     
  local pseudopotential read in
  partial core-charges read in
  atomic valenz-charges read in
  non local Contribution for L=           2  read in
    real space projection operators read in
  non local Contribution for L=           2  read in
    real space projection operators read in
  non local Contribution for L=           0  read in
    real space projection operators read in
  non local Contribution for L=           0  read in
    real space projection operators read in
  non local Contribution for L=           1  read in
    real space projection operators read in
  non local Contribution for L=           1  read in
    real space projection operators read in
    PAW grid and wavefunctions read in

   number of l-projection  operators is LMAX  =           6
   number of lm-projection operators is LMMAX =          18

 POTCAR:   PAW_PBE Ge 05Jan2001                   
   VRHFIN =Ge: s2p2                                                             
   LEXCH  = PE                                                                  
   EATOM  =   104.9960 eV,    7.7170 Ry                                         
                                                                                
   TITEL  = PAW_PBE Ge 05Jan2001                                                
   LULTRA =        F    use ultrasoft PP ?                                      
   IUNSCR =        1    unscreen: 0-lin 1-nonlin 2-no                           
   RPACOR =    2.170    partial core radius                                     
   POMASS =   72.610; ZVAL   =    4.000    mass and valenz                      
   RCORE  =    2.300    outmost cutoff radius                                   
   RWIGS  =    2.300; RWIGS  =    1.217    wigner-seitz radius (au A)           
   ENMAX  =  173.807; ENMIN  =  130.355 eV                                      
   ICORE  =        3    local potential                                         
   LCOR   =        T    correct aug charges                                     
   LPAW   =        T    paw PP                                                  
   EAUG   =  385.843                                                            
   DEXC   =    -.138                                                            
   RMAX   =    3.497    core radius for proj-oper                               
   RAUG   =    1.300    factor for augmentation sphere                          
   RDEP   =    2.318    radius for radial grids                                 
   QCUT   =   -3.574; QGAM   =    7.148    optimization parameters              
                                                                                
   Description                                                                  
     l     E      TYP  RCUT    TYP  RCUT                                        
     0   .000     23  2.300                                                     
     0   .000     23  2.300                                                     
     1   .000     23  2.300                                                     
     1   .000     23  2.300                                                     
     2   .000     23  2.300                                                     
     3  -.100      7  2.300                                                     
  local pseudopotential read in
  partial core-charges read in
  atomic valenz-charges read in
  non local Contribution for L=           0  read in
    real space projection operators read in
  non local Contribution for L=           0  read in
    real space projection operators read in
  non local Contribution for L=           1  read in
    real space projection operators read in
  non local Contribution for L=           1  read in
    real space projection operators read in
  non local Contribution for L=           2  read in
    real space projection operators read in
    PAW grid and wavefunctions read in

   number of l-projection  operators is LMAX  =           5
   number of lm-projection operators is LMMAX =          13

 POTCAR:   PAW_PBE Te 08Apr2002                   
   VRHFIN =Te: s2p4                                                             
   LEXCH  = PE                                                                  
   EATOM  =   223.2721 eV,   16.4100 Ry                                         
                                                                                
   TITEL  = PAW_PBE Te 08Apr2002                                                
   LULTRA =        F    use ultrasoft PP ?                                      
   IUNSCR =        1    unscreen: 0-lin 1-nonlin 2-no                           
   RPACOR =    2.200    partial core radius                                     
   POMASS =  127.600; ZVAL   =    6.000    mass and valenz                      
   RCORE  =    2.300    outmost cutoff radius                                   
   RWIGS  =    2.900; RWIGS  =    1.535    wigner-seitz radius (au A)           
   ENMAX  =  174.982; ENMIN  =  131.236 eV                                      
   ICORE  =        3    local potential                                         
   LCOR   =        T    correct aug charges                                     
   LPAW   =        T    paw PP                                                  
   EAUG   =  368.792                                                            
   DEXC   =    -.169                                                            
   RMAX   =    3.486    core radius for proj-oper                               
   RAUG   =    1.300    factor for augmentation sphere                          
   RDEP   =    2.397    radius for radial grids                                 
   QCUT   =   -3.586; QGAM   =    7.172    optimization parameters              
                                                                                
   Description                                                                  
     l     E      TYP  RCUT    TYP  RCUT                                        
     0   .000     23  2.300                                                     
     0   .000     23  2.300                                                     
     1   .000     23  2.300                                                     
     1   .000     23  2.300                                                     
     2   .000     23  2.300                                                     
     3  -.100     23  2.300                                                     
  local pseudopotential read in
  partial core-charges read in
  atomic valenz-charges read in
  non local Contribution for L=           0  read in
    real space projection operators read in
  non local Contribution for L=           0  read in
    real space projection operators read in
  non local Contribution for L=           1  read in
    real space projection operators read in
  non local Contribution for L=           1  read in
    real space projection operators read in
  non local Contribution for L=           2  read in
    real space projection operators read in
    PAW grid and wavefunctions read in

   number of l-projection  operators is LMAX  =           5
   number of lm-projection operators is LMMAX =          13

 Optimization of the real space projectors (new method)

 maximal supplied QI-value         = 16.25
 optimisation between [QCUT,QGAM] = [ 11.54, 23.24] = [ 37.28,151.24] Ry 
 Optimized for a Real-space Cutoff    1.53 Angstroem

   l    n(q)    QCUT    max X(q) W(low)/X(q) W(high)/X(q)  e(spline) 
   2     10    11.539     4.599    0.83E-05    0.15E-04    0.45E-07
   2     10    11.539    18.158    0.10E-03    0.14E-03    0.24E-06
   0     11    11.539    15.740    0.19E-04    0.12E-05    0.17E-07
   0     11    11.539    47.662    0.48E-04    0.15E-04    0.31E-06
   1     10    11.539     5.777    0.11E-04    0.46E-05    0.25E-07
   1     10    11.539     8.007    0.46E-04    0.29E-04    0.11E-06
 Optimization of the real space projectors (new method)

 maximal supplied QI-value         = 16.25
 optimisation between [QCUT,QGAM] = [ 11.54, 23.24] = [ 37.28,151.24] Ry 
 Optimized for a Real-space Cutoff    1.28 Angstroem

   l    n(q)    QCUT    max X(q) W(low)/X(q) W(high)/X(q)  e(spline) 
   0      9    11.539     8.651    0.22E-04    0.16E-04    0.10E-07
   0      9    11.539    33.192    0.11E-03    0.16E-03    0.65E-07
   1      8    11.539     5.899    0.37E-04    0.28E-04    0.43E-07
   1      8    11.539    27.289    0.22E-03    0.28E-04    0.14E-06
   2      8    11.539     4.673    0.11E-03    0.18E-03    0.58E-07
 Optimization of the real space projectors (new method)

 maximal supplied QI-value         = 16.25
 optimisation between [QCUT,QGAM] = [ 11.54, 23.24] = [ 37.28,151.24] Ry 
 Optimized for a Real-space Cutoff    1.36 Angstroem

   l    n(q)    QCUT    max X(q) W(low)/X(q) W(high)/X(q)  e(spline) 
   0      9    11.539     7.090    0.13E-04    0.25E-05    0.51E-08
   0      9    11.539   101.654    0.53E-04    0.69E-04    0.12E-06
   1      9    11.539     5.276    0.20E-04    0.98E-05    0.24E-07
   1      9    11.539    81.891    0.24E-03    0.13E-04    0.15E-06
   2      9    11.539     5.599    0.30E-04    0.97E-04    0.54E-07

 ----------------------------------------------------------------------------- 
|                                                                             |
|  ADVICE TO THIS USER RUNNING 'VASP/VAMP'   (HEAR YOUR MASTER'S VOICE ...):  |
|                                                                             |
|      You enforced a specific xc-type in the INCAR file,                     |
|      a different type was found on the POTCAR file                          |
|          I HOPE YOU KNOW, WHAT YOU ARE  DOING                               |
|                                                                             |
 ----------------------------------------------------------------------------- 

 PAW_PBE Co 06Sep2000                   :
 energy of atom  1       EATOM= -813.5563
 kinetic energy error for atom=    0.0028 (will be added to EATOM!!)
 PAW_PBE Ge 05Jan2001                   :
 energy of atom  2       EATOM= -104.9960
 kinetic energy error for atom=    0.0002 (will be added to EATOM!!)
 PAW_PBE Te 08Apr2002                   :
 energy of atom  3       EATOM= -223.2721
 kinetic energy error for atom=    0.0007 (will be added to EATOM!!)


 POSCAR: Co2 Ge2 Te6                             
  positions in direct lattice
  No initial velocities read in
 exchange correlation table for  LEXCH =       42
   RHO(1)=    0.500       N(1)  =     2000
   RHO(2)=  100.500       N(2)  =     4000



--------------------------------------------------------------------------------------------------------


 ion  position               nearest neighbor table
   1  0.333  0.333  0.500-   6 2.78   5 2.78   7 2.78   8 2.78  10 2.78   9 2.78
   2  0.667  0.667  0.500-   9 2.78   8 2.78  10 2.78   5 2.78   7 2.78   6 2.78
   3  0.000  0.000  0.448-   4 2.43   8 2.63  10 2.63   9 2.63
   4  0.000  0.000  0.552-   3 2.43   5 2.63   7 2.63   6 2.63
   5  0.626  0.000  0.574-   4 2.63   1 2.78   2 2.78
   6  0.000  0.373  0.574-   4 2.63   1 2.78   2 2.78
   7  0.373  0.626  0.574-   4 2.63   1 2.78   2 2.78
   8  0.374  1.000  0.426-   3 2.63   2 2.78   1 2.78
   9  1.000  0.627  0.426-   3 2.63   2 2.78   1 2.78
  10  0.627  0.374  0.426-   3 2.63   2 2.78   1 2.78

  LATTYP: Found a hexagonal cell.
 ALAT       =     6.9077769333
 C/A-ratio  =     3.3939410937
  
  Lattice vectors:
  
 A1 = (   3.4538890000,  -5.9823100000,   0.0000000000)
 A2 = (  -6.9077770000,   0.0000000000,   0.0000000000)
 A3 = (   0.0000000000,   0.0000000000, -23.4445880000)


Analysis of symmetry for initial positions (statically):
=====================================================================
 Subroutine PRICEL returns:
 Original cell was already a primitive cell.
 

 Routine SETGRP: Setting up the symmetry group for a 
 hexagonal supercell.


 Subroutine GETGRP returns: Found  6 space group operations
 (whereof  6 operations were pure point group operations)
 out of a pool of 24 trial point group operations.


The static configuration has the point symmetry S_6 .


Analysis of symmetry for dynamics (positions and initial velocities):
=====================================================================
 Subroutine PRICEL returns:
 Original cell was already a primitive cell.
 

 Routine SETGRP: Setting up the symmetry group for a 
 hexagonal supercell.


 Subroutine GETGRP returns: Found  6 space group operations
 (whereof  6 operations were pure point group operations)
 out of a pool of 24 trial point group operations.


The dynamic configuration has the point symmetry S_6 .


Analysis of constrained symmetry for selective dynamics:
=====================================================================
 Subroutine PRICEL returns:
 Original cell was already a primitive cell.
 

 Routine SETGRP: Setting up the symmetry group for a 
 hexagonal supercell.


 Subroutine GETGRP returns: Found  6 space group operations
 (whereof  6 operations were pure point group operations)
 out of a pool of 24 trial point group operations.


The constrained configuration has the point symmetry S_6 .


Analysis of structural, dynamic, and magnetic symmetry:
=====================================================================
 Subroutine PRICEL returns:
 Original cell was already a primitive cell.
 

 Routine SETGRP: Setting up the symmetry group for a 
 hexagonal supercell.


 Subroutine GETGRP returns: Found  6 space group operations
 (whereof  6 operations were pure point group operations)
 out of a pool of 24 trial point group operations.


The magnetic configuration has the point symmetry S_6 .


 Subroutine INISYM returns: Found  6 space group operations
 (whereof  6 operations are pure point group operations),
 and found     1 'primitive' translations



 KPOINTS: Kpoints from vasprun.xml                

Automatic generation of k-mesh.
Space group operators:
 irot       det(A)        alpha          n_x          n_y          n_z        tau_x        tau_y        tau_z
    1     1.000000     0.000000     1.000000     0.000000     0.000000     0.000000     0.000000     0.000000
    2    -1.000000     0.000000     1.000000     0.000000     0.000000     0.000000     0.000000     0.000000
    3     1.000000   120.000000     0.000000     0.000000     1.000000     0.000000     0.000000     0.000000
    4    -1.000000   120.000000     0.000000     0.000000     1.000000     0.000000     0.000000     0.000000
    5     1.000000   120.000000     0.000000     0.000000    -1.000000     0.000000     0.000000     0.000000
    6    -1.000000   120.000000     0.000000     0.000000    -1.000000     0.000000     0.000000     0.000000
 
 Subroutine IBZKPT returns following result:
 ===========================================
 
 Found      5 irreducible k-points:
 
 Following reciprocal coordinates:
            Coordinates               Weight
  0.000000  0.000000  0.000000      1.000000
  0.200000  0.000000  0.000000      6.000000
  0.400000  0.000000  0.000000      6.000000
  0.400000  0.200000  0.000000      6.000000
 -0.400000  0.200000  0.000000      6.000000
 
 Following cartesian coordinates:
            Coordinates               Weight
  0.000000  0.000000  0.000000      1.000000
  0.028953 -0.016716  0.000000      6.000000
  0.057906 -0.033432  0.000000      6.000000
  0.057906  0.000000  0.000000      6.000000
 -0.057906  0.066864  0.000000      6.000000
 
 TETIRR: Found     15 inequivalent tetrahedra from      150


--------------------------------------------------------------------------------------------------------




 Dimension of arrays:
   k-points           NKPTS =      5   k-points in BZ     NKDIM =      5   number of bands    NBANDS=     48
   number of dos      NEDOS =    301   number of ions     NIONS =     10
   non local maximal  LDIM  =      6   non local SUM 2l+1 LMDIM =     18
   total plane-waves  NPLWV = 524880
   max r-space proj   IRMAX =   8238   max aug-charges    IRDMAX=  31706
   dimension x,y,z NGX =    54 NGY =   54 NGZ =  180
   dimension x,y,z NGXF=   108 NGYF=  108 NGZF=  360
   support grid    NGXF=   108 NGYF=  108 NGZF=  360
   ions per type =               2   2   6
   NGX,Y,Z   is equivalent  to a cutoff of  13.00, 13.00, 12.76 a.u.
   NGXF,Y,Z  is equivalent  to a cutoff of  25.99, 25.99, 25.53 a.u.

 SYSTEM =  unknown system                          
 POSCAR =  Co2 Ge2 Te6                             

 Startparameter for this run:
   NWRITE =      2    write-flag & timer
   PREC   = accura    normal or accurate (medium, high low for compatibility)
   ISTART =      0    job   : 0-new  1-cont  2-samecut
   ICHARG =      2    charge: 1-file 2-atom 10-const
   ISPIN  =      2    spin polarized calculation?
   LNONCOLLINEAR =      F non collinear calculations
   LSORBIT =      F    spin-orbit coupling
   INIWAV =      1    electr: 0-lowe 1-rand  2-diag
   LASPH  =      F    aspherical Exc in radial PAW
   METAGGA=      F    non-selfconsistent MetaGGA calc.

 Electronic Relaxation 1
   ENCUT  =  520.0 eV  38.22 Ry    6.18 a.u.  12.84 12.84 43.59*2*pi/ulx,y,z
   ENINI  =  520.0     initial cutoff
   ENAUG  =  477.8 eV  augmentation charge cutoff
   NELM   =    400;   NELMIN=  2; NELMDL=  0     # of ELM steps 
   EDIFF  = 0.1E-03   stopping-criterion for ELM
   LREAL  =      T    real-space projection
   NLSPLINE    = F    spline interpolate recip. space projectors
   LCOMPAT=      F    compatible to vasp.4.4
   GGA_COMPAT  = T    GGA compatible to vasp.4.4-vasp.4.6
   LMAXPAW     = -100 max onsite density
   LMAXMIX     =    2 max onsite mixed and CHGCAR
   VOSKOWN=      0    Vosko Wilk Nusair interpolation
   ROPT   =   -0.00025  -0.00025  -0.00025
 Ionic relaxation
   EDIFFG = 0.1E-02   stopping-criterion for IOM
   NSW    =     99    number of steps for IOM
   NBLOCK =      1;   KBLOCK =     99    inner block; outer block 
   IBRION =      2    ionic relax: 0-MD 1-quasi-New 2-CG
   NFREE  =      1    steps in history (QN), initial steepest desc. (CG)
   ISIF   =      3    stress and relaxation
   IWAVPR =     11    prediction:  0-non 1-charg 2-wave 3-comb
   ISYM   =      2    0-nonsym 1-usesym 2-fastsym
   LCORR  =      T    Harris-Foulkes like correction to forces

   POTIM  = 0.5000    time-step for ionic-motion
   TEIN   =    0.0    initial temperature
   TEBEG  =    0.0;   TEEND  =   0.0 temperature during run
   SMASS  =  -3.00    Nose mass-parameter (am)
   estimated Nose-frequenzy (Omega)   =  0.10E-29 period in steps =****** mass=  -0.109E-26a.u.
   SCALEE = 1.0000    scale energy and forces
   NPACO  =    256;   APACO  = 16.0  distance and # of slots for P.C.
   PSTRESS=    0.0 pullay stress

  Mass of Ions in am
   POMASS =  58.93 72.61127.60
  Ionic Valenz
   ZVAL   =   9.00  4.00  6.00
  Atomic Wigner-Seitz radii
   RWIGS  =  -1.00 -1.00 -1.00
  virtual crystal weights 
   VCA    =   1.00  1.00  1.00
   NELECT =      62.0000    total number of electrons
   NUPDOWN=      -1.0000    fix difference up-down

 DOS related values:
   EMIN   =  10.00;   EMAX   =-10.00  energy-range for DOS
   EFERMI =   0.00
   ISMEAR =    -5;   SIGMA  =   0.05  broadening in eV -4-tet -1-fermi 0-gaus

 Electronic relaxation 2 (details)
   IALGO  =     38    algorithm
   LDIAG  =      T    sub-space diagonalisation (order eigenvalues)
   LSUBROT=      F    optimize rotation matrix (better conditioning)
   TURBO    =      0    0=normal 1=particle mesh
   IRESTART =      0    0=no restart 2=restart with 2 vectors
   NREBOOT  =      0    no. of reboots
   NMIN     =      0    reboot dimension
   EREF     =   0.00    reference energy to select bands
   IMIX   =      4    mixing-type and parameters
     AMIX     =   0.40;   BMIX     =  1.00
     AMIX_MAG =   1.60;   BMIX_MAG =  1.00
     AMIN     =   0.01
     WC   =   100.;   INIMIX=   1;  MIXPRE=   1;  MAXMIX= -45

 Intra band minimization:
   WEIMIN = 0.0010     energy-eigenvalue tresh-hold
   EBREAK =  0.52E-06  absolut break condition
   DEPER  =   0.30     relativ break condition  

   TIME   =   0.40     timestep for ELM

  volume/ion in A,a.u.               =      96.88       653.80
  Fermi-wavevector in a.u.,A,eV,Ry     =   0.654820  1.237431  5.834037  0.428790
  Thomas-Fermi vector in A             =   1.725500

 Write flags
   LWAVE        =      F    write WAVECAR
   LDOWNSAMPLE  =      F    k-point downsampling of WAVECAR
   LCHARG       =      T    write CHGCAR
   LVTOT        =      F    write LOCPOT, total local potential
   LVHAR        =      F    write LOCPOT, Hartree potential only
   LELF         =      F    write electronic localiz. function (ELF)
   LORBIT       =     11    0 simple, 1 ext, 2 COOP (PROOUT), +10 PAW based schemes


 Dipole corrections
   LMONO  =      F    monopole corrections only (constant potential shift)
   LDIPOL =      F    correct potential (dipole corrections)
   IDIPOL =      0    1-x, 2-y, 3-z, 4-all directions 
   EPSILON=  1.0000000 bulk dielectric constant

 Exchange correlation treatment:
   GGA     =    BO    GGA type
   LEXCH   =    42    internal setting for exchange type
   VOSKOWN=      0    Vosko Wilk Nusair interpolation
   LHFCALC =     F    Hartree Fock is set to
   LHFONE  =     F    Hartree Fock one center treatment
   AEXX    =    0.0000 exact exchange contribution

 vdW DFT:
   LUSE_VDW   =     T    switch on vdW DFT
   Zab_VDW    =-.8491    correlation parameter
   PARAM1     =0.1833
   PARAM2     =0.2200
   PARAM3     =0.0000
   -- rVV10 --
   BPARAM     = 6.3000
   CPARAM     = 0.0093

 Linear response parameters
   LEPSILON=     F    determine dielectric tensor
   LRPA    =     F    only Hartree local field effects (RPA)
   LNABLA  =     F    use nabla operator in PAW spheres
   LVEL    =     F    velocity operator in full k-point grid
   LINTERFAST=   F  fast interpolation
   KINTER  =     0    interpolate to denser k-point grid
   CSHIFT  =0.1000    complex shift for real part using Kramers Kronig
   OMEGAMAX=  -1.0    maximum frequency
   DEG_THRESHOLD= 0.2000000E-02 threshold for treating states as degnerate
   RTIME   =   -0.100 relaxation time in fs
  (WPLASMAI=    0.000 imaginary part of plasma frequency in eV, 0.658/RTIME)
   DFIELD  = 0.0000000 0.0000000 0.0000000 field for delta impulse in time

 Orbital magnetization related:
   ORBITALMAG=     F  switch on orbital magnetization
   LCHIMAG   =     F  perturbation theory with respect to B field
   DQ        =  0.001000  dq finite difference perturbation B field
   LLRAUG    =     F  two centre corrections for induced B field



--------------------------------------------------------------------------------------------------------


 conjugate gradient relaxation of ions
   using selective dynamics as specified on POSCAR
 charge density and potential will be updated during run
 spin polarized calculation
 Variant of blocked Davidson
 Davidson routine will perform the subspace rotation
 perform sub-space diagonalisation
    after iterative eigenvector-optimisation
 modified Broyden-mixing scheme, WC =      100.0
 initial mixing is a Kerker type mixing with AMIX =  0.4000 and BMIX =      1.0000
 Hartree-type preconditioning will be used
 using additional bands           17
 real space projection scheme for non local part
 use partial core corrections
 calculate Harris-corrections to forces   (improved forces if not selfconsistent)
 use gradient corrections 
 use of overlap-Matrix (Vanderbilt PP)
 Fermi weights with tetrahedron method with Bloechl corrections


--------------------------------------------------------------------------------------------------------


  energy-cutoff  :      520.00
  volume of cell :      968.84
      direct lattice vectors                 reciprocal lattice vectors
     6.907777000 -0.000000000  0.000000000     0.144764372 -0.083579742  0.000000000
     3.453888000  5.982310000  0.000000000     0.000000000  0.167159509 -0.000000000
     0.000000000  0.000000000 23.444588000    -0.000000000  0.000000000  0.042653767

  length of vectors
     6.907777000  6.907776433 23.444588000     0.167159495  0.167159509  0.042653767



 k-points in units of 2pi/SCALE and weight: Kpoints from vasprun.xml                
   0.00000000  0.00000000  0.00000000       0.040
   0.02895287 -0.01671595  0.00000000       0.240
   0.05790575 -0.03343190  0.00000000       0.240
   0.05790575  0.00000000  0.00000000       0.240
  -0.05790575  0.06686380  0.00000000       0.240

 k-points in reciprocal lattice and weights: Kpoints from vasprun.xml                
   0.00000000  0.00000000  0.00000000       0.040
   0.20000000  0.00000000  0.00000000       0.240
   0.40000000  0.00000000  0.00000000       0.240
   0.40000000  0.20000000  0.00000000       0.240
  -0.40000000  0.20000000  0.00000000       0.240

 position of ions in fractional coordinates (direct lattice) 
   0.33333300  0.33333300  0.49992500
   0.66666700  0.66666700  0.50007500
   0.00000000  0.00000000  0.44821600
   0.00000000  0.00000000  0.55178400
   0.62635700  0.00042000  0.57375200
   0.00042000  0.37322400  0.57375200
   0.37322400  0.62635700  0.57375200
   0.37364300  0.99958000  0.42624800
   0.99958000  0.62677600  0.42624800
   0.62677600  0.37364300  0.42624800

 position of ions in cartesian coordinates  (Angst):
   3.45388488  1.99410134 11.72053566
   6.90778012  3.98820866 11.72405234
   0.00000000  0.00000000 10.50823946
   0.00000000  0.00000000 12.93634854
   4.32818511  0.00251257 13.45137925
   1.29197516  2.23274167 13.45137925
   4.74151509  3.74706174 13.45137925
   6.03347989  5.97979743  9.99320875
   9.06968984  3.74956833  9.99320875
   5.62014991  2.23524826  9.99320875



--------------------------------------------------------------------------------------------------------


 k-point  1 :   0.0000 0.0000 0.0000  plane waves:   26073
 k-point  2 :   0.2000 0.0000 0.0000  plane waves:   26070
 k-point  3 :   0.4000 0.0000 0.0000  plane waves:   26086
 k-point  4 :   0.4000 0.2000 0.0000  plane waves:   26085
 k-point  5 :  -0.4000 0.2000 0.0000  plane waves:   26115

 maximum and minimum number of plane-waves per node :     26115    26070

 maximum number of plane-waves:     26115
 maximum index in each direction: 
   IXMAX=   13   IYMAX=   12   IZMAX=   43
   IXMIN=  -13   IYMIN=  -13   IZMIN=  -43


 serial   3D FFT for wavefunctions
 parallel 3D FFT for charge:
    minimum data exchange during FFTs selected (reduces bandwidth)


 total amount of memory used by VASP MPI-rank0   129122. kBytes
=======================================================================

   base      :      30000. kBytes
   nonlr-proj:       8812. kBytes
   fftplans  :      11247. kBytes
   grid      :      66142. kBytes
   one-center:        311. kBytes
   wavefun   :      12610. kBytes

     INWAV:  cpu time    0.0000: real time    0.0004
 Broyden mixing: mesh for mixing (old mesh)
   NGX = 25   NGY = 25   NGZ = 87
  (NGX  =108   NGY  =108   NGZ  =360)
  gives a total of  54375 points

 initial charge density was supplied:
 charge density of overlapping atoms calculated
 number of electron      62.0000000 magnetization       9.7800000
 keeping initial charge density in first step


--------------------------------------------------------------------------------------------------------


 Maximum index for non-local projection operator         7925
 Maximum index for augmentation-charges         2278 (set IRDMAX)


--------------------------------------------------------------------------------------------------------


 First call to EWALD:  gamma=   0.179
 Maximum number of real-space cells 4x 4x 1
 Maximum number of reciprocal cells 2x 2x 6

    FEWALD:  cpu time    0.0000: real time    0.0014


--------------------------------------- Iteration      1(   1)  ---------------------------------------


vdW kernel read from vdw_kernel.bindat
  0.0000  0.2424  0.5071  0.7962  1.1119  1.4567  1.8333  2.2446  2.6937  3.1842
  3.7199  4.3049  4.9438  5.6415  6.4036  7.2358  8.1446  9.1372 10.2212 11.4050
 12.6979 14.1099 15.6519 17.3360 19.1751 21.1837 23.3773 25.7729 28.3892 31.2465
 34.3669 37.7748 41.4965 45.5611 50.0000

    POTLOK:  cpu time   52.6680: real time   53.0581
    SETDIJ:  cpu time    0.0520: real time    0.0522
     EDDAV:  cpu time   22.7800: real time   23.1567
 BZINTS: Fermi energy:  5.472972; 62.000000 electrons
         Band energy:  19.361206;  BLOECHL correction: -0.028950
       DOS:  cpu time    0.0080: real time    0.0048
    --------------------------------------------
      LOOP:  cpu time   75.5080: real time   76.2718

 eigenvalue-minimisations  :   960
 total energy-change (2. order) : 0.3925916E+03  (-0.1852003E+04)
 number of electron      62.0000000 magnetization       9.7800000
 augmentation part       62.0000000 magnetization       9.7800000

 Free energy of the ion-electron system (eV)
  ---------------------------------------------------
  alpha Z        PSCENC =        20.51492783
  Ewald energy   TEWEN  =      7529.91642125
  -Hartree energ DENC   =    -10376.28204237
  -exchange      EXHF   =         0.00000000
  -V(xc)+E(xc)   XCENC  =      -158.57333104
  PAW double counting   =      1978.70079490    -1813.07420329
  entropy T*S    EENTRO =         0.00000000
  eigenvalues    EBANDS =        19.36120614
  atomic energy  EATOM  =      3192.02777977
  Solvation  Ediel_sol  =         0.00000000
  ---------------------------------------------------
  free energy    TOTEN  =       392.59155319 eV

  energy without entropy =      392.59155319  energy(sigma->0) =      392.59155319


--------------------------------------------------------------------------------------------------------




--------------------------------------- Iteration      1(   2)  ---------------------------------------


     EDDAV:  cpu time   30.6280: real time   31.2032
 BZINTS: Fermi energy: -1.068036; 62.000000 electrons
         Band energy:-362.728585;  BLOECHL correction: -0.028189
       DOS:  cpu time    0.0080: real time    0.0048
    --------------------------------------------
      LOOP:  cpu time   30.6360: real time   31.2081

 eigenvalue-minimisations  :  1328
 total energy-change (2. order) :-0.3820898E+03  (-0.3603774E+03)
 number of electron      62.0000000 magnetization       9.7800000
 augmentation part       62.0000000 magnetization       9.7800000

 Free energy of the ion-electron system (eV)
  ---------------------------------------------------
  alpha Z        PSCENC =        20.51492783
  Ewald energy   TEWEN  =      7529.91642125
  -Hartree energ DENC   =    -10376.28204237
  -exchange      EXHF   =         0.00000000
  -V(xc)+E(xc)   XCENC  =      -158.57333104
  PAW double counting   =      1978.70079490    -1813.07420329
  entropy T*S    EENTRO =         0.00000000
  eigenvalues    EBANDS =      -362.72858497
  atomic energy  EATOM  =      3192.02777977
  Solvation  Ediel_sol  =         0.00000000
  ---------------------------------------------------
  free energy    TOTEN  =        10.50176207 eV

  energy without entropy =       10.50176207  energy(sigma->0) =       10.50176207


--------------------------------------------------------------------------------------------------------




--------------------------------------- Iteration      1(   3)  ---------------------------------------


     EDDAV:  cpu time   29.5640: real time   29.8732
 BZINTS: Fermi energy: -1.590854; 62.000000 electrons
         Band energy:-407.659786;  BLOECHL correction: -0.019414
       DOS:  cpu time    0.0040: real time    0.0052
    --------------------------------------------
      LOOP:  cpu time   29.5680: real time   29.8784

 eigenvalue-minimisations  :  1264
 total energy-change (2. order) :-0.4493120E+02  (-0.4392649E+02)
 number of electron      62.0000000 magnetization       9.7800000
 augmentation part       62.0000000 magnetization       9.7800000

 Free energy of the ion-electron system (eV)
  ---------------------------------------------------
  alpha Z        PSCENC =        20.51492783
  Ewald energy   TEWEN  =      7529.91642125
  -Hartree energ DENC   =    -10376.28204237
  -exchange      EXHF   =         0.00000000
  -V(xc)+E(xc)   XCENC  =      -158.57333104
  PAW double counting   =      1978.70079490    -1813.07420329
  entropy T*S    EENTRO =         0.00000000
  eigenvalues    EBANDS =      -407.65978601
  atomic energy  EATOM  =      3192.02777977
  Solvation  Ediel_sol  =         0.00000000
  ---------------------------------------------------
  free energy    TOTEN  =       -34.42943897 eV

  energy without entropy =      -34.42943897  energy(sigma->0) =      -34.42943897


--------------------------------------------------------------------------------------------------------




--------------------------------------- Iteration      1(   4)  ---------------------------------------


     EDDAV:  cpu time   29.6280: real time   29.7307
 BZINTS: Fermi energy: -1.603052; 62.000000 electrons
         Band energy:-409.418096;  BLOECHL correction: -0.021024
       DOS:  cpu time    0.0040: real time    0.0047
    --------------------------------------------
      LOOP:  cpu time   29.6320: real time   29.7355

 eigenvalue-minimisations  :  1264
 total energy-change (2. order) :-0.1758310E+01  (-0.1754747E+01)
 number of electron      62.0000000 magnetization       9.7800000
 augmentation part       62.0000000 magnetization       9.7800000

 Free energy of the ion-electron system (eV)
  ---------------------------------------------------
  alpha Z        PSCENC =        20.51492783
  Ewald energy   TEWEN  =      7529.91642125
  -Hartree energ DENC   =    -10376.28204237
  -exchange      EXHF   =         0.00000000
  -V(xc)+E(xc)   XCENC  =      -158.57333104
  PAW double counting   =      1978.70079490    -1813.07420329
  entropy T*S    EENTRO =         0.00000000
  eigenvalues    EBANDS =      -409.41809625
  atomic energy  EATOM  =      3192.02777977
  Solvation  Ediel_sol  =         0.00000000
  ---------------------------------------------------
  free energy    TOTEN  =       -36.18774921 eV

  energy without entropy =      -36.18774921  energy(sigma->0) =      -36.18774921


--------------------------------------------------------------------------------------------------------




--------------------------------------- Iteration      1(   5)  ---------------------------------------


     EDDAV:  cpu time   32.8320: real time   32.8808
 BZINTS: Fermi energy: -1.603620; 62.000000 electrons
         Band energy:-409.452272;  BLOECHL correction: -0.021066
       DOS:  cpu time    0.0080: real time    0.0059
    CHARGE:  cpu time    2.1080: real time    2.1169
    MIXING:  cpu time    0.0400: real time    0.0408
    --------------------------------------------
      LOOP:  cpu time   34.9880: real time   35.0444

 eigenvalue-minimisations  :  1408
 total energy-change (2. order) :-0.3417620E-01  (-0.3417916E-01)
 number of electron      61.9999995 magnetization       9.4930367
 augmentation part       -0.7886395 magnetization       6.6454054

 Broyden mixing:
  rms(total) = 0.20479E+01    rms(broyden)= 0.20479E+01
  rms(prec ) = 0.22078E+01
  weight for this iteration     100.00

 Free energy of the ion-electron system (eV)
  ---------------------------------------------------
  alpha Z        PSCENC =        20.51492783
  Ewald energy   TEWEN  =      7529.91642125
  -Hartree energ DENC   =    -10376.28204237
  -exchange      EXHF   =         0.00000000
  -V(xc)+E(xc)   XCENC  =      -158.57333104
  PAW double counting   =      1978.70079490    -1813.07420329
  entropy T*S    EENTRO =         0.00000000
  eigenvalues    EBANDS =      -409.45227245
  atomic energy  EATOM  =      3192.02777977
  Solvation  Ediel_sol  =         0.00000000
  ---------------------------------------------------
  free energy    TOTEN  =       -36.22192540 eV

  energy without entropy =      -36.22192540  energy(sigma->0) =      -36.22192540


--------------------------------------------------------------------------------------------------------




--------------------------------------- Iteration      1(   6)  ---------------------------------------


    POTLOK:  cpu time   52.2320: real time   52.2652
    SETDIJ:  cpu time    0.0600: real time    0.0588
     EDDAV:  cpu time   26.6560: real time   26.7009
 BZINTS: Fermi energy: -3.357142; 62.000000 electrons
         Band energy:-562.113135;  BLOECHL correction: -0.042262
       DOS:  cpu time    0.0080: real time    0.0070
    CHARGE:  cpu time    2.0640: real time    2.0773
    MIXING:  cpu time    0.0440: real time    0.0424
    --------------------------------------------
      LOOP:  cpu time   81.0640: real time   81.1516

 eigenvalue-minimisations  :  1120
 total energy-change (2. order) :-0.3171272E+02  (-0.3019745E+02)
 number of electron      61.9999988 magnetization       9.1994490
 augmentation part        7.1510876 magnetization       9.1221313

 Broyden mixing:
  rms(total) = 0.47525E+01    rms(broyden)= 0.47524E+01
  rms(prec ) = 0.50411E+01
  weight for this iteration     100.00

 eigenvalues of (default mixing * dielectric matrix)
  average eigenvalue GAMMA=   0.2640
  0.2640

 Free energy of the ion-electron system (eV)
  ---------------------------------------------------
  alpha Z        PSCENC =        20.51492783
  Ewald energy   TEWEN  =      7529.91642125
  -Hartree energ DENC   =    -10276.24760864
  -exchange      EXHF   =         0.00000000
  -V(xc)+E(xc)   XCENC  =      -159.36463915
  PAW double counting   =      1838.72635623    -1651.39474938
  entropy T*S    EENTRO =         0.00000000
  eigenvalues    EBANDS =      -562.11313526
  atomic energy  EATOM  =      3192.02777977
  Solvation  Ediel_sol  =         0.00000000
  ---------------------------------------------------
  free energy    TOTEN  =       -67.93464735 eV

  energy without entropy =      -67.93464735  energy(sigma->0) =      -67.93464735


--------------------------------------------------------------------------------------------------------




--------------------------------------- Iteration      1(   7)  ---------------------------------------


    POTLOK:  cpu time   51.9000: real time   51.9940
    SETDIJ:  cpu time    0.0520: real time    0.0530
     EDDAV:  cpu time   26.7280: real time   26.8045
 BZINTS: Fermi energy: -3.068596; 62.000000 electrons
         Band energy:-449.540720;  BLOECHL correction: -0.059009
       DOS:  cpu time    0.0040: real time    0.0064
    CHARGE:  cpu time    2.0960: real time    2.1016
    MIXING:  cpu time    0.0600: real time    0.0604
    --------------------------------------------
      LOOP:  cpu time   80.8400: real time   81.0199

 eigenvalue-minimisations  :  1136
 total energy-change (2. order) : 0.3111635E+02  (-0.4136638E+01)
 number of electron      61.9999990 magnetization       8.9183342
 augmentation part        4.7790135 magnetization       9.0077526

 Broyden mixing:
  rms(total) = 0.23130E+01    rms(broyden)= 0.23130E+01
  rms(prec ) = 0.24721E+01
  weight for this iteration     100.00

 eigenvalues of (default mixing * dielectric matrix)
  average eigenvalue GAMMA=   0.4708
  0.4708  0.4708

 Free energy of the ion-electron system (eV)
  ---------------------------------------------------
  alpha Z        PSCENC =        20.51492783
  Ewald energy   TEWEN  =      7529.91642125
  -Hartree energ DENC   =    -10339.38598609
  -exchange      EXHF   =         0.00000000
  -V(xc)+E(xc)   XCENC  =      -159.52204644
  PAW double counting   =      1955.05445555    -1785.88312644
  entropy T*S    EENTRO =         0.00000000
  eigenvalues    EBANDS =      -449.54072025
  atomic energy  EATOM  =      3192.02777977
  Solvation  Ediel_sol  =         0.00000000
  ---------------------------------------------------
  free energy    TOTEN  =       -36.81829483 eV

  energy without entropy =      -36.81829483  energy(sigma->0) =      -36.81829483


--------------------------------------------------------------------------------------------------------




--------------------------------------- Iteration      1(   8)  ---------------------------------------


    POTLOK:  cpu time   51.8440: real time   51.8803
    SETDIJ:  cpu time    0.0560: real time    0.0567
     EDDAV:  cpu time   32.7120: real time   33.1947
 BZINTS: Fermi energy: -2.810212; 62.000000 electrons
         Band energy:-426.561073;  BLOECHL correction: -0.044418
       DOS:  cpu time    0.0040: real time    0.0068
    CHARGE:  cpu time    2.0960: real time    2.0965
    MIXING:  cpu time    0.0440: real time    0.0424
    --------------------------------------------
      LOOP:  cpu time   86.7560: real time   87.2774

 eigenvalue-minimisations  :  1440
 total energy-change (2. order) : 0.3070978E+01  (-0.6761038E+00)
 number of electron      61.9999992 magnetization       9.5083582
 augmentation part        3.2193953 magnetization       9.9309110

 Broyden mixing:
  rms(total) = 0.13355E+01    rms(broyden)= 0.13354E+01
  rms(prec ) = 0.13920E+01
  weight for this iteration     100.00

 eigenvalues of (default mixing * dielectric matrix)
  average eigenvalue GAMMA=   0.5009
  0.4476  0.4476  0.6075

 Free energy of the ion-electron system (eV)
  ---------------------------------------------------
  alpha Z        PSCENC =        20.51492783
  Ewald energy   TEWEN  =      7529.91642125
  -Hartree energ DENC   =    -10357.30823825
  -exchange      EXHF   =         0.00000000
  -V(xc)+E(xc)   XCENC  =      -159.33947313
  PAW double counting   =      1992.64322663    -1825.64088786
  entropy T*S    EENTRO =         0.00000000
  eigenvalues    EBANDS =      -426.56107321
  atomic energy  EATOM  =      3192.02777977
  Solvation  Ediel_sol  =         0.00000000
  ---------------------------------------------------
  free energy    TOTEN  =       -33.74731697 eV

  energy without entropy =      -33.74731697  energy(sigma->0) =      -33.74731697


--------------------------------------------------------------------------------------------------------




--------------------------------------- Iteration      1(   9)  ---------------------------------------


    POTLOK:  cpu time   50.8880: real time   51.3745
    SETDIJ:  cpu time    0.0560: real time    0.0554
     EDDAV:  cpu time   23.6040: real time   23.8515
 BZINTS: Fermi energy: -2.758715; 62.000000 electrons
         Band energy:-428.444511;  BLOECHL correction: -0.030116
       DOS:  cpu time    0.0040: real time    0.0070
    CHARGE:  cpu time    2.0160: real time    2.0953
    MIXING:  cpu time    0.0760: real time    0.0737
    --------------------------------------------
      LOOP:  cpu time   76.6440: real time   77.4573

 eigenvalue-minimisations  :  1008
 total energy-change (2. order) : 0.2478311E+00  (-0.1370062E+00)
 number of electron      61.9999992 magnetization       8.5521862
 augmentation part        2.8514667 magnetization       8.4467534

 Broyden mixing:
  rms(total) = 0.13320E+01    rms(broyden)= 0.13320E+01
  rms(prec ) = 0.13718E+01
  weight for this iteration     100.00

 eigenvalues of (default mixing * dielectric matrix)
  average eigenvalue GAMMA=   0.7125
  0.9983  0.9983  0.4268  0.4268

 Free energy of the ion-electron system (eV)
  ---------------------------------------------------
  alpha Z        PSCENC =        20.51492783
  Ewald energy   TEWEN  =      7529.91642125
  -Hartree energ DENC   =    -10354.04747908
  -exchange      EXHF   =         0.00000000
  -V(xc)+E(xc)   XCENC  =      -158.82151165
  PAW double counting   =      1976.10641311    -1810.75152643
  entropy T*S    EENTRO =         0.00000000
  eigenvalues    EBANDS =      -428.44451065
  atomic energy  EATOM  =      3192.02777977
  Solvation  Ediel_sol  =         0.00000000
  ---------------------------------------------------
  free energy    TOTEN  =       -33.49948584 eV

  energy without entropy =      -33.49948584  energy(sigma->0) =      -33.49948584


--------------------------------------------------------------------------------------------------------




--------------------------------------- Iteration      1(  10)  ---------------------------------------


    POTLOK:  cpu time   51.0960: real time   51.2526
    SETDIJ:  cpu time    0.0520: real time    0.0546
     EDDAV:  cpu time   26.4440: real time   26.4719
 BZINTS: Fermi energy: -2.793944; 62.000000 electrons
         Band energy:-425.786194;  BLOECHL correction: -0.041813
       DOS:  cpu time    0.0040: real time    0.0069
    CHARGE:  cpu time    2.0520: real time    2.0505
    MIXING:  cpu time    0.0400: real time    0.0423
    --------------------------------------------
      LOOP:  cpu time   79.6880: real time   79.8787

 eigenvalue-minimisations  :  1136
 total energy-change (2. order) :-0.3664631E+00  (-0.3196826E-01)
 number of electron      61.9999992 magnetization       7.1057432
 augmentation part        3.0498578 magnetization       7.5353734

 Broyden mixing:
  rms(total) = 0.12845E+01    rms(broyden)= 0.12845E+01
  rms(prec ) = 0.13354E+01
  weight for this iteration     100.00

 eigenvalues of (default mixing * dielectric matrix)
  average eigenvalue GAMMA=   0.9957
  1.7856  1.7856  0.4382  0.4382  0.5312

 Free energy of the ion-electron system (eV)
  ---------------------------------------------------
  alpha Z        PSCENC =        20.51492783
  Ewald energy   TEWEN  =      7529.91642125
  -Hartree energ DENC   =    -10358.16942193
  -exchange      EXHF   =         0.00000000
  -V(xc)+E(xc)   XCENC  =      -159.34180993
  PAW double counting   =      1993.89007020    -1826.91772212
  entropy T*S    EENTRO =         0.00000000
  eigenvalues    EBANDS =      -425.78619402
  atomic energy  EATOM  =      3192.02777977
  Solvation  Ediel_sol  =         0.00000000
  ---------------------------------------------------
  free energy    TOTEN  =       -33.86594895 eV

  energy without entropy =      -33.86594895  energy(sigma->0) =      -33.86594895


--------------------------------------------------------------------------------------------------------




--------------------------------------- Iteration      1(  11)  ---------------------------------------


    POTLOK:  cpu time   50.9320: real time   51.0437
    SETDIJ:  cpu time    0.0520: real time    0.0519
     EDDAV:  cpu time   30.6680: real time   30.7275
 BZINTS: Fermi energy: -2.644996; 62.000000 electrons
         Band energy:-417.167318;  BLOECHL correction: -0.024519
       DOS:  cpu time    0.0080: real time    0.0067
    CHARGE:  cpu time    2.0880: real time    2.0917
    MIXING:  cpu time    0.0440: real time    0.0430
    --------------------------------------------
      LOOP:  cpu time   83.7920: real time   83.9646

 eigenvalue-minimisations  :  1328
 total energy-change (2. order) : 0.6849078E-02  (-0.4220515E-01)
 number of electron      61.9999993 magnetization       5.9880797
 augmentation part        2.5960509 magnetization       6.4856123

 Broyden mixing:
  rms(total) = 0.80219E+00    rms(broyden)= 0.80218E+00
  rms(prec ) = 0.82983E+00
  weight for this iteration     100.00

 eigenvalues of (default mixing * dielectric matrix)
  average eigenvalue GAMMA=   0.9920
  1.9273  1.9273  0.4373  0.4373  0.6115  0.6115

 Free energy of the ion-electron system (eV)
  ---------------------------------------------------
  alpha Z        PSCENC =        20.51492783
  Ewald energy   TEWEN  =      7529.91642125
  -Hartree energ DENC   =    -10367.44931863
  -exchange      EXHF   =         0.00000000
  -V(xc)+E(xc)   XCENC  =      -159.56172610
  PAW double counting   =      2017.84093209    -1849.98079828
  entropy T*S    EENTRO =         0.00000000
  eigenvalues    EBANDS =      -417.16731781
  atomic energy  EATOM  =      3192.02777977
  Solvation  Ediel_sol  =         0.00000000
  ---------------------------------------------------
  free energy    TOTEN  =       -33.85909987 eV

  energy without entropy =      -33.85909987  energy(sigma->0) =      -33.85909987


--------------------------------------------------------------------------------------------------------




--------------------------------------- Iteration      1(  12)  ---------------------------------------


    POTLOK:  cpu time   50.7000: real time   51.0634
    SETDIJ:  cpu time    0.0480: real time    0.0506
     EDDAV:  cpu time   30.8400: real time   31.3418
 BZINTS: Fermi energy: -2.567363; 62.000000 electrons
         Band energy:-413.419870;  BLOECHL correction: -0.015922
       DOS:  cpu time    0.0040: real time    0.0072
    CHARGE:  cpu time    2.0720: real time    2.0762
    MIXING:  cpu time    0.0600: real time    0.0563
    --------------------------------------------
      LOOP:  cpu time   83.7240: real time   84.5954

 eigenvalue-minimisations  :  1360
 total energy-change (2. order) :-0.2459053E+00  (-0.2124036E-01)
 number of electron      61.9999993 magnetization       3.8938781
 augmentation part        2.5308730 magnetization       4.2821096

 Broyden mixing:
  rms(total) = 0.66326E+00    rms(broyden)= 0.66326E+00
  rms(prec ) = 0.68808E+00
  weight for this iteration     100.00

 eigenvalues of (default mixing * dielectric matrix)
  average eigenvalue GAMMA=   1.1140
  2.2351  2.2351  0.9123  0.9123  0.4381  0.4381  0.6271

 Free energy of the ion-electron system (eV)
  ---------------------------------------------------
  alpha Z        PSCENC =        20.51492783
  Ewald energy   TEWEN  =      7529.91642125
  -Hartree energ DENC   =    -10371.22208719
  -exchange      EXHF   =         0.00000000
  -V(xc)+E(xc)   XCENC  =      -159.69334198
  PAW double counting   =      2027.49865792    -1859.72749241
  entropy T*S    EENTRO =         0.00000000
  eigenvalues    EBANDS =      -413.41987040
  atomic energy  EATOM  =      3192.02777977
  Solvation  Ediel_sol  =         0.00000000
  ---------------------------------------------------
  free energy    TOTEN  =       -34.10500522 eV

  energy without entropy =      -34.10500522  energy(sigma->0) =      -34.10500522


--------------------------------------------------------------------------------------------------------




--------------------------------------- Iteration      1(  13)  ---------------------------------------


    POTLOK:  cpu time   50.8880: real time   51.1747
    SETDIJ:  cpu time    0.0520: real time    0.0516
     EDDAV:  cpu time   28.6920: real time   28.9609
 BZINTS: Fermi energy: -2.383413; 62.000000 electrons
         Band energy:-404.670982;  BLOECHL correction:  0.000000
       DOS:  cpu time    0.0040: real time    0.0015
    CHARGE:  cpu time    2.0600: real time    2.0671
    MIXING:  cpu time    0.0600: real time    0.0605
    --------------------------------------------
      LOOP:  cpu time   81.7560: real time   82.3164

 eigenvalue-minimisations  :  1248
 total energy-change (2. order) :-0.2490393E+00  (-0.3067665E-01)
 number of electron      61.9999993 magnetization       2.0532356
 augmentation part        2.1982774 magnetization       2.2121165

 Broyden mixing:
  rms(total) = 0.28982E+00    rms(broyden)= 0.28980E+00
  rms(prec ) = 0.29646E+00
  weight for this iteration     100.00

 eigenvalues of (default mixing * dielectric matrix)
  average eigenvalue GAMMA=   1.2793
  2.5214  2.5214  1.9079  0.4379  0.4379  0.8823  0.8823  0.6429

 Free energy of the ion-electron system (eV)
  ---------------------------------------------------
  alpha Z        PSCENC =        20.51492783
  Ewald energy   TEWEN  =      7529.91642125
  -Hartree energ DENC   =    -10379.76496175
  -exchange      EXHF   =         0.00000000
  -V(xc)+E(xc)   XCENC  =      -159.69771303
  PAW double counting   =      2045.19799977    -1877.87751672
  entropy T*S    EENTRO =         0.00000000
  eigenvalues    EBANDS =      -404.67098163
  atomic energy  EATOM  =      3192.02777977
  Solvation  Ediel_sol  =         0.00000000
  ---------------------------------------------------
  free energy    TOTEN  =       -34.35404451 eV

  energy without entropy =      -34.35404451  energy(sigma->0) =      -34.35404451


--------------------------------------------------------------------------------------------------------




--------------------------------------- Iteration      1(  14)  ---------------------------------------


    POTLOK:  cpu time   50.5920: real time   51.0699
    SETDIJ:  cpu time    0.0520: real time    0.0522
     EDDAV:  cpu time   25.9920: real time   26.2108
 BZINTS: Fermi energy: -2.311677; 62.000000 electrons
         Band energy:-401.479036;  BLOECHL correction:  0.000000
       DOS:  cpu time    0.0000: real time    0.0039
    CHARGE:  cpu time    2.0800: real time    2.0910
    MIXING:  cpu time    0.0480: real time    0.0456
    --------------------------------------------
      LOOP:  cpu time   78.7640: real time   79.4736

 eigenvalue-minimisations  :  1120
 total energy-change (2. order) :-0.3393552E+00  (-0.2732553E-01)
 number of electron      61.9999993 magnetization       1.1493462
 augmentation part        2.3911734 magnetization       1.1791339

 Broyden mixing:
  rms(total) = 0.29871E+00    rms(broyden)= 0.29870E+00
  rms(prec ) = 0.32059E+00
  weight for this iteration     100.00

 eigenvalues of (default mixing * dielectric matrix)
  average eigenvalue GAMMA=   1.2871
  2.7242  2.7242  1.9785  0.9980  0.9980  0.4380  0.4380  0.7046  0.5803

 Free energy of the ion-electron system (eV)
  ---------------------------------------------------
  alpha Z        PSCENC =        20.51492783
  Ewald energy   TEWEN  =      7529.91642125
  -Hartree energ DENC   =    -10381.62528132
  -exchange      EXHF   =         0.00000000
  -V(xc)+E(xc)   XCENC  =      -159.86482001
  PAW double counting   =      2043.41844766    -1877.60183865
  entropy T*S    EENTRO =         0.00000000
  eigenvalues    EBANDS =      -401.47903626
  atomic energy  EATOM  =      3192.02777977
  Solvation  Ediel_sol  =         0.00000000
  ---------------------------------------------------
  free energy    TOTEN  =       -34.69339975 eV

  energy without entropy =      -34.69339975  energy(sigma->0) =      -34.69339975


--------------------------------------------------------------------------------------------------------




--------------------------------------- Iteration      1(  15)  ---------------------------------------


    POTLOK:  cpu time   50.7520: real time   50.9610
    SETDIJ:  cpu time    0.0480: real time    0.0505
     EDDAV:  cpu time   25.6600: real time   25.7927
 BZINTS: Fermi energy: -2.300513; 62.000000 electrons
         Band energy:-400.912790;  BLOECHL correction:  0.000000
       DOS:  cpu time    0.0000: real time    0.0035
    CHARGE:  cpu time    2.0640: real time    2.0747
    MIXING:  cpu time    0.0480: real time    0.0498
    --------------------------------------------
      LOOP:  cpu time   78.5720: real time   78.9323

 eigenvalue-minimisations  :  1104
 total energy-change (2. order) :-0.1300500E+00  (-0.6970525E-02)
 number of electron      61.9999993 magnetization       0.5674187
 augmentation part        2.4972310 magnetization       0.6714313

 Broyden mixing:
  rms(total) = 0.32404E+00    rms(broyden)= 0.32404E+00
  rms(prec ) = 0.35519E+00
  weight for this iteration     100.00

 eigenvalues of (default mixing * dielectric matrix)
  average eigenvalue GAMMA=   1.5059
  4.2527  3.5942  1.5820  1.5820  0.4379  0.4379  1.0290  0.6373  0.7530  0.7530

 Free energy of the ion-electron system (eV)
  ---------------------------------------------------
  alpha Z        PSCENC =        20.51492783
  Ewald energy   TEWEN  =      7529.91642125
  -Hartree energ DENC   =    -10382.29114872
  -exchange      EXHF   =         0.00000000
  -V(xc)+E(xc)   XCENC  =      -159.95271336
  PAW double counting   =      2041.75118541    -1875.87711148
  entropy T*S    EENTRO =         0.00000000
  eigenvalues    EBANDS =      -400.91279048
  atomic energy  EATOM  =      3192.02777977
  Solvation  Ediel_sol  =         0.00000000
  ---------------------------------------------------
  free energy    TOTEN  =       -34.82344979 eV

  energy without entropy =      -34.82344979  energy(sigma->0) =      -34.82344979


--------------------------------------------------------------------------------------------------------




--------------------------------------- Iteration      1(  16)  ---------------------------------------


    POTLOK:  cpu time   51.0200: real time   51.0699
    SETDIJ:  cpu time    0.0520: real time    0.0526
     EDDAV:  cpu time   25.5840: real time   25.8489
 BZINTS: Fermi energy: -2.296165; 62.000000 electrons
         Band energy:-398.930101;  BLOECHL correction:  0.000000
       DOS:  cpu time    0.0000: real time    0.0036
    CHARGE:  cpu time    2.0640: real time    2.0647
    MIXING:  cpu time    0.0480: real time    0.0481
    --------------------------------------------
      LOOP:  cpu time   78.7680: real time   79.0879

 eigenvalue-minimisations  :  1104
 total energy-change (2. order) : 0.5947754E-02  (-0.4361314E-02)
 number of electron      61.9999993 magnetization       0.2805959
 augmentation part        2.3607884 magnetization       0.4849948

 Broyden mixing:
  rms(total) = 0.24849E+00    rms(broyden)= 0.24849E+00
  rms(prec ) = 0.26835E+00
  weight for this iteration     100.00

 eigenvalues of (default mixing * dielectric matrix)
  average eigenvalue GAMMA=   1.5775
  6.0513  2.8371  1.8167  1.8167  0.9562  0.9562  0.4379  0.4379  0.7212  0.7212
  0.6000

 Free energy of the ion-electron system (eV)
  ---------------------------------------------------
  alpha Z        PSCENC =        20.51492783
  Ewald energy   TEWEN  =      7529.91642125
  -Hartree energ DENC   =    -10384.43125569
  -exchange      EXHF   =         0.00000000
  -V(xc)+E(xc)   XCENC  =      -159.94666637
  PAW double counting   =      2044.47662911    -1878.44523717
  entropy T*S    EENTRO =         0.00000000
  eigenvalues    EBANDS =      -398.93010076
  atomic energy  EATOM  =      3192.02777977
  Solvation  Ediel_sol  =         0.00000000
  ---------------------------------------------------
  free energy    TOTEN  =       -34.81750203 eV

  energy without entropy =      -34.81750203  energy(sigma->0) =      -34.81750203


--------------------------------------------------------------------------------------------------------




--------------------------------------- Iteration      1(  17)  ---------------------------------------


    POTLOK:  cpu time   50.8240: real time   50.9720
    SETDIJ:  cpu time    0.0520: real time    0.0545
     EDDAV:  cpu time   30.0120: real time   30.0645
 BZINTS: Fermi energy: -2.290468; 62.000000 electrons
         Band energy:-396.261655;  BLOECHL correction:  0.000000
       DOS:  cpu time    0.0040: real time    0.0031
    CHARGE:  cpu time    2.0400: real time    2.0497
    MIXING:  cpu time    0.0680: real time    0.0678
    --------------------------------------------
      LOOP:  cpu time   83.0000: real time   83.2117

 eigenvalue-minimisations  :  1312
 total energy-change (2. order) : 0.2926971E-01  (-0.1047924E-01)
 number of electron      61.9999993 magnetization       0.1813654
 augmentation part        2.0553122 magnetization       0.3654879

 Broyden mixing:
  rms(total) = 0.97907E-01    rms(broyden)= 0.97892E-01
  rms(prec ) = 0.98381E-01
  weight for this iteration     100.00

 eigenvalues of (default mixing * dielectric matrix)
  average eigenvalue GAMMA=   1.5491
  6.3825  2.8641  1.8747  1.8747  0.9604  0.9604  0.4379  0.4379  0.7885  0.7885
  0.6099  0.6099

 Free energy of the ion-electron system (eV)
  ---------------------------------------------------
  alpha Z        PSCENC =        20.51492783
  Ewald energy   TEWEN  =      7529.91642125
  -Hartree energ DENC   =    -10387.34517541
  -exchange      EXHF   =         0.00000000
  -V(xc)+E(xc)   XCENC  =      -159.86971809
  PAW double counting   =      2050.40699540    -1884.17780829
  entropy T*S    EENTRO =         0.00000000
  eigenvalues    EBANDS =      -396.26165478
  atomic energy  EATOM  =      3192.02777977
  Solvation  Ediel_sol  =         0.00000000
  ---------------------------------------------------
  free energy    TOTEN  =       -34.78823232 eV

  energy without entropy =      -34.78823232  energy(sigma->0) =      -34.78823232


--------------------------------------------------------------------------------------------------------




--------------------------------------- Iteration      1(  18)  ---------------------------------------


    POTLOK:  cpu time   51.0920: real time   51.1550
    SETDIJ:  cpu time    0.0520: real time    0.0516
     EDDAV:  cpu time   26.3800: real time   26.8314
 BZINTS: Fermi energy: -2.289685; 62.000000 electrons
         Band energy:-396.157172;  BLOECHL correction:  0.000000
       DOS:  cpu time    0.0040: real time    0.0036
    CHARGE:  cpu time    2.0600: real time    2.0678
    MIXING:  cpu time    0.0960: real time    0.0966
    --------------------------------------------
      LOOP:  cpu time   79.6840: real time   80.2060

 eigenvalue-minimisations  :  1152
 total energy-change (2. order) :-0.8582116E-02  (-0.2106825E-02)
 number of electron      61.9999993 magnetization      -0.0151020
 augmentation part        2.0206993 magnetization       0.1049066

 Broyden mixing:
  rms(total) = 0.59277E-01    rms(broyden)= 0.59274E-01
  rms(prec ) = 0.59603E-01
  weight for this iteration     100.00

 eigenvalues of (default mixing * dielectric matrix)
  average eigenvalue GAMMA=   1.6294
  7.2386  2.5093  1.9951  1.9951  1.4225  1.4225  0.4379  0.4379  0.8975  0.8975
  0.6618  0.6618  0.6047

 Free energy of the ion-electron system (eV)
  ---------------------------------------------------
  alpha Z        PSCENC =        20.51492783
  Ewald energy   TEWEN  =      7529.91642125
  -Hartree energ DENC   =    -10387.48156077
  -exchange      EXHF   =         0.00000000
  -V(xc)+E(xc)   XCENC  =      -159.86726362
  PAW double counting   =      2050.82323873    -1884.57318588
  entropy T*S    EENTRO =         0.00000000
  eigenvalues    EBANDS =      -396.15717175
  atomic energy  EATOM  =      3192.02777977
  Solvation  Ediel_sol  =         0.00000000
  ---------------------------------------------------
  free energy    TOTEN  =       -34.79681444 eV

  energy without entropy =      -34.79681444  energy(sigma->0) =      -34.79681444


--------------------------------------------------------------------------------------------------------




--------------------------------------- Iteration      1(  19)  ---------------------------------------


    POTLOK:  cpu time   50.9840: real time   51.1509
    SETDIJ:  cpu time    0.0520: real time    0.0515
     EDDAV:  cpu time   27.2840: real time   27.4404
 BZINTS: Fermi energy: -2.281781; 62.000000 electrons
         Band energy:-396.272718;  BLOECHL correction:  0.000000
       DOS:  cpu time    0.0040: real time    0.0031
    CHARGE:  cpu time    2.0280: real time    2.0364
    MIXING:  cpu time    0.0520: real time    0.0510
    --------------------------------------------
      LOOP:  cpu time   80.4040: real time   80.7333

 eigenvalue-minimisations  :  1184
 total energy-change (2. order) :-0.6017834E-02  (-0.2051869E-02)
 number of electron      61.9999993 magnetization      -0.0027476
 augmentation part        2.0504758 magnetization      -0.0066956

 Broyden mixing:
  rms(total) = 0.22191E-01    rms(broyden)= 0.22177E-01
  rms(prec ) = 0.24332E-01
  weight for this iteration     100.00

 eigenvalues of (default mixing * dielectric matrix)
  average eigenvalue GAMMA=   1.6079
  7.3304  2.8323  2.0002  2.0002  1.2849  1.2849  1.1375  0.4379  0.4379  0.9019
  0.9019  0.6991  0.6016  0.6603

 Free energy of the ion-electron system (eV)
  ---------------------------------------------------
  alpha Z        PSCENC =        20.51492783
  Ewald energy   TEWEN  =      7529.91642125
  -Hartree energ DENC   =    -10387.42767306
  -exchange      EXHF   =         0.00000000
  -V(xc)+E(xc)   XCENC  =      -159.87489626
  PAW double counting   =      2051.20197314    -1884.88864679
  entropy T*S    EENTRO =         0.00000000
  eigenvalues    EBANDS =      -396.27271815
  atomic energy  EATOM  =      3192.02777977
  Solvation  Ediel_sol  =         0.00000000
  ---------------------------------------------------
  free energy    TOTEN  =       -34.80283227 eV

  energy without entropy =      -34.80283227  energy(sigma->0) =      -34.80283227


--------------------------------------------------------------------------------------------------------




--------------------------------------- Iteration      1(  20)  ---------------------------------------


    POTLOK:  cpu time   50.7960: real time   51.0076
    SETDIJ:  cpu time    0.0520: real time    0.0513
     EDDAV:  cpu time   27.6080: real time   27.7220
 BZINTS: Fermi energy: -2.336284; 62.000000 electrons
         Band energy:-395.991171;  BLOECHL correction:  0.000000
       DOS:  cpu time    0.0000: real time    0.0035
    CHARGE:  cpu time    2.0280: real time    2.0311
    MIXING:  cpu time    0.0560: real time    0.0559
    --------------------------------------------
      LOOP:  cpu time   80.5400: real time   80.8715

 eigenvalue-minimisations  :  1200
 total energy-change (2. order) :-0.1137182E-03  (-0.2444306E-03)
 number of electron      61.9999993 magnetization      -0.0128110
 augmentation part        2.0243133 magnetization      -0.0039659

 Broyden mixing:
  rms(total) = 0.44400E-02    rms(broyden)= 0.44362E-02
  rms(prec ) = 0.64711E-02
  weight for this iteration     100.00

 eigenvalues of (default mixing * dielectric matrix)
  average eigenvalue GAMMA=   1.5778
  7.3879  2.9806  2.0050  2.0050  1.3149  1.3149  1.1362  1.1362  0.4379  0.4379
  0.7810  0.7810  0.6905  0.6142  0.6444

 Free energy of the ion-electron system (eV)
  ---------------------------------------------------
  alpha Z        PSCENC =        20.51492783
  Ewald energy   TEWEN  =      7529.91642125
  -Hartree energ DENC   =    -10387.73986204
  -exchange      EXHF   =         0.00000000
  -V(xc)+E(xc)   XCENC  =      -159.87214116
  PAW double counting   =      2052.15746488    -1885.81636600
  entropy T*S    EENTRO =         0.00000000
  eigenvalues    EBANDS =      -395.99117051
  atomic energy  EATOM  =      3192.02777977
  Solvation  Ediel_sol  =         0.00000000
  ---------------------------------------------------
  free energy    TOTEN  =       -34.80294599 eV

  energy without entropy =      -34.80294599  energy(sigma->0) =      -34.80294599


--------------------------------------------------------------------------------------------------------




--------------------------------------- Iteration      1(  21)  ---------------------------------------


    POTLOK:  cpu time   50.8960: real time   50.9834
    SETDIJ:  cpu time    0.0520: real time    0.0526
     EDDAV:  cpu time   21.7200: real time   21.8178
 BZINTS: Fermi energy: -2.329324; 62.000000 electrons
         Band energy:-395.745521;  BLOECHL correction:  0.000000
       DOS:  cpu time    0.0040: real time    0.0034
    CHARGE:  cpu time    2.0360: real time    2.0507
    MIXING:  cpu time    0.0520: real time    0.0547
    --------------------------------------------
      LOOP:  cpu time   74.7600: real time   74.9626

 eigenvalue-minimisations  :   896
 total energy-change (2. order) :-0.4142474E-03  (-0.3381053E-04)
 number of electron      61.9999993 magnetization      -0.0149220
 augmentation part        2.0152510 magnetization      -0.0081379

 Broyden mixing:
  rms(total) = 0.58966E-02    rms(broyden)= 0.58962E-02
  rms(prec ) = 0.77545E-02
  weight for this iteration     100.00

 eigenvalues of (default mixing * dielectric matrix)
  average eigenvalue GAMMA=   1.5699
  7.4516  2.8904  2.0223  2.0223  1.8769  1.2212  1.2212  0.4379  0.4379  1.0171
  1.0171  0.8176  0.7216  0.7216  0.6205  0.6205

 Free energy of the ion-electron system (eV)
  ---------------------------------------------------
  alpha Z        PSCENC =        20.51492783
  Ewald energy   TEWEN  =      7529.91642125
  -Hartree energ DENC   =    -10387.97525574
  -exchange      EXHF   =         0.00000000
  -V(xc)+E(xc)   XCENC  =      -159.87115823
  PAW double counting   =      2052.66046139    -1886.33101584
  entropy T*S    EENTRO =         0.00000000
  eigenvalues    EBANDS =      -395.74552066
  atomic energy  EATOM  =      3192.02777977
  Solvation  Ediel_sol  =         0.00000000
  ---------------------------------------------------
  free energy    TOTEN  =       -34.80336024 eV

  energy without entropy =      -34.80336024  energy(sigma->0) =      -34.80336024


--------------------------------------------------------------------------------------------------------




--------------------------------------- Iteration      1(  22)  ---------------------------------------


    POTLOK:  cpu time   51.0040: real time   51.1451
    SETDIJ:  cpu time    0.0520: real time    0.0524
     EDDAV:  cpu time   22.8040: real time   22.8300
 BZINTS: Fermi energy: -2.309248; 62.000000 electrons
         Band energy:-395.581798;  BLOECHL correction:  0.000000
       DOS:  cpu time    0.0000: real time    0.0034
    CHARGE:  cpu time    2.0440: real time    2.0439
    MIXING:  cpu time    0.0560: real time    0.0557
    --------------------------------------------
      LOOP:  cpu time   75.9600: real time   76.1306

 eigenvalue-minimisations  :   960
 total energy-change (2. order) : 0.1360823E-03  (-0.6196317E-04)
 number of electron      61.9999993 magnetization      -0.0060935
 augmentation part        2.0237113 magnetization      -0.0085032

 Broyden mixing:
  rms(total) = 0.22607E-02    rms(broyden)= 0.22595E-02
  rms(prec ) = 0.47555E-02
  weight for this iteration     100.00

 eigenvalues of (default mixing * dielectric matrix)
  average eigenvalue GAMMA=   1.5630
  7.4625  2.5940  2.5940  2.0168  2.0168  1.2358  1.2358  1.1153  1.1153  0.4379
  0.4379  0.8456  0.8456  0.6968  0.6968  0.6121  0.6121

 Free energy of the ion-electron system (eV)
  ---------------------------------------------------
  alpha Z        PSCENC =        20.51492783
  Ewald energy   TEWEN  =      7529.91642125
  -Hartree energ DENC   =    -10388.12466567
  -exchange      EXHF   =         0.00000000
  -V(xc)+E(xc)   XCENC  =      -159.87513940
  PAW double counting   =      2052.83167062    -1886.51242031
  entropy T*S    EENTRO =         0.00000000
  eigenvalues    EBANDS =      -395.58179823
  atomic energy  EATOM  =      3192.02777977
  Solvation  Ediel_sol  =         0.00000000
  ---------------------------------------------------
  free energy    TOTEN  =       -34.80322415 eV

  energy without entropy =      -34.80322415  energy(sigma->0) =      -34.80322415


--------------------------------------------------------------------------------------------------------




--------------------------------------- Iteration      1(  23)  ---------------------------------------


    POTLOK:  cpu time   51.0760: real time   51.2116
    SETDIJ:  cpu time    0.0520: real time    0.0523
     EDDAV:  cpu time   20.5600: real time   20.7732
 BZINTS: Fermi energy: -2.304979; 62.000000 electrons
         Band energy:-395.307581;  BLOECHL correction:  0.000000
       DOS:  cpu time    0.0000: real time    0.0036
    CHARGE:  cpu time    2.0320: real time    2.0336
    MIXING:  cpu time    0.0600: real time    0.0580
    --------------------------------------------
      LOOP:  cpu time   73.7800: real time   74.1322

 eigenvalue-minimisations  :   832
 total energy-change (2. order) : 0.2048075E-03  (-0.1393640E-04)
 number of electron      61.9999993 magnetization       0.0028454
 augmentation part        2.0267905 magnetization       0.0014936

 Broyden mixing:
  rms(total) = 0.23321E-02    rms(broyden)= 0.23320E-02
  rms(prec ) = 0.46752E-02
  weight for this iteration     100.00

 eigenvalues of (default mixing * dielectric matrix)
  average eigenvalue GAMMA=   1.5548
  7.4482  2.8560  2.5615  2.0188  2.0188  1.4805  1.2232  1.2232  0.4379  0.4379
  0.9848  0.9848  0.9232  0.7330  0.7330  0.6087  0.6272  0.6860

 Free energy of the ion-electron system (eV)
  ---------------------------------------------------
  alpha Z        PSCENC =        20.51492783
  Ewald energy   TEWEN  =      7529.91642125
  -Hartree energ DENC   =    -10388.39579294
  -exchange      EXHF   =         0.00000000
  -V(xc)+E(xc)   XCENC  =      -159.87751103
  PAW double counting   =      2052.90746109    -1886.58872402
  entropy T*S    EENTRO =         0.00000000
  eigenvalues    EBANDS =      -395.30758129
  atomic energy  EATOM  =      3192.02777977
  Solvation  Ediel_sol  =         0.00000000
  ---------------------------------------------------
  free energy    TOTEN  =       -34.80301935 eV

  energy without entropy =      -34.80301935  energy(sigma->0) =      -34.80301935


--------------------------------------------------------------------------------------------------------




--------------------------------------- Iteration      1(  24)  ---------------------------------------


    POTLOK:  cpu time   50.8200: real time   51.1120
    SETDIJ:  cpu time    0.0520: real time    0.0523
     EDDAV:  cpu time   23.2920: real time   23.5394
 BZINTS: Fermi energy: -2.309679; 62.000000 electrons
         Band energy:-394.506474;  BLOECHL correction:  0.000000
       DOS:  cpu time    0.0040: real time    0.0029
    CHARGE:  cpu time    2.0680: real time    2.0803
    MIXING:  cpu time    0.0560: real time    0.0596
    --------------------------------------------
      LOOP:  cpu time   76.2920: real time   76.8466

 eigenvalue-minimisations  :   992
 total energy-change (2. order) : 0.1840873E-03  (-0.3918628E-04)
 number of electron      61.9999993 magnetization      -0.0043386
 augmentation part        2.0241629 magnetization      -0.0026536

 Broyden mixing:
[...]
     34      -0.8626      0.00000
     35      -0.5463      0.00000
     36       0.0982      0.00000
     37       0.3777      0.00000
     38       1.3205      0.00000
     39       1.4337      0.00000
     40       2.1142      0.00000
     41       2.3284      0.00000
     42       2.4681      0.00000
     43       2.6934      0.00000
     44       2.7234      0.00000
     45       3.0439      0.00000
     46       3.4230      0.00000
     47       3.6556      0.00000
     48       3.8854      0.00000

 k-point     5 :      -0.4000    0.2000    0.0000
  band No.  band energies     occupation 
      1     -14.2747      1.00000
      2     -13.5765      1.00000
      3     -13.2189      1.00000
      4     -13.1574      1.00000
      5     -12.8475      1.00000
      6     -12.6871      1.00000
      7     -10.2985      1.00000
      8      -8.5535      1.00000
      9      -6.5367      1.00000
     10      -6.0176      1.00000
     11      -5.9960      1.00000
     12      -5.5072      1.00000
     13      -5.2417      1.00000
     14      -4.9584      1.00000
     15      -4.6663      1.00000
     16      -4.3900      1.00000
     17      -4.3194      1.00000
     18      -4.1944      1.00000
     19      -4.1494      1.00000
     20      -3.9360      1.00000
     21      -3.8551      1.00000
     22      -3.3730      1.00000
     23      -3.0734      1.00000
     24      -3.0248      1.00000
     25      -2.8745      1.00000
     26      -2.6768      1.00000
     27      -2.5576      1.00000
     28      -2.4105      1.00000
     29      -2.3822      1.00000
     30      -2.3425      1.00000
     31      -2.3348      1.00000
     32      -1.1404      0.00000
     33      -1.0734      0.00000
     34      -0.9729      0.00000
     35      -0.5179      0.00000
     36      -0.4544      0.00000
     37       0.2746      0.00000
     38       0.8614      0.00000
     39       1.2446      0.00000
     40       1.8593      0.00000
     41       2.0259      0.00000
     42       2.2954      0.00000
     43       2.9496      0.00000
     44       3.1698      0.00000
     45       3.2143      0.00000
     46       3.3822      0.00000
     47       3.3901      0.00000
     48       4.1300      0.00000


--------------------------------------------------------------------------------------------------------


 soft charge-density along one line, spin component           1
         0         1         2         3         4         5         6         7         8         9
 total charge-density along one line

 soft charge-density along one line, spin component           2
         0         1         2         3         4         5         6         7         8         9
 total charge-density along one line

 pseudopotential strength for first ion, spin component:           1
 -9.479  -0.084  -0.000   0.000   0.000   0.680   0.030   0.000
 -0.084  -9.572   0.000   0.000   0.000   0.030   0.713  -0.000
 -0.000   0.000  -9.435   0.000   0.000   0.000  -0.000   0.664
  0.000   0.000   0.000  -9.572   0.084  -0.000  -0.000  -0.000
  0.000   0.000   0.000   0.084  -9.479  -0.000  -0.000  -0.000
  0.680   0.030   0.000  -0.000  -0.000   0.781  -0.011  -0.000
  0.030   0.713  -0.000  -0.000  -0.000  -0.011   0.769   0.000
  0.000  -0.000   0.664  -0.000  -0.000  -0.000   0.000   0.787
 -0.000  -0.000  -0.000   0.713  -0.030   0.000   0.000   0.000
 -0.000  -0.000  -0.000  -0.030   0.680   0.000   0.000   0.000
 -0.000  -0.000   0.003  -0.000   0.000  -0.000  -0.000  -0.001
  0.000   0.000  -0.000   0.000  -0.000  -0.000  -0.000   0.000
  0.000   0.000   0.000  -0.000   0.001  -0.000  -0.000  -0.000
 -0.000  -0.000   0.000  -0.000   0.000  -0.000   0.000  -0.000
  0.001  -0.000   0.000   0.000  -0.000   0.000  -0.000  -0.000
 -0.000  -0.000  -0.000   0.000  -0.001   0.000   0.000   0.000
  0.000   0.000  -0.000   0.000  -0.000  -0.000  -0.000   0.000
 -0.001   0.000  -0.000  -0.000   0.000   0.000  -0.000   0.000
 pseudopotential strength for first ion, spin component:           2
 -9.479  -0.084  -0.000   0.000   0.000   0.680   0.030   0.000
 -0.084  -9.572   0.000   0.000   0.000   0.030   0.713  -0.000
 -0.000   0.000  -9.435   0.000   0.000   0.000  -0.000   0.664
  0.000   0.000   0.000  -9.572   0.084  -0.000  -0.000  -0.000
  0.000   0.000   0.000   0.084  -9.479  -0.000  -0.000  -0.000
  0.680   0.030   0.000  -0.000  -0.000   0.781  -0.011  -0.000
  0.030   0.713  -0.000  -0.000  -0.000  -0.011   0.769   0.000
  0.000  -0.000   0.664  -0.000  -0.000  -0.000   0.000   0.787
 -0.000  -0.000  -0.000   0.713  -0.030   0.000   0.000   0.000
 -0.000  -0.000  -0.000  -0.030   0.680   0.000   0.000   0.000
 -0.000  -0.000   0.003  -0.000   0.000  -0.000  -0.000  -0.001
  0.000   0.000  -0.000   0.000  -0.000  -0.000  -0.000   0.000
  0.000   0.000   0.000  -0.000   0.001  -0.000  -0.000  -0.000
 -0.000  -0.000   0.000  -0.000   0.000  -0.000   0.000  -0.000
  0.001  -0.000   0.000   0.000  -0.000   0.000  -0.000  -0.000
 -0.000  -0.000  -0.000   0.000  -0.001   0.000   0.000   0.000
  0.000   0.000  -0.000   0.000  -0.000  -0.000  -0.000   0.000
 -0.001   0.000  -0.000  -0.000   0.000   0.000  -0.000   0.000
 total augmentation occupancy for first ion, spin component:           1
  1.680  -0.296   0.000   0.001  -0.000   0.077   0.120   0.000  -0.000   0.000  -0.000   0.000   0.000   0.000   0.009  -0.000
 -0.296   1.421  -0.000  -0.000   0.001   0.118   0.188   0.000   0.000  -0.000  -0.000   0.000   0.000   0.000   0.006  -0.000
  0.000  -0.000   1.918  -0.000  -0.000   0.000   0.000  -0.022   0.000  -0.000  -0.012   0.001  -0.000   0.000   0.000   0.000
  0.001  -0.000  -0.000   1.421   0.296  -0.000  -0.000   0.000   0.188  -0.118   0.000   0.000  -0.006   0.000   0.000   0.000
 -0.000   0.001  -0.000   0.296   1.680  -0.000  -0.000  -0.000  -0.120   0.077   0.000  -0.000   0.009  -0.000  -0.000  -0.000
  0.077   0.118   0.000  -0.000  -0.000   0.055   0.030   0.000  -0.000  -0.000   0.000  -0.000   0.000   0.000   0.011   0.000
  0.120   0.188   0.000  -0.000  -0.000   0.030   0.088   0.000  -0.000  -0.000   0.000   0.000   0.000  -0.000  -0.003  -0.000
  0.000   0.000  -0.022   0.000  -0.000   0.000   0.000   0.049   0.000  -0.000   0.019  -0.008  -0.000   0.000   0.000   0.000
 -0.000   0.000   0.000   0.188  -0.120  -0.000  -0.000   0.000   0.088  -0.030   0.000   0.000   0.003  -0.000   0.000  -0.000
  0.000  -0.000  -0.000  -0.118   0.077  -0.000  -0.000  -0.000  -0.030   0.055  -0.000   0.000   0.011  -0.000  -0.000  -0.002
 -0.000  -0.000  -0.012   0.000   0.000   0.000   0.000   0.019   0.000  -0.000   0.992  -0.251   0.000   0.001  -0.000   0.000
  0.000   0.000   0.001   0.000  -0.000  -0.000   0.000  -0.008  -0.000   0.000  -0.251   0.108   0.000  -0.000  -0.000  -0.000
  0.000   0.000  -0.000  -0.006   0.009   0.000   0.000  -0.000   0.003   0.011   0.000   0.000   0.166   0.000  -0.000  -0.011
  0.000   0.000   0.000   0.000  -0.000   0.000  -0.000   0.000   0.000  -0.000   0.001  -0.000   0.000   0.168   0.000  -0.000
  0.009   0.006   0.000   0.000  -0.000   0.011  -0.003   0.000   0.000  -0.000  -0.000  -0.000  -0.000   0.000   0.166   0.000
 -0.000  -0.000   0.000   0.000  -0.000   0.000  -0.000   0.000  -0.000  -0.002   0.000  -0.000  -0.011  -0.000   0.000   0.001
  0.000   0.000   0.000   0.000  -0.000  -0.000   0.000  -0.000  -0.000   0.000  -0.000   0.000  -0.000  -0.012  -0.000   0.000
 -0.000  -0.000  -0.000  -0.000   0.000  -0.002   0.000  -0.000  -0.000  -0.000  -0.000   0.000  -0.000  -0.000  -0.011  -0.000
 total augmentation occupancy for first ion, spin component:           2
 -0.000  -0.000  -0.000  -0.000   0.000  -0.000   0.000  -0.000  -0.000   0.000  -0.000  -0.000   0.000  -0.000   0.000   0.000
 -0.000  -0.000  -0.000   0.000  -0.000   0.000  -0.000  -0.000  -0.000   0.000   0.000  -0.000   0.000  -0.000  -0.000   0.000
 -0.000  -0.000  -0.000  -0.000   0.000  -0.000   0.000  -0.000   0.000   0.000  -0.000  -0.000  -0.000  -0.000   0.000  -0.000
 -0.000   0.000  -0.000  -0.000   0.000   0.000   0.000   0.000  -0.000  -0.000   0.000   0.000   0.000   0.000   0.000   0.000
 -0.000  -0.000   0.000   0.000  -0.000  -0.000  -0.000   0.000  -0.000  -0.000   0.000   0.000   0.000   0.000  -0.000   0.000
 -0.000   0.000  -0.000   0.000  -0.000   0.000  -0.000   0.000   0.000  -0.000   0.000   0.000  -0.000   0.000  -0.000   0.000
  0.000  -0.000   0.000   0.000  -0.000  -0.000   0.000  -0.000  -0.000   0.000   0.000  -0.000  -0.000   0.000  -0.000   0.000
 -0.000  -0.000  -0.000   0.000   0.000   0.000  -0.000   0.000  -0.000  -0.000   0.000   0.000  -0.000   0.000  -0.000   0.000
 -0.000  -0.000   0.000  -0.000  -0.000   0.000  -0.000  -0.000   0.000   0.000   0.000  -0.000   0.000   0.000  -0.000   0.000
  0.000   0.000   0.000  -0.000  -0.000   0.000   0.000  -0.000   0.000   0.000  -0.000  -0.000  -0.000  -0.000   0.000   0.000
 -0.000  -0.000  -0.000   0.000   0.000   0.000  -0.000   0.000   0.000  -0.000  -0.000   0.000   0.000   0.000   0.000   0.000
 -0.000   0.000  -0.000   0.000   0.000   0.000   0.000   0.000  -0.000  -0.000   0.000  -0.000   0.000   0.000   0.000   0.000
  0.000   0.000  -0.000   0.000   0.000  -0.000  -0.000  -0.000   0.000  -0.000   0.000   0.000  -0.000   0.000   0.000   0.000
 -0.000  -0.000  -0.000   0.000   0.000   0.000  -0.000   0.000   0.000  -0.000   0.000   0.000  -0.000  -0.000   0.000   0.000
  0.000  -0.000   0.000   0.000  -0.000  -0.000  -0.000  -0.000  -0.000   0.000  -0.000   0.000   0.000   0.000  -0.000  -0.000
  0.000   0.000  -0.000   0.000   0.000   0.000   0.000   0.000   0.000   0.000   0.000   0.000   0.000   0.000  -0.000  -0.000
 -0.000   0.000  -0.000   0.000   0.000   0.000  -0.000   0.000   0.000  -0.000  -0.000  -0.000  -0.000   0.000   0.000  -0.000
  0.000  -0.000   0.000   0.000  -0.000   0.000  -0.000   0.000   0.000  -0.000   0.000  -0.000   0.000   0.000   0.000   0.000


------------------------ aborting loop because EDIFF is reached ----------------------------------------





 total charge     

# of ion       s       p       d       tot
------------------------------------------
    1        0.350   0.374   7.378   8.102
    2        0.350   0.374   7.378   8.102
    3        1.165   1.257   0.088   2.510
    4        1.165   1.257   0.088   2.510
    5        1.398   1.918   0.043   3.359
    6        1.390   1.938   0.043   3.372
    7        1.396   1.922   0.043   3.361
    8        1.398   1.918   0.043   3.359
    9        1.390   1.938   0.043   3.372
   10        1.396   1.922   0.043   3.361
--------------------------------------------------
tot         11.399  14.818  15.191  41.409



 magnetization (x)

# of ion       s       p       d       tot
------------------------------------------
    1        0.000   0.000   0.000   0.000
    2        0.000   0.000   0.000   0.000
    3       -0.000   0.000   0.000   0.000
    4       -0.000   0.000   0.000   0.000
    5       -0.000  -0.000  -0.000  -0.000
    6       -0.000  -0.000  -0.000  -0.000
    7       -0.000  -0.000  -0.000  -0.000
    8       -0.000  -0.000  -0.000  -0.000
    9       -0.000  -0.000  -0.000  -0.000
   10       -0.000  -0.000  -0.000  -0.000
--------------------------------------------------
tot         -0.000  -0.000   0.000   0.000

    CHARGE:  cpu time    2.0960: real time    2.1006
    FORLOC:  cpu time    0.0640: real time    0.0616
    FORNL :  cpu time    6.7640: real time    6.7778
    STRESS:  cpu time   19.8600: real time   19.9852
    FORCOR:  cpu time   50.7760: real time   51.1116
    FORHAR:  cpu time    0.3360: real time    0.3395
    MIXING:  cpu time    0.0400: real time    0.0422
    OFIELD:  cpu time    0.0000: real time    0.0001

  FORCE on cell =-STRESS in cart. coord.  units (eV):
  Direction    XX          YY          ZZ          XY          YZ          ZX
  --------------------------------------------------------------------------------------
  Alpha Z    22.73098    22.73098    22.73098
  Ewald    9050.35715  9050.35488-10899.86357    -0.00192    -0.00054    -0.00098
  Hartree  9624.85494  9624.85585 -9175.81439    -0.00031     0.00008     0.00013
  E(xc)    -264.11761  -264.11762  -263.72560     0.00004     0.00001     0.00002
  Local  -19525.00236-19525.00188 19197.83396     0.00196     0.00036     0.00067
  n-local   634.99472   634.43501   643.39906    -0.36397     1.16557     1.36252
  augment   -60.26459   -60.26447   -66.68459     0.00010     0.00004     0.00004
  Kinetic   519.77504   513.81059   542.01979    -3.83547     0.88335     1.15883
  Fock        0.00000     0.00000     0.00000     0.00000     0.00000     0.00000
  -------------------------------------------------------------------------------------
  Total       0.06581     0.06581    -0.10436     0.00000     0.00000     0.00000
  in kB       0.12058     0.12058    -0.19123     0.00000     0.00000     0.00000
  external pressure =        0.02 kB  Pullay stress =        0.00 kB


 VOLUME and BASIS-vectors are now :
 -----------------------------------------------------------------------------
  energy-cutoff  :      520.00
  volume of cell :      874.38
      direct lattice vectors                 reciprocal lattice vectors
     6.772280782 -0.000000129  0.000000000     0.147660740 -0.085251965 -0.000000000
     3.386140033  5.864966791  0.000000000     0.000000003  0.170503947  0.000000000
     0.000000000 -0.000000000 22.014107774    -0.000000000 -0.000000000  0.045425416

  length of vectors
     6.772280782  6.772280250 22.014107774     0.170503934  0.170503947  0.045425416


 FORCES acting on ions
    electron-ion (+dipol)            ewald-force                    non-local-force                 convergence-correction
 -----------------------------------------------------------------------------------------------
   0.171E-03 0.814E-04 0.105E+01   0.600E-03 0.362E-03 -.107E+01   0.278E-16 0.139E-16 0.159E-01   0.169E-06 0.996E-07 0.183E-03
   -.171E-03 -.814E-04 -.105E+01   -.600E-03 -.362E-03 0.107E+01   -.139E-16 0.254E-21 -.159E-01   -.169E-06 -.996E-07 -.183E-03
   -.351E-04 -.119E-04 0.189E+03   -.146E-03 -.808E-04 -.188E+03   -.405E-17 -.689E-17 -.283E+01   0.717E-08 0.300E-08 0.447E-01
   0.351E-04 0.119E-04 -.189E+03   0.146E-03 0.808E-04 0.188E+03   0.578E-17 0.342E-17 0.283E+01   -.717E-08 -.300E-08 -.447E-01
   -.260E+02 0.192E+00 -.412E+03   0.218E+02 -.188E+00 0.417E+03   0.327E+01 -.141E-01 -.536E+01   0.440E-02 -.258E-05 -.852E-01
   0.132E+02 0.224E+02 -.412E+03   -.111E+02 -.188E+02 0.417E+03   -.164E+01 -.282E+01 -.536E+01   -.220E-02 -.381E-02 -.852E-01
   0.128E+02 -.226E+02 -.412E+03   -.107E+02 0.190E+02 0.417E+03   -.162E+01 0.283E+01 -.536E+01   -.220E-02 0.381E-02 -.852E-01
   0.260E+02 -.192E+00 0.412E+03   -.218E+02 0.188E+00 -.417E+03   -.327E+01 0.141E-01 0.536E+01   -.440E-02 0.258E-05 0.852E-01
   -.132E+02 -.224E+02 0.412E+03   0.111E+02 0.188E+02 -.417E+03   0.164E+01 0.282E+01 0.536E+01   0.220E-02 0.381E-02 0.852E-01
   -.128E+02 0.226E+02 0.412E+03   0.107E+02 -.190E+02 -.417E+03   0.162E+01 -.283E+01 0.536E+01   0.220E-02 -.381E-02 0.852E-01
 -----------------------------------------------------------------------------------------------
   0.134E-09 0.669E-11 0.107E-09   0.142E-13 -.711E-14 0.284E-12   0.222E-15 0.000E+00 0.888E-15   0.456E-13 0.749E-13 0.132E-10


 POSITION                                       TOTAL-FORCE (eV/Angst)
 -----------------------------------------------------------------------------------
      3.38614      1.95499     11.00558         0.000000     -0.000000     -0.001042
      6.77228      3.90998     11.00853         0.000000     -0.000000      0.001042
      0.00000     -0.00000      9.86708         0.000000      0.000000     -1.452795
      0.00000     -0.00000     12.14703         0.000000     -0.000000      1.452795
      4.24329      0.00246     12.63064        -0.940777     -0.009163     -0.325593
      1.26663      2.18895     12.63064         0.462453      0.819318     -0.325593
      4.64851      3.67356     12.63064         0.478324     -0.810155     -0.325593
      5.91513      5.86250      9.38347         0.940777      0.009163      0.325593
      8.89179      3.67602      9.38347        -0.462453     -0.819318      0.325593
      5.50991      2.19140      9.38347        -0.478324      0.810155      0.325593
 -----------------------------------------------------------------------------------
    total drift:                                0.000000      0.000000      0.000000


--------------------------------------------------------------------------------------------------------



  FREE ENERGIE OF THE ION-ELECTRON SYSTEM (eV)
  ---------------------------------------------------
  free  energy   TOTEN  =       -35.26113371 eV

  energy  without entropy=      -35.26113371  energy(sigma->0) =      -35.26113371

 d Force =-0.5855937E-08[-0.902E-08,-0.270E-08]  d Energy = 0.1772125E-02-0.177E-02
 d Force =-0.9270697E-05[-0.927E-05,-0.927E-05]  d Ewald  = 0.1101690E+03-0.110E+03


--------------------------------------------------------------------------------------------------------


    POTLOK:  cpu time   51.2320: real time   51.4927


--------------------------------------------------------------------------------------------------------




--------------------------------------------------------------------------------------------------------


  
 reached required accuracy - stopping structural energy minimisation
     LOOP+:  cpu time  606.2160: real time  608.5824
    4ORBIT:  cpu time    0.0000: real time    0.0000



 total charge     

# of ion       s       p       d       tot
------------------------------------------
    1        0.350   0.374   7.378   8.102
    2        0.350   0.374   7.378   8.102
    3        1.165   1.257   0.088   2.510
    4        1.165   1.257   0.088   2.510
    5        1.398   1.918   0.043   3.359
    6        1.390   1.938   0.043   3.372
    7        1.396   1.922   0.043   3.361
    8        1.398   1.918   0.043   3.359
    9        1.390   1.938   0.043   3.372
   10        1.396   1.922   0.043   3.361
--------------------------------------------------
tot         11.399  14.818  15.191  41.409



 magnetization (x)

# of ion       s       p       d       tot
------------------------------------------
    1        0.000   0.000   0.000   0.000
    2        0.000   0.000   0.000   0.000
    3       -0.000   0.000   0.000   0.000
    4       -0.000   0.000   0.000   0.000
    5       -0.000  -0.000  -0.000  -0.000
    6       -0.000  -0.000  -0.000  -0.000
    7       -0.000  -0.000  -0.000  -0.000
    8       -0.000  -0.000  -0.000  -0.000
    9       -0.000  -0.000  -0.000  -0.000
   10       -0.000  -0.000  -0.000  -0.000
--------------------------------------------------
tot         -0.000  -0.000   0.000   0.000

 BZINTS: Fermi energy: -1.873443; 62.000000 electrons
         Band energy:-379.251497;  BLOECHL correction:  0.000000

 total amount of memory used by VASP MPI-rank0   130255. kBytes
=======================================================================

   base      :      30000. kBytes
   nonlr-proj:       9945. kBytes
   fftplans  :      11247. kBytes
   grid      :      66142. kBytes
   one-center:        311. kBytes
   wavefun   :      12610. kBytes

  
  
 General timing and accounting informations for this job:
 ========================================================
  
                  Total CPU time used (sec):     6710.480
                            User time (sec):     6544.740
                          System time (sec):      165.740
                         Elapsed time (sec):     6749.133
  
                   Maximum memory used (kb):      381588.
                   Average memory used (kb):           0.
  
                          Minor page faults:      5798004
                          Major page faults:            7
                 Voluntary context switches:         1079
