 vasp.5.4.4.18Apr17-6-g9f103f2a35 (build May  1 2020 15:48:39) complex           
 executed on             LinuxGNU date 2020.06.16  21:20:43
 running on   16 total cores
 distrk:  each k-point on   16 cores,    1 groups
 distr:  one band on NCORES_PER_BAND=   1 cores,   16 groups


--------------------------------------------------------------------------------------------------------


 INCAR:
 POTCAR:   PAW_PBE Ni 06Sep2000                   
 POTCAR:   PAW_PBE Si 05Jan2001                   
 POTCAR:   PAW_PBE Te 08Apr2002                   

 ----------------------------------------------------------------------------- 
|                                                                             |
|           W    W    AA    RRRRR   N    N  II  N    N   GGGG   !!!           |
|           W    W   A  A   R    R  NN   N  II  NN   N  G    G  !!!           |
|           W    W  A    A  R    R  N N  N  II  N N  N  G       !!!           |
|           W WW W  AAAAAA  RRRRR   N  N N  II  N  N N  G  GGG   !            |
|           WW  WW  A    A  R   R   N   NN  II  N   NN  G    G                |
|           W    W  A    A  R    R  N    N  II  N    N   GGGG   !!!           |
|                                                                             |
|      For optimal performance we recommend to set                            |
|        NCORE= 4 - approx SQRT( number of cores)                             |
|      NCORE specifies how many cores store one orbital (NPAR=cpu/NCORE).     |
|      This setting can  greatly improve the performance of VASP for DFT.     |
|      The default,   NCORE=1            might be grossly inefficient         |
|      on modern multi-core architectures or massively parallel machines.     |
|      Do your own testing !!!!                                               |
|      Unfortunately you need to use the default for GW and RPA calculations. |
|      (for HF NCORE is supported but not extensively tested yet)             |
|                                                                             |
 ----------------------------------------------------------------------------- 


 ----------------------------------------------------------------------------- 
|                                                                             |
|  ADVICE TO THIS USER RUNNING 'VASP/VAMP'   (HEAR YOUR MASTER'S VOICE ...):  |
|                                                                             |
|      You have switched on vdW-DFT.                                          |
|      This routine was written and supplied by Jiri Klimes.                  |
|      We recommed that you carefully read and cite the following             |
|      publication                                                            |
|      J. Klimes, D.R. Bowler, A. Michelides                                  |
|        J. Phys.: Cond Matt. 22 022201 (2010)                                |
|      J. Klimes, D.R. Bowler, A. Michelides                                  |
|        Phys. Rev. B. 83, 195131 (2011)                                      |
|      and references therein.                                                |
|                                                                             |
 ----------------------------------------------------------------------------- 

 POTCAR:   PAW_PBE Ni 06Sep2000                   
   VRHFIN =Ni:                                                                  
   LEXCH  = PE                                                                  
   EATOM  =  1077.9025 eV,   79.2236 Ry                                         
                                                                                
   TITEL  = PAW_PBE Ni 06Sep2000                                                
   LULTRA =        F    use ultrasoft PP ?                                      
   IUNSCR =        1    unscreen: 0-lin 1-nonlin 2-no                           
   RPACOR =    2.000    partial core radius                                     
   POMASS =   58.690; ZVAL   =   10.000    mass and valenz                      
   RCORE  =    2.300    outmost cutoff radius                                   
   RWIGS  =    2.430; RWIGS  =    1.286    wigner-seitz radius (au A)           
   ENMAX  =  269.533; ENMIN  =  202.150 eV                                      
   RCLOC  =    1.681    cutoff for local pot                                    
   LCOR   =        T    correct aug charges                                     
   LPAW   =        T    paw PP                                                  
   EAUG   =  544.565                                                            
   DEXC   =    -.009                                                            
   RMAX   =    2.808    core radius for proj-oper                               
   RAUG   =    1.300    factor for augmentation sphere                          
   RDEP   =    2.390    radius for radial grids                                 
   QCUT   =   -4.451; QGAM   =    8.902    optimization parameters              
                                                                                
   Description                                                                  
     l     E      TYP  RCUT    TYP  RCUT                                        
     2   .000     23  2.300                                                     
     2   .000     23  2.300                                                     
     0   .000     23  2.300                                                     
     0   .000     23  2.300                                                     
     1  -.200     23  2.300                                                     
     1   .000     23  2.300                                                     
     3   .000      7   .000                                                     
  local pseudopotential read in
  partial core-charges read in
  atomic valenz-charges read in
  non local Contribution for L=           2  read in
    real space projection operators read in
  non local Contribution for L=           2  read in
    real space projection operators read in
  non local Contribution for L=           0  read in
    real space projection operators read in
  non local Contribution for L=           0  read in
    real space projection operators read in
  non local Contribution for L=           1  read in
    real space projection operators read in
  non local Contribution for L=           1  read in
    real space projection operators read in
    PAW grid and wavefunctions read in

   number of l-projection  operators is LMAX  =           6
   number of lm-projection operators is LMMAX =          18

 POTCAR:   PAW_PBE Si 05Jan2001                   
   VRHFIN =Si: s2p2                                                             
   LEXCH  = PE                                                                  
   EATOM  =   103.0669 eV,    7.5752 Ry                                         
                                                                                
   TITEL  = PAW_PBE Si 05Jan2001                                                
   LULTRA =        F    use ultrasoft PP ?                                      
   IUNSCR =        1    unscreen: 0-lin 1-nonlin 2-no                           
   RPACOR =    1.500    partial core radius                                     
   POMASS =   28.085; ZVAL   =    4.000    mass and valenz                      
   RCORE  =    1.900    outmost cutoff radius                                   
   RWIGS  =    2.480; RWIGS  =    1.312    wigner-seitz radius (au A)           
   ENMAX  =  245.345; ENMIN  =  184.009 eV                                      
   ICORE  =        2    local potential                                         
   LCOR   =        T    correct aug charges                                     
   LPAW   =        T    paw PP                                                  
   EAUG   =  322.069                                                            
   DEXC   =    -.007                                                            
   RMAX   =    2.944    core radius for proj-oper                               
   RAUG   =    1.300    factor for augmentation sphere                          
   RDEP   =    1.993    radius for radial grids                                 
   QCUT   =   -4.246; QGAM   =    8.493    optimization parameters              
                                                                                
   Description                                                                  
     l     E      TYP  RCUT    TYP  RCUT                                        
     0   .000     23  1.900                                                     
     0   .000     23  1.900                                                     
     1   .000     23  1.900                                                     
     1   .000     23  1.900                                                     
     2   .000      7  1.900                                                     
  local pseudopotential read in
  partial core-charges read in
  atomic valenz-charges read in
  non local Contribution for L=           0  read in
    real space projection operators read in
  non local Contribution for L=           0  read in
    real space projection operators read in
  non local Contribution for L=           1  read in
    real space projection operators read in
  non local Contribution for L=           1  read in
    real space projection operators read in
    PAW grid and wavefunctions read in

   number of l-projection  operators is LMAX  =           4
   number of lm-projection operators is LMMAX =           8

 POTCAR:   PAW_PBE Te 08Apr2002                   
   VRHFIN =Te: s2p4                                                             
   LEXCH  = PE                                                                  
   EATOM  =   223.2721 eV,   16.4100 Ry                                         
                                                                                
   TITEL  = PAW_PBE Te 08Apr2002                                                
   LULTRA =        F    use ultrasoft PP ?                                      
   IUNSCR =        1    unscreen: 0-lin 1-nonlin 2-no                           
   RPACOR =    2.200    partial core radius                                     
   POMASS =  127.600; ZVAL   =    6.000    mass and valenz                      
   RCORE  =    2.300    outmost cutoff radius                                   
   RWIGS  =    2.900; RWIGS  =    1.535    wigner-seitz radius (au A)           
   ENMAX  =  174.982; ENMIN  =  131.236 eV                                      
   ICORE  =        3    local potential                                         
   LCOR   =        T    correct aug charges                                     
   LPAW   =        T    paw PP                                                  
   EAUG   =  368.792                                                            
   DEXC   =    -.169                                                            
   RMAX   =    3.486    core radius for proj-oper                               
   RAUG   =    1.300    factor for augmentation sphere                          
   RDEP   =    2.397    radius for radial grids                                 
   QCUT   =   -3.586; QGAM   =    7.172    optimization parameters              
                                                                                
   Description                                                                  
     l     E      TYP  RCUT    TYP  RCUT                                        
     0   .000     23  2.300                                                     
     0   .000     23  2.300                                                     
     1   .000     23  2.300                                                     
     1   .000     23  2.300                                                     
     2   .000     23  2.300                                                     
     3  -.100     23  2.300                                                     
  local pseudopotential read in
  partial core-charges read in
  atomic valenz-charges read in
  non local Contribution for L=           0  read in
    real space projection operators read in
  non local Contribution for L=           0  read in
    real space projection operators read in
  non local Contribution for L=           1  read in
    real space projection operators read in
  non local Contribution for L=           1  read in
    real space projection operators read in
  non local Contribution for L=           2  read in
    real space projection operators read in
    PAW grid and wavefunctions read in

   number of l-projection  operators is LMAX  =           5
   number of lm-projection operators is LMMAX =          13

 Optimization of the real space projectors (new method)

 maximal supplied QI-value         = 16.25
 optimisation between [QCUT,QGAM] = [ 11.54, 23.24] = [ 37.28,151.24] Ry 
 Optimized for a Real-space Cutoff    1.49 Angstroem

   l    n(q)    QCUT    max X(q) W(low)/X(q) W(high)/X(q)  e(spline) 
   2      9    11.539     4.811    0.20E-04    0.14E-04    0.45E-07
   2      9    11.539    15.146    0.24E-03    0.12E-03    0.20E-06
   0     10    11.539    14.357    0.18E-04    0.12E-05    0.14E-07
   0     10    11.539    43.282    0.39E-04    0.17E-04    0.23E-06
   1     10    11.539     5.514    0.99E-05    0.13E-04    0.19E-07
   1     10    11.539     7.697    0.38E-04    0.79E-04    0.91E-07
 Optimization of the real space projectors (new method)

 maximal supplied QI-value         = 19.84
 optimisation between [QCUT,QGAM] = [ 11.51, 23.22] = [ 37.09,150.92] Ry 
 Optimized for a Real-space Cutoff    1.21 Angstroem

   l    n(q)    QCUT    max X(q) W(low)/X(q) W(high)/X(q)  e(spline) 
   0      8    11.508     8.708    0.18E-04    0.44E-05    0.47E-08
   0      8    11.508   106.241    0.70E-04    0.15E-03    0.51E-07
   1      8    11.508     5.901    0.63E-05    0.23E-04    0.21E-07
   1      8    11.508    73.241    0.15E-03    0.36E-04    0.79E-07
 Optimization of the real space projectors (new method)

 maximal supplied QI-value         = 16.25
 optimisation between [QCUT,QGAM] = [ 11.54, 23.24] = [ 37.28,151.24] Ry 
 Optimized for a Real-space Cutoff    1.36 Angstroem

   l    n(q)    QCUT    max X(q) W(low)/X(q) W(high)/X(q)  e(spline) 
   0      9    11.539     7.090    0.13E-04    0.25E-05    0.51E-08
   0      9    11.539   101.654    0.53E-04    0.69E-04    0.12E-06
   1      9    11.539     5.276    0.20E-04    0.98E-05    0.24E-07
   1      9    11.539    81.891    0.24E-03    0.13E-04    0.15E-06
   2      9    11.539     5.599    0.30E-04    0.97E-04    0.54E-07

 ----------------------------------------------------------------------------- 
|                                                                             |
|  ADVICE TO THIS USER RUNNING 'VASP/VAMP'   (HEAR YOUR MASTER'S VOICE ...):  |
|                                                                             |
|      You enforced a specific xc-type in the INCAR file,                     |
|      a different type was found on the POTCAR file                          |
|          I HOPE YOU KNOW, WHAT YOU ARE  DOING                               |
|                                                                             |
 ----------------------------------------------------------------------------- 

 PAW_PBE Ni 06Sep2000                   :
 energy of atom  1       EATOM=-1077.9025
 kinetic energy error for atom=    0.0030 (will be added to EATOM!!)
 PAW_PBE Si 05Jan2001                   :
 energy of atom  2       EATOM= -103.0669
 kinetic energy error for atom=    0.0005 (will be added to EATOM!!)
 PAW_PBE Te 08Apr2002                   :
 energy of atom  3       EATOM= -223.2721
 kinetic energy error for atom=    0.0007 (will be added to EATOM!!)


 POSCAR: Ni2 Si2 Te6                             
  positions in direct lattice
  velocities in cartesian coordinates
  No initial velocities read in
 exchange correlation table for  LEXCH =       42
   RHO(1)=    0.500       N(1)  =     2000
   RHO(2)=  100.500       N(2)  =     4000



--------------------------------------------------------------------------------------------------------


 ion  position               nearest neighbor table
   1  0.333  0.333  0.500-   6 2.78   5 2.78   7 2.78   8 2.78  10 2.78   9 2.78
   2  0.667  0.667  0.500-   9 2.78   8 2.78  10 2.78   5 2.78   7 2.78   6 2.78
   3  0.000  0.000  0.448-   4 2.43   8 2.63  10 2.63   9 2.63
   4  0.000  0.000  0.552-   3 2.43   5 2.63   7 2.63   6 2.63
   5  0.626  0.000  0.574-   4 2.63   1 2.78   2 2.78
   6  0.000  0.373  0.574-   4 2.63   1 2.78   2 2.78
   7  0.373  0.626  0.574-   4 2.63   1 2.78   2 2.78
   8  0.374  1.000  0.426-   3 2.63   2 2.78   1 2.78
   9  1.000  0.627  0.426-   3 2.63   2 2.78   1 2.78
  10  0.627  0.374  0.426-   3 2.63   2 2.78   1 2.78

  LATTYP: Found a hexagonal cell.
 ALAT       =     6.9077769333
 C/A-ratio  =     3.3939410937
  
  Lattice vectors:
  
 A1 = (   3.4538890000,  -5.9823100000,   0.0000000000)
 A2 = (  -6.9077770000,   0.0000000000,   0.0000000000)
 A3 = (   0.0000000000,   0.0000000000, -23.4445880000)


Analysis of symmetry for initial positions (statically):
=====================================================================
 Subroutine PRICEL returns:
 Original cell was already a primitive cell.
 

 Routine SETGRP: Setting up the symmetry group for a 
 hexagonal supercell.


 Subroutine GETGRP returns: Found  6 space group operations
 (whereof  6 operations were pure point group operations)
 out of a pool of 24 trial point group operations.


The static configuration has the point symmetry S_6 .


Analysis of symmetry for dynamics (positions and initial velocities):
=====================================================================
 Subroutine PRICEL returns:
 Original cell was already a primitive cell.
 

 Routine SETGRP: Setting up the symmetry group for a 
 hexagonal supercell.


 Subroutine GETGRP returns: Found  6 space group operations
 (whereof  6 operations were pure point group operations)
 out of a pool of 24 trial point group operations.


The dynamic configuration has the point symmetry S_6 .


Analysis of structural, dynamic, and magnetic symmetry:
=====================================================================
 Subroutine PRICEL returns:
 Original cell was already a primitive cell.
 

 Routine SETGRP: Setting up the symmetry group for a 
 hexagonal supercell.


 Subroutine GETGRP returns: Found  6 space group operations
 (whereof  6 operations were pure point group operations)
 out of a pool of 24 trial point group operations.


The magnetic configuration has the point symmetry S_6 .


 Subroutine INISYM returns: Found  6 space group operations
 (whereof  6 operations are pure point group operations),
 and found     1 'primitive' translations



 KPOINTS: Kpoints from vasprun.xml                

Automatic generation of k-mesh.
Space group operators:
 irot       det(A)        alpha          n_x          n_y          n_z        tau_x        tau_y        tau_z
    1     1.000000     0.000000     1.000000     0.000000     0.000000     0.000000     0.000000     0.000000
    2    -1.000000     0.000000     1.000000     0.000000     0.000000     0.000000     0.000000     0.000000
    3     1.000000   120.000000     0.000000     0.000000     1.000000     0.000000     0.000000     0.000000
    4    -1.000000   120.000000     0.000000     0.000000     1.000000     0.000000     0.000000     0.000000
    5     1.000000   120.000000     0.000000     0.000000    -1.000000     0.000000     0.000000     0.000000
    6    -1.000000   120.000000     0.000000     0.000000    -1.000000     0.000000     0.000000     0.000000
 
 Subroutine IBZKPT returns following result:
 ===========================================
 
 Found      5 irreducible k-points:
 
 Following reciprocal coordinates:
            Coordinates               Weight
  0.000000  0.000000  0.000000      1.000000
  0.200000  0.000000  0.000000      6.000000
  0.400000  0.000000  0.000000      6.000000
  0.400000  0.200000  0.000000      6.000000
 -0.400000  0.200000  0.000000      6.000000
 
 Following cartesian coordinates:
            Coordinates               Weight
  0.000000  0.000000  0.000000      1.000000
  0.028953 -0.016716  0.000000      6.000000
  0.057906 -0.033432  0.000000      6.000000
  0.057906  0.000000  0.000000      6.000000
 -0.057906  0.066864  0.000000      6.000000
 
 TETIRR: Found     15 inequivalent tetrahedra from      150


--------------------------------------------------------------------------------------------------------




 Dimension of arrays:
   k-points           NKPTS =      5   k-points in BZ     NKDIM =      5   number of bands    NBANDS=     48
   number of dos      NEDOS =    301   number of ions     NIONS =     10
   non local maximal  LDIM  =      6   non local SUM 2l+1 LMDIM =     18
   total plane-waves  NPLWV = 524880
   max r-space proj   IRMAX =   7543   max aug-charges    IRDMAX=  31706
   dimension x,y,z NGX =    54 NGY =   54 NGZ =  180
   dimension x,y,z NGXF=   108 NGYF=  108 NGZF=  360
   support grid    NGXF=   108 NGYF=  108 NGZF=  360
   ions per type =               2   2   6
   NGX,Y,Z   is equivalent  to a cutoff of  13.00, 13.00, 12.76 a.u.
   NGXF,Y,Z  is equivalent  to a cutoff of  25.99, 25.99, 25.53 a.u.

 SYSTEM =  unknown system                          
 POSCAR =  Ni2 Si2 Te6                             

 Startparameter for this run:
   NWRITE =      2    write-flag & timer
   PREC   = accura    normal or accurate (medium, high low for compatibility)
   ISTART =      0    job   : 0-new  1-cont  2-samecut
   ICHARG =      2    charge: 1-file 2-atom 10-const
   ISPIN  =      2    spin polarized calculation?
   LNONCOLLINEAR =      F non collinear calculations
   LSORBIT =      F    spin-orbit coupling
   INIWAV =      1    electr: 0-lowe 1-rand  2-diag
   LASPH  =      F    aspherical Exc in radial PAW
   METAGGA=      F    non-selfconsistent MetaGGA calc.

 Electronic Relaxation 1
   ENCUT  =  520.0 eV  38.22 Ry    6.18 a.u.  12.84 12.84 43.59*2*pi/ulx,y,z
   ENINI  =  520.0     initial cutoff
   ENAUG  =  544.6 eV  augmentation charge cutoff
   NELM   =    400;   NELMIN=  2; NELMDL=  0     # of ELM steps 
   EDIFF  = 0.1E-03   stopping-criterion for ELM
   LREAL  =      T    real-space projection
   NLSPLINE    = F    spline interpolate recip. space projectors
   LCOMPAT=      F    compatible to vasp.4.4
   GGA_COMPAT  = T    GGA compatible to vasp.4.4-vasp.4.6
   LMAXPAW     = -100 max onsite density
   LMAXMIX     =    2 max onsite mixed and CHGCAR
   VOSKOWN=      0    Vosko Wilk Nusair interpolation
   ROPT   =   -0.00025  -0.00025  -0.00025
 Ionic relaxation
   EDIFFG = 0.1E-02   stopping-criterion for IOM
   NSW    =     99    number of steps for IOM
   NBLOCK =      1;   KBLOCK =     99    inner block; outer block 
   IBRION =      2    ionic relax: 0-MD 1-quasi-New 2-CG
   NFREE  =      1    steps in history (QN), initial steepest desc. (CG)
   ISIF   =      3    stress and relaxation
   IWAVPR =     11    prediction:  0-non 1-charg 2-wave 3-comb
   ISYM   =      2    0-nonsym 1-usesym 2-fastsym
   LCORR  =      T    Harris-Foulkes like correction to forces

   POTIM  = 0.5000    time-step for ionic-motion
   TEIN   =    0.0    initial temperature
   TEBEG  =    0.0;   TEEND  =   0.0 temperature during run
   SMASS  =  -3.00    Nose mass-parameter (am)
   estimated Nose-frequenzy (Omega)   =  0.10E-29 period in steps =****** mass=  -0.109E-26a.u.
   SCALEE = 1.0000    scale energy and forces
   NPACO  =    256;   APACO  = 16.0  distance and # of slots for P.C.
   PSTRESS=    0.0 pullay stress

  Mass of Ions in am
   POMASS =  58.69 28.09127.60
  Ionic Valenz
   ZVAL   =  10.00  4.00  6.00
  Atomic Wigner-Seitz radii
   RWIGS  =  -1.00 -1.00 -1.00
  virtual crystal weights 
   VCA    =   1.00  1.00  1.00
   NELECT =      64.0000    total number of electrons
   NUPDOWN=      -1.0000    fix difference up-down

 DOS related values:
   EMIN   =  10.00;   EMAX   =-10.00  energy-range for DOS
   EFERMI =   0.00
   ISMEAR =    -5;   SIGMA  =   0.05  broadening in eV -4-tet -1-fermi 0-gaus

 Electronic relaxation 2 (details)
   IALGO  =     38    algorithm
   LDIAG  =      T    sub-space diagonalisation (order eigenvalues)
   LSUBROT=      F    optimize rotation matrix (better conditioning)
   TURBO    =      0    0=normal 1=particle mesh
   IRESTART =      0    0=no restart 2=restart with 2 vectors
   NREBOOT  =      0    no. of reboots
   NMIN     =      0    reboot dimension
   EREF     =   0.00    reference energy to select bands
   IMIX   =      4    mixing-type and parameters
     AMIX     =   0.40;   BMIX     =  1.00
     AMIX_MAG =   1.60;   BMIX_MAG =  1.00
     AMIN     =   0.01
     WC   =   100.;   INIMIX=   1;  MIXPRE=   1;  MAXMIX= -45

 Intra band minimization:
   WEIMIN = 0.0010     energy-eigenvalue tresh-hold
   EBREAK =  0.52E-06  absolut break condition
   DEPER  =   0.30     relativ break condition  

   TIME   =   0.40     timestep for ELM

  volume/ion in A,a.u.               =      96.88       653.80
  Fermi-wavevector in a.u.,A,eV,Ry     =   0.661787  1.250596  5.958835  0.437962
  Thomas-Fermi vector in A             =   1.734655

 Write flags
   LWAVE        =      F    write WAVECAR
   LDOWNSAMPLE  =      F    k-point downsampling of WAVECAR
   LCHARG       =      T    write CHGCAR
   LVTOT        =      F    write LOCPOT, total local potential
   LVHAR        =      F    write LOCPOT, Hartree potential only
   LELF         =      F    write electronic localiz. function (ELF)
   LORBIT       =     11    0 simple, 1 ext, 2 COOP (PROOUT), +10 PAW based schemes


 Dipole corrections
   LMONO  =      F    monopole corrections only (constant potential shift)
   LDIPOL =      F    correct potential (dipole corrections)
   IDIPOL =      0    1-x, 2-y, 3-z, 4-all directions 
   EPSILON=  1.0000000 bulk dielectric constant

 Exchange correlation treatment:
   GGA     =    BO    GGA type
   LEXCH   =    42    internal setting for exchange type
   VOSKOWN=      0    Vosko Wilk Nusair interpolation
   LHFCALC =     F    Hartree Fock is set to
   LHFONE  =     F    Hartree Fock one center treatment
   AEXX    =    0.0000 exact exchange contribution

 vdW DFT:
   LUSE_VDW   =     T    switch on vdW DFT
   Zab_VDW    =-.8491    correlation parameter
   PARAM1     =0.1833
   PARAM2     =0.2200
   PARAM3     =0.0000
   -- rVV10 --
   BPARAM     = 6.3000
   CPARAM     = 0.0093

 Linear response parameters
   LEPSILON=     F    determine dielectric tensor
   LRPA    =     F    only Hartree local field effects (RPA)
   LNABLA  =     F    use nabla operator in PAW spheres
   LVEL    =     F    velocity operator in full k-point grid
   LINTERFAST=   F  fast interpolation
   KINTER  =     0    interpolate to denser k-point grid
   CSHIFT  =0.1000    complex shift for real part using Kramers Kronig
   OMEGAMAX=  -1.0    maximum frequency
   DEG_THRESHOLD= 0.2000000E-02 threshold for treating states as degnerate
   RTIME   =   -0.100 relaxation time in fs
  (WPLASMAI=    0.000 imaginary part of plasma frequency in eV, 0.658/RTIME)
   DFIELD  = 0.0000000 0.0000000 0.0000000 field for delta impulse in time

 Orbital magnetization related:
   ORBITALMAG=     F  switch on orbital magnetization
   LCHIMAG   =     F  perturbation theory with respect to B field
   DQ        =  0.001000  dq finite difference perturbation B field
   LLRAUG    =     F  two centre corrections for induced B field



--------------------------------------------------------------------------------------------------------


 conjugate gradient relaxation of ions
 charge density and potential will be updated during run
 spin polarized calculation
 Variant of blocked Davidson
 Davidson routine will perform the subspace rotation
 perform sub-space diagonalisation
    after iterative eigenvector-optimisation
 modified Broyden-mixing scheme, WC =      100.0
 initial mixing is a Kerker type mixing with AMIX =  0.4000 and BMIX =      1.0000
 Hartree-type preconditioning will be used
 using additional bands           16
 real space projection scheme for non local part
 use partial core corrections
 calculate Harris-corrections to forces   (improved forces if not selfconsistent)
 use gradient corrections 
 use of overlap-Matrix (Vanderbilt PP)
 Fermi weights with tetrahedron method with Bloechl corrections


--------------------------------------------------------------------------------------------------------


  energy-cutoff  :      520.00
  volume of cell :      968.84
      direct lattice vectors                 reciprocal lattice vectors
     6.907777000 -0.000000000  0.000000000     0.144764372 -0.083579742  0.000000000
     3.453888000  5.982310000  0.000000000     0.000000000  0.167159509 -0.000000000
     0.000000000  0.000000000 23.444588000    -0.000000000  0.000000000  0.042653767

  length of vectors
     6.907777000  6.907776433 23.444588000     0.167159495  0.167159509  0.042653767



 k-points in units of 2pi/SCALE and weight: Kpoints from vasprun.xml                
   0.00000000  0.00000000  0.00000000       0.040
   0.02895287 -0.01671595  0.00000000       0.240
   0.05790575 -0.03343190  0.00000000       0.240
   0.05790575  0.00000000  0.00000000       0.240
  -0.05790575  0.06686380  0.00000000       0.240

 k-points in reciprocal lattice and weights: Kpoints from vasprun.xml                
   0.00000000  0.00000000  0.00000000       0.040
   0.20000000  0.00000000  0.00000000       0.240
   0.40000000  0.00000000  0.00000000       0.240
   0.40000000  0.20000000  0.00000000       0.240
  -0.40000000  0.20000000  0.00000000       0.240

 position of ions in fractional coordinates (direct lattice) 
   0.33333300  0.33333300  0.49992500
   0.66666700  0.66666700  0.50007500
   0.00000000  0.00000000  0.44821600
   0.00000000  0.00000000  0.55178400
   0.62635700  0.00042000  0.57375200
   0.00042000  0.37322400  0.57375200
   0.37322400  0.62635700  0.57375200
   0.37364300  0.99958000  0.42624800
   0.99958000  0.62677600  0.42624800
   0.62677600  0.37364300  0.42624800

 position of ions in cartesian coordinates  (Angst):
   3.45388488  1.99410134 11.72053566
   6.90778012  3.98820866 11.72405234
   0.00000000  0.00000000 10.50823946
   0.00000000  0.00000000 12.93634854
   4.32818511  0.00251257 13.45137925
   1.29197516  2.23274167 13.45137925
   4.74151509  3.74706174 13.45137925
   6.03347989  5.97979743  9.99320875
   9.06968984  3.74956833  9.99320875
   5.62014991  2.23524826  9.99320875



--------------------------------------------------------------------------------------------------------


 k-point  1 :   0.0000 0.0000 0.0000  plane waves:   26073
 k-point  2 :   0.2000 0.0000 0.0000  plane waves:   26070
 k-point  3 :   0.4000 0.0000 0.0000  plane waves:   26086
 k-point  4 :   0.4000 0.2000 0.0000  plane waves:   26085
 k-point  5 :  -0.4000 0.2000 0.0000  plane waves:   26115

 maximum and minimum number of plane-waves per node :     26115    26070

 maximum number of plane-waves:     26115
 maximum index in each direction: 
   IXMAX=   13   IYMAX=   12   IZMAX=   43
   IXMIN=  -13   IYMIN=  -13   IZMIN=  -43


 serial   3D FFT for wavefunctions
 parallel 3D FFT for charge:
    minimum data exchange during FFTs selected (reduces bandwidth)


 total amount of memory used by VASP MPI-rank0   128257. kBytes
=======================================================================

   base      :      30000. kBytes
   nonlr-proj:       7947. kBytes
   fftplans  :      11247. kBytes
   grid      :      66142. kBytes
   one-center:        311. kBytes
   wavefun   :      12610. kBytes

     INWAV:  cpu time    0.0000: real time    0.0006
 Broyden mixing: mesh for mixing (old mesh)
   NGX = 25   NGY = 25   NGZ = 87
  (NGX  =108   NGY  =108   NGZ  =360)
  gives a total of  54375 points

 initial charge density was supplied:
 charge density of overlapping atoms calculated
 number of electron      64.0000000 magnetization       7.3200000
 keeping initial charge density in first step


--------------------------------------------------------------------------------------------------------


 Maximum index for non-local projection operator         7247
 Maximum index for augmentation-charges         2278 (set IRDMAX)


--------------------------------------------------------------------------------------------------------


 First call to EWALD:  gamma=   0.179
 Maximum number of real-space cells 4x 4x 1
 Maximum number of reciprocal cells 2x 2x 6

    FEWALD:  cpu time    0.0000: real time    0.0015


--------------------------------------- Iteration      1(   1)  ---------------------------------------


vdW kernel read from vdw_kernel.bindat
  0.0000  0.2424  0.5071  0.7962  1.1119  1.4567  1.8333  2.2446  2.6937  3.1842
  3.7199  4.3049  4.9438  5.6415  6.4036  7.2358  8.1446  9.1372 10.2212 11.4050
 12.6979 14.1099 15.6519 17.3360 19.1751 21.1837 23.3773 25.7729 28.3892 31.2465
 34.3669 37.7748 41.4965 45.5611 50.0000

    POTLOK:  cpu time   53.1080: real time   53.2301
    SETDIJ:  cpu time    0.0480: real time    0.0490
     EDDAV:  cpu time   23.0440: real time   23.1131
 BZINTS: Fermi energy:  5.428141; 64.000000 electrons
         Band energy:   6.167680;  BLOECHL correction: -0.071531
       DOS:  cpu time    0.0080: real time    0.0069
    --------------------------------------------
      LOOP:  cpu time   76.2080: real time   76.3991

 eigenvalue-minimisations  :   960
 total energy-change (2. order) : 0.3807442E+03  (-0.1941931E+04)
 number of electron      64.0000000 magnetization       7.3200000
 augmentation part       64.0000000 magnetization       7.3200000

 Free energy of the ion-electron system (eV)
  ---------------------------------------------------
  alpha Z        PSCENC =        16.14724484
  Ewald energy   TEWEN  =      8065.03639907
  -Hartree energ DENC   =    -11434.73929691
  -exchange      EXHF   =         0.00000000
  -V(xc)+E(xc)   XCENC  =      -133.92085555
  PAW double counting   =      2435.74234062    -2291.04220450
  entropy T*S    EENTRO =         0.00000000
  eigenvalues    EBANDS =         6.16767952
  atomic energy  EATOM  =      3717.35284836
  Solvation  Ediel_sol  =         0.00000000
  ---------------------------------------------------
  free energy    TOTEN  =       380.74415544 eV

  energy without entropy =      380.74415544  energy(sigma->0) =      380.74415544


--------------------------------------------------------------------------------------------------------




--------------------------------------- Iteration      1(   2)  ---------------------------------------


     EDDAV:  cpu time   33.7160: real time   33.8121
 BZINTS: Fermi energy: -1.256937; 64.000000 electrons
         Band energy:-368.909675;  BLOECHL correction: -0.007607
       DOS:  cpu time    0.0040: real time    0.0048
    --------------------------------------------
      LOOP:  cpu time   33.7200: real time   33.8169

 eigenvalue-minimisations  :  1472
 total energy-change (2. order) :-0.3750774E+03  (-0.3602817E+03)
 number of electron      64.0000000 magnetization       7.3200000
 augmentation part       64.0000000 magnetization       7.3200000

 Free energy of the ion-electron system (eV)
  ---------------------------------------------------
  alpha Z        PSCENC =        16.14724484
  Ewald energy   TEWEN  =      8065.03639907
  -Hartree energ DENC   =    -11434.73929691
  -exchange      EXHF   =         0.00000000
  -V(xc)+E(xc)   XCENC  =      -133.92085555
  PAW double counting   =      2435.74234062    -2291.04220450
  entropy T*S    EENTRO =         0.00000000
  eigenvalues    EBANDS =      -368.90967536
  atomic energy  EATOM  =      3717.35284836
  Solvation  Ediel_sol  =         0.00000000
  ---------------------------------------------------
  free energy    TOTEN  =         5.66680057 eV

  energy without entropy =        5.66680057  energy(sigma->0) =        5.66680057


--------------------------------------------------------------------------------------------------------




--------------------------------------- Iteration      1(   3)  ---------------------------------------


     EDDAV:  cpu time   29.6280: real time   29.9191
 BZINTS: Fermi energy: -1.910579; 64.000000 electrons
         Band energy:-407.968456;  BLOECHL correction: -0.009398
       DOS:  cpu time    0.0040: real time    0.0047
    --------------------------------------------
      LOOP:  cpu time   29.6320: real time   29.9238

 eigenvalue-minimisations  :  1280
 total energy-change (2. order) :-0.3905878E+02  (-0.3857868E+02)
 number of electron      64.0000000 magnetization       7.3200000
 augmentation part       64.0000000 magnetization       7.3200000

 Free energy of the ion-electron system (eV)
  ---------------------------------------------------
  alpha Z        PSCENC =        16.14724484
  Ewald energy   TEWEN  =      8065.03639907
  -Hartree energ DENC   =    -11434.73929691
  -exchange      EXHF   =         0.00000000
  -V(xc)+E(xc)   XCENC  =      -133.92085555
  PAW double counting   =      2435.74234062    -2291.04220450
  entropy T*S    EENTRO =         0.00000000
  eigenvalues    EBANDS =      -407.96845593
  atomic energy  EATOM  =      3717.35284836
  Solvation  Ediel_sol  =         0.00000000
  ---------------------------------------------------
  free energy    TOTEN  =       -33.39198001 eV

  energy without entropy =      -33.39198001  energy(sigma->0) =      -33.39198001


--------------------------------------------------------------------------------------------------------




--------------------------------------- Iteration      1(   4)  ---------------------------------------


     EDDAV:  cpu time   30.0240: real time   30.3187
 BZINTS: Fermi energy: -1.916734; 64.000000 electrons
         Band energy:-409.474550;  BLOECHL correction: -0.010255
       DOS:  cpu time    0.0040: real time    0.0051
    --------------------------------------------
      LOOP:  cpu time   30.0280: real time   30.3238

 eigenvalue-minimisations  :  1312
 total energy-change (2. order) :-0.1506094E+01  (-0.1504354E+01)
 number of electron      64.0000000 magnetization       7.3200000
 augmentation part       64.0000000 magnetization       7.3200000

 Free energy of the ion-electron system (eV)
  ---------------------------------------------------
  alpha Z        PSCENC =        16.14724484
  Ewald energy   TEWEN  =      8065.03639907
  -Hartree energ DENC   =    -11434.73929691
  -exchange      EXHF   =         0.00000000
  -V(xc)+E(xc)   XCENC  =      -133.92085555
  PAW double counting   =      2435.74234062    -2291.04220450
  entropy T*S    EENTRO =         0.00000000
  eigenvalues    EBANDS =      -409.47454967
  atomic energy  EATOM  =      3717.35284836
  Solvation  Ediel_sol  =         0.00000000
  ---------------------------------------------------
  free energy    TOTEN  =       -34.89807374 eV

  energy without entropy =      -34.89807374  energy(sigma->0) =      -34.89807374


--------------------------------------------------------------------------------------------------------




--------------------------------------- Iteration      1(   5)  ---------------------------------------


     EDDAV:  cpu time   32.5480: real time   32.8124
 BZINTS: Fermi energy: -1.916759; 64.000000 electrons
         Band energy:-409.503392;  BLOECHL correction: -0.010259
       DOS:  cpu time    0.0040: real time    0.0059
    CHARGE:  cpu time    1.9920: real time    2.1718
    MIXING:  cpu time    0.0360: real time    0.0404
    --------------------------------------------
      LOOP:  cpu time   34.5800: real time   35.0305

 eigenvalue-minimisations  :  1424
 total energy-change (2. order) :-0.2884258E-01  (-0.2883528E-01)
 number of electron      63.9999998 magnetization       6.7495963
 augmentation part        2.9659140 magnetization       5.9575022

 Broyden mixing:
  rms(total) = 0.15963E+01    rms(broyden)= 0.15953E+01
  rms(prec ) = 0.17040E+01
  weight for this iteration     100.00

 Free energy of the ion-electron system (eV)
  ---------------------------------------------------
  alpha Z        PSCENC =        16.14724484
  Ewald energy   TEWEN  =      8065.03639907
  -Hartree energ DENC   =    -11434.73929691
  -exchange      EXHF   =         0.00000000
  -V(xc)+E(xc)   XCENC  =      -133.92085555
  PAW double counting   =      2435.74234062    -2291.04220450
  entropy T*S    EENTRO =         0.00000000
  eigenvalues    EBANDS =      -409.50339225
  atomic energy  EATOM  =      3717.35284836
  Solvation  Ediel_sol  =         0.00000000
  ---------------------------------------------------
  free energy    TOTEN  =       -34.92691633 eV

  energy without entropy =      -34.92691633  energy(sigma->0) =      -34.92691633


--------------------------------------------------------------------------------------------------------




--------------------------------------- Iteration      1(   6)  ---------------------------------------


    POTLOK:  cpu time   52.2920: real time   52.5517
    SETDIJ:  cpu time    0.0480: real time    0.0490
     EDDAV:  cpu time   26.6040: real time   26.7268
 BZINTS: Fermi energy: -2.958512; 64.000000 electrons
         Band energy:-522.701903;  BLOECHL correction: -0.059681
       DOS:  cpu time    0.0040: real time    0.0077
    CHARGE:  cpu time    2.1600: real time    2.1597
    MIXING:  cpu time    0.0400: real time    0.0424
    --------------------------------------------
      LOOP:  cpu time   81.1480: real time   81.5373

 eigenvalue-minimisations  :  1136
 total energy-change (2. order) :-0.1176624E+02  (-0.7875707E+01)
 number of electron      63.9999999 magnetization       6.5360491
 augmentation part        7.8547958 magnetization       5.0988015

 Broyden mixing:
  rms(total) = 0.24975E+01    rms(broyden)= 0.24972E+01
  rms(prec ) = 0.26936E+01
  weight for this iteration     100.00

 eigenvalues of (default mixing * dielectric matrix)
  average eigenvalue GAMMA=   0.3483
  0.3483

 Free energy of the ion-electron system (eV)
  ---------------------------------------------------
  alpha Z        PSCENC =        16.14724484
  Ewald energy   TEWEN  =      8065.03639907
  -Hartree energ DENC   =    -11345.77252526
  -exchange      EXHF   =         0.00000000
  -V(xc)+E(xc)   XCENC  =      -136.92528735
  PAW double counting   =      2318.54993729    -2158.37986855
  entropy T*S    EENTRO =         0.00000000
  eigenvalues    EBANDS =      -522.70190259
  atomic energy  EATOM  =      3717.35284836
  Solvation  Ediel_sol  =         0.00000000
  ---------------------------------------------------
  free energy    TOTEN  =       -46.69315418 eV

  energy without entropy =      -46.69315418  energy(sigma->0) =      -46.69315418


--------------------------------------------------------------------------------------------------------




--------------------------------------- Iteration      1(   7)  ---------------------------------------


    POTLOK:  cpu time   52.0400: real time   52.4489
    SETDIJ:  cpu time    0.0440: real time    0.0474
     EDDAV:  cpu time   25.0320: real time   25.3756
 BZINTS: Fermi energy: -2.558488; 64.000000 electrons
         Band energy:-435.551893;  BLOECHL correction: -0.022319
       DOS:  cpu time    0.0040: real time    0.0068
    CHARGE:  cpu time    2.1640: real time    2.1649
    MIXING:  cpu time    0.0640: real time    0.0673
    --------------------------------------------
      LOOP:  cpu time   79.3480: real time   80.1109

 eigenvalue-minimisations  :  1072
 total energy-change (2. order) : 0.1351518E+02  (-0.2425351E+01)
 number of electron      63.9999999 magnetization       6.0758693
 augmentation part        5.7986087 magnetization       4.5625272

 Broyden mixing:
  rms(total) = 0.69278E+00    rms(broyden)= 0.69268E+00
  rms(prec ) = 0.76059E+00
  weight for this iteration     100.00

 eigenvalues of (default mixing * dielectric matrix)
  average eigenvalue GAMMA=   0.6282
  0.7149  0.5416

 Free energy of the ion-electron system (eV)
  ---------------------------------------------------
  alpha Z        PSCENC =        16.14724484
  Ewald energy   TEWEN  =      8065.03639907
  -Hartree energ DENC   =    -11406.57933209
  -exchange      EXHF   =         0.00000000
  -V(xc)+E(xc)   XCENC  =      -135.01262809
  PAW double counting   =      2426.82441630    -2281.39502982
  entropy T*S    EENTRO =         0.00000000
  eigenvalues    EBANDS =      -435.55189337
  atomic energy  EATOM  =      3717.35284836
  Solvation  Ediel_sol  =         0.00000000
  ---------------------------------------------------
  free energy    TOTEN  =       -33.17797481 eV

  energy without entropy =      -33.17797481  energy(sigma->0) =      -33.17797481


--------------------------------------------------------------------------------------------------------




--------------------------------------- Iteration      1(   8)  ---------------------------------------


    POTLOK:  cpu time   51.6680: real time   51.9234
    SETDIJ:  cpu time    0.0480: real time    0.0480
     EDDAV:  cpu time   33.9760: real time   34.1720
 BZINTS: Fermi energy: -1.963840; 64.004831 electrons
         Band energy:-406.728100;  BLOECHL correction: -0.006015
       DOS:  cpu time    0.0080: real time    0.0105
    CHARGE:  cpu time    2.1240: real time    2.1261
    MIXING:  cpu time    0.0360: real time    0.0410
    --------------------------------------------
      LOOP:  cpu time   87.8600: real time   88.3209

 eigenvalue-minimisations  :  1520
 total energy-change (2. order) :-0.3167328E+00  (-0.7226184E+00)
 number of electron      64.0048313 magnetization       5.5310705
 augmentation part        3.7983162 magnetization       4.4305774

 Broyden mixing:
  rms(total) = 0.88017E+00    rms(broyden)= 0.87972E+00
  rms(prec ) = 0.94454E+00
  weight for this iteration     100.00

 eigenvalues of (default mixing * dielectric matrix)
  average eigenvalue GAMMA=   0.7311
  1.1553  0.5190  0.5190

 Free energy of the ion-electron system (eV)
  ---------------------------------------------------
  alpha Z        PSCENC =        16.14724484
  Ewald energy   TEWEN  =      8065.03639907
  -Hartree energ DENC   =    -11433.19726668
  -exchange      EXHF   =         0.00000000
  -V(xc)+E(xc)   XCENC  =      -134.27046394
  PAW double counting   =      2488.65019503    -2346.48556474
  entropy T*S    EENTRO =         0.00000000
  eigenvalues    EBANDS =      -406.72809958
  atomic energy  EATOM  =      3717.35284836
  Solvation  Ediel_sol  =         0.00000000
  ---------------------------------------------------
  free energy    TOTEN  =       -33.49470763 eV

  energy without entropy =      -33.49470763  energy(sigma->0) =      -33.49470763


--------------------------------------------------------------------------------------------------------




--------------------------------------- Iteration      1(   9)  ---------------------------------------


    POTLOK:  cpu time   51.2880: real time   51.3247
    SETDIJ:  cpu time    0.0480: real time    0.0492
     EDDAV:  cpu time   27.6880: real time   27.8185
 BZINTS: Fermi energy: -2.490444; 64.000000 electrons
         Band energy:-427.875224;  BLOECHL correction: -0.015323
       DOS:  cpu time    0.0040: real time    0.0081
    CHARGE:  cpu time    2.1440: real time    2.1459
    MIXING:  cpu time    0.0440: real time    0.0508
    --------------------------------------------
      LOOP:  cpu time   81.2160: real time   81.3971

 eigenvalue-minimisations  :  1216
 total energy-change (2. order) : 0.1659017E+00  (-0.4500637E+00)
 number of electron      63.9999999 magnetization       4.7066102
 augmentation part        5.5184317 magnetization       3.3052818

 Broyden mixing:
  rms(total) = 0.52841E+00    rms(broyden)= 0.52809E+00
  rms(prec ) = 0.57278E+00
  weight for this iteration     100.00

 eigenvalues of (default mixing * dielectric matrix)
  average eigenvalue GAMMA=   1.0105
  2.2449  0.8683  0.4644  0.4644

 Free energy of the ion-electron system (eV)
  ---------------------------------------------------
  alpha Z        PSCENC =        16.14724484
  Ewald energy   TEWEN  =      8065.03639907
  -Hartree energ DENC   =    -11412.90543954
  -exchange      EXHF   =         0.00000000
  -V(xc)+E(xc)   XCENC  =      -134.81884658
  PAW double counting   =      2466.04136353    -2322.30715171
  entropy T*S    EENTRO =         0.00000000
  eigenvalues    EBANDS =      -427.87522394
  atomic energy  EATOM  =      3717.35284836
  Solvation  Ediel_sol  =         0.00000000
  ---------------------------------------------------
  free energy    TOTEN  =       -33.32880597 eV

  energy without entropy =      -33.32880597  energy(sigma->0) =      -33.32880597


--------------------------------------------------------------------------------------------------------




--------------------------------------- Iteration      1(  10)  ---------------------------------------


    POTLOK:  cpu time   50.8840: real time   51.0606
    SETDIJ:  cpu time    0.0480: real time    0.0470
     EDDAV:  cpu time   27.7680: real time   27.9000
 BZINTS: Fermi energy: -2.241256; 64.000000 electrons
         Band energy:-414.552237;  BLOECHL correction: -0.006635
       DOS:  cpu time    0.0040: real time    0.0075
    CHARGE:  cpu time    2.1360: real time    2.1412
    MIXING:  cpu time    0.0440: real time    0.0425
    --------------------------------------------
      LOOP:  cpu time   80.8840: real time   81.1988

 eigenvalue-minimisations  :  1216
 total energy-change (2. order) : 0.1558967E+00  (-0.6417952E-01)
 number of electron      63.9999999 magnetization       3.8109737
 augmentation part        4.8687162 magnetization       2.5921645

 Broyden mixing:
  rms(total) = 0.15666E+00    rms(broyden)= 0.15649E+00
  rms(prec ) = 0.15688E+00
  weight for this iteration     100.00

 eigenvalues of (default mixing * dielectric matrix)
  average eigenvalue GAMMA=   1.1493
  2.8139  1.3149  0.4671  0.4671  0.6838

 Free energy of the ion-electron system (eV)
  ---------------------------------------------------
  alpha Z        PSCENC =        16.14724484
  Ewald energy   TEWEN  =      8065.03639907
  -Hartree energ DENC   =    -11425.36733729
  -exchange      EXHF   =         0.00000000
  -V(xc)+E(xc)   XCENC  =      -134.47775834
  PAW double counting   =      2497.66458101    -2354.97664980
  entropy T*S    EENTRO =         0.00000000
  eigenvalues    EBANDS =      -414.55223711
  atomic energy  EATOM  =      3717.35284836
  Solvation  Ediel_sol  =         0.00000000
  ---------------------------------------------------
  free energy    TOTEN  =       -33.17290926 eV

  energy without entropy =      -33.17290926  energy(sigma->0) =      -33.17290926


--------------------------------------------------------------------------------------------------------




--------------------------------------- Iteration      1(  11)  ---------------------------------------


    POTLOK:  cpu time   50.9040: real time   51.0848
    SETDIJ:  cpu time    0.0760: real time    0.0785
     EDDAV:  cpu time   30.1720: real time   30.2227
 BZINTS: Fermi energy: -2.196752; 64.000000 electrons
         Band energy:-411.378474;  BLOECHL correction: -0.006739
       DOS:  cpu time    0.0040: real time    0.0075
    CHARGE:  cpu time    2.1640: real time    2.1656
    MIXING:  cpu time    0.0400: real time    0.0432
    --------------------------------------------
      LOOP:  cpu time   83.3600: real time   83.6023

 eigenvalue-minimisations  :  1328
 total energy-change (2. order) :-0.1522619E+00  (-0.1509417E-01)
 number of electron      63.9999999 magnetization       2.9375590
 augmentation part        4.8130486 magnetization       1.8063932

 Broyden mixing:
  rms(total) = 0.10978E+00    rms(broyden)= 0.10975E+00
  rms(prec ) = 0.11162E+00
  weight for this iteration     100.00

 eigenvalues of (default mixing * dielectric matrix)
  average eigenvalue GAMMA=   1.3807
  3.9010  1.8903  0.9251  0.4666  0.4666  0.6343

 Free energy of the ion-electron system (eV)
  ---------------------------------------------------
  alpha Z        PSCENC =        16.14724484
  Ewald energy   TEWEN  =      8065.03639907
  -Hartree energ DENC   =    -11429.02994008
  -exchange      EXHF   =         0.00000000
  -V(xc)+E(xc)   XCENC  =      -134.40134377
  PAW double counting   =      2499.69487175    -2356.74677737
  entropy T*S    EENTRO =         0.00000000
  eigenvalues    EBANDS =      -411.37847394
  atomic energy  EATOM  =      3717.35284836
  Solvation  Ediel_sol  =         0.00000000
  ---------------------------------------------------
  free energy    TOTEN  =       -33.32517114 eV

  energy without entropy =      -33.32517114  energy(sigma->0) =      -33.32517114


--------------------------------------------------------------------------------------------------------




--------------------------------------- Iteration      1(  12)  ---------------------------------------


    POTLOK:  cpu time   51.0320: real time   51.1195
    SETDIJ:  cpu time    0.0600: real time    0.0615
     EDDAV:  cpu time   25.8640: real time   25.9164
 BZINTS: Fermi energy: -2.139476; 64.000000 electrons
         Band energy:-408.375563;  BLOECHL correction: -0.006233
       DOS:  cpu time    0.0040: real time    0.0077
    CHARGE:  cpu time    2.1480: real time    2.1526
    MIXING:  cpu time    0.0480: real time    0.0460
    --------------------------------------------
      LOOP:  cpu time   79.1560: real time   79.3038

 eigenvalue-minimisations  :  1120
 total energy-change (2. order) :-0.9601714E-01  (-0.4422389E-02)
 number of electron      63.9999999 magnetization       2.1867023
 augmentation part        4.7178460 magnetization       1.1262021

 Broyden mixing:
  rms(total) = 0.12036E+00    rms(broyden)= 0.12034E+00
  rms(prec ) = 0.13007E+00
  weight for this iteration     100.00

 eigenvalues of (default mixing * dielectric matrix)
  average eigenvalue GAMMA=   1.7532
  6.2002  2.4165  1.2770  0.4676  0.4676  0.8047  0.6383

 Free energy of the ion-electron system (eV)
  ---------------------------------------------------
  alpha Z        PSCENC =        16.14724484
  Ewald energy   TEWEN  =      8065.03639907
  -Hartree energ DENC   =    -11432.40697997
  -exchange      EXHF   =         0.00000000
  -V(xc)+E(xc)   XCENC  =      -134.38011777
  PAW double counting   =      2496.33151218    -2353.12653163
  entropy T*S    EENTRO =         0.00000000
  eigenvalues    EBANDS =      -408.37556338
  atomic energy  EATOM  =      3717.35284836
  Solvation  Ediel_sol  =         0.00000000
  ---------------------------------------------------
  free energy    TOTEN  =       -33.42118829 eV

  energy without entropy =      -33.42118829  energy(sigma->0) =      -33.42118829


--------------------------------------------------------------------------------------------------------




--------------------------------------- Iteration      1(  13)  ---------------------------------------


    POTLOK:  cpu time   51.1320: real time   51.2654
    SETDIJ:  cpu time    0.0440: real time    0.0461
     EDDAV:  cpu time   24.9240: real time   25.1084
 BZINTS: Fermi energy: -2.161179; 64.000000 electrons
         Band energy:-409.437377;  BLOECHL correction: -0.014594
       DOS:  cpu time    0.0080: real time    0.0048
    CHARGE:  cpu time    2.1680: real time    2.1727
    MIXING:  cpu time    0.0440: real time    0.0472
    --------------------------------------------
      LOOP:  cpu time   78.3200: real time   78.6447

 eigenvalue-minimisations  :  1088
 total energy-change (2. order) :-0.6884945E-01  (-0.4381329E-02)
 number of electron      63.9999999 magnetization       1.9930498
 augmentation part        4.8853355 magnetization       0.9468831

 Broyden mixing:
  rms(total) = 0.46762E-01    rms(broyden)= 0.46711E-01
  rms(prec ) = 0.47593E-01
  weight for this iteration     100.00

 eigenvalues of (default mixing * dielectric matrix)
  average eigenvalue GAMMA=   1.9109
  7.9051  2.5532  1.6813  0.4677  0.4677  0.8734  0.7245  0.6142

 Free energy of the ion-electron system (eV)
  ---------------------------------------------------
  alpha Z        PSCENC =        16.14724484
  Ewald energy   TEWEN  =      8065.03639907
  -Hartree energ DENC   =    -11431.54586094
  -exchange      EXHF   =         0.00000000
  -V(xc)+E(xc)   XCENC  =      -134.52028150
  PAW double counting   =      2486.33367897    -2342.85668926
  entropy T*S    EENTRO =         0.00000000
  eigenvalues    EBANDS =      -409.43737728
  atomic energy  EATOM  =      3717.35284836
  Solvation  Ediel_sol  =         0.00000000
  ---------------------------------------------------
  free energy    TOTEN  =       -33.49003774 eV

  energy without entropy =      -33.49003774  energy(sigma->0) =      -33.49003774


--------------------------------------------------------------------------------------------------------




--------------------------------------- Iteration      1(  14)  ---------------------------------------


    POTLOK:  cpu time   51.6960: real time   51.7424
    SETDIJ:  cpu time    0.0520: real time    0.0499
     EDDAV:  cpu time   24.6480: real time   24.6918
 BZINTS: Fermi energy: -2.132119; 64.000000 electrons
         Band energy:-408.221423;  BLOECHL correction: -0.016487
       DOS:  cpu time    0.0040: real time    0.0052
    CHARGE:  cpu time    2.1640: real time    2.1670
    MIXING:  cpu time    0.0480: real time    0.0472
    --------------------------------------------
      LOOP:  cpu time   78.6120: real time   78.7036

 eigenvalue-minimisations  :  1056
 total energy-change (2. order) :-0.7387773E-02  (-0.9116991E-03)
 number of electron      63.9999999 magnetization       1.8669443
 augmentation part        4.8248112 magnetization       0.8396577

 Broyden mixing:
  rms(total) = 0.33723E-01    rms(broyden)= 0.33718E-01
  rms(prec ) = 0.36739E-01
  weight for this iteration     100.00

 eigenvalues of (default mixing * dielectric matrix)
  average eigenvalue GAMMA=   2.0227
  9.5607  2.5920  1.9111  1.0613  0.4677  0.4677  0.8448  0.6843  0.6143

 Free energy of the ion-electron system (eV)
  ---------------------------------------------------
  alpha Z        PSCENC =        16.14724484
  Ewald energy   TEWEN  =      8065.03639907
  -Hartree energ DENC   =    -11432.50672088
  -exchange      EXHF   =         0.00000000
  -V(xc)+E(xc)   XCENC  =      -134.54008788
  PAW double counting   =      2488.75819790    -2345.52388357
  entropy T*S    EENTRO =         0.00000000
  eigenvalues    EBANDS =      -408.22142336
  atomic energy  EATOM  =      3717.35284836
  Solvation  Ediel_sol  =         0.00000000
  ---------------------------------------------------
  free energy    TOTEN  =       -33.49742551 eV

  energy without entropy =      -33.49742551  energy(sigma->0) =      -33.49742551


--------------------------------------------------------------------------------------------------------




--------------------------------------- Iteration      1(  15)  ---------------------------------------


    POTLOK:  cpu time   51.0800: real time   51.2956
    SETDIJ:  cpu time    0.0720: real time    0.0719
     EDDAV:  cpu time   23.5840: real time   23.6747
 BZINTS: Fermi energy: -2.144227; 64.000000 electrons
         Band energy:-408.848758;  BLOECHL correction: -0.018872
       DOS:  cpu time    0.0040: real time    0.0068
    CHARGE:  cpu time    2.1520: real time    2.1528
    MIXING:  cpu time    0.0480: real time    0.0467
    --------------------------------------------
      LOOP:  cpu time   76.9400: real time   77.2484

 eigenvalue-minimisations  :  1008
 total energy-change (2. order) :-0.1077542E-02  (-0.6059627E-03)
 number of electron      63.9999999 magnetization       1.8339058
 augmentation part        4.8829844 magnetization       0.8150361

 Broyden mixing:
  rms(total) = 0.16637E-01    rms(broyden)= 0.16604E-01
  rms(prec ) = 0.18032E-01
  weight for this iteration     100.00

 eigenvalues of (default mixing * dielectric matrix)
  average eigenvalue GAMMA=   1.9727
  9.8722  2.5570  2.2024  1.2131  0.4677  0.4677  0.9506  0.7655  0.6534  0.5773

 Free energy of the ion-electron system (eV)
  ---------------------------------------------------
  alpha Z        PSCENC =        16.14724484
  Ewald energy   TEWEN  =      8065.03639907
  -Hartree energ DENC   =    -11431.81126464
  -exchange      EXHF   =         0.00000000
  -V(xc)+E(xc)   XCENC  =      -134.57965986
  PAW double counting   =      2488.48200161    -2345.27731454
  entropy T*S    EENTRO =         0.00000000
  eigenvalues    EBANDS =      -408.84875790
  atomic energy  EATOM  =      3717.35284836
  Solvation  Ediel_sol  =         0.00000000
  ---------------------------------------------------
  free energy    TOTEN  =       -33.49850305 eV

  energy without entropy =      -33.49850305  energy(sigma->0) =      -33.49850305


--------------------------------------------------------------------------------------------------------




--------------------------------------- Iteration      1(  16)  ---------------------------------------


    POTLOK:  cpu time   51.1240: real time   51.2997
    SETDIJ:  cpu time    0.0480: real time    0.0485
     EDDAV:  cpu time   23.1120: real time   23.2657
 BZINTS: Fermi energy: -2.137500; 64.000000 electrons
         Band energy:-408.606045;  BLOECHL correction: -0.019385
       DOS:  cpu time    0.0040: real time    0.0076
    CHARGE:  cpu time    2.1720: real time    2.1756
    MIXING:  cpu time    0.0680: real time    0.0660
    --------------------------------------------
      LOOP:  cpu time   76.5280: real time   76.8631

 eigenvalue-minimisations  :   992
 total energy-change (2. order) : 0.2439206E-03  (-0.1037067E-03)
 number of electron      63.9999999 magnetization       1.8138516
 augmentation part        4.8708647 magnetization       0.8007913

 Broyden mixing:
  rms(total) = 0.65415E-02    rms(broyden)= 0.65370E-02
  rms(prec ) = 0.77923E-02
  weight for this iteration     100.00

 eigenvalues of (default mixing * dielectric matrix)
  average eigenvalue GAMMA=   1.9617
 10.0183  2.5495  2.5495  1.5840  0.4677  0.4677  1.0648  0.8066  0.8066  0.6602
  0.6035

 Free energy of the ion-electron system (eV)
  ---------------------------------------------------
  alpha Z        PSCENC =        16.14724484
  Ewald energy   TEWEN  =      8065.03639907
  -Hartree energ DENC   =    -11432.00899175
  -exchange      EXHF   =         0.00000000
  -V(xc)+E(xc)   XCENC  =      -134.58511413
  PAW double counting   =      2489.54394492    -2346.37854548
  entropy T*S    EENTRO =         0.00000000
  eigenvalues    EBANDS =      -408.60604497
  atomic energy  EATOM  =      3717.35284836
  Solvation  Ediel_sol  =         0.00000000
  ---------------------------------------------------
  free energy    TOTEN  =       -33.49825913 eV

  energy without entropy =      -33.49825913  energy(sigma->0) =      -33.49825913


--------------------------------------------------------------------------------------------------------




--------------------------------------- Iteration      1(  17)  ---------------------------------------


    POTLOK:  cpu time   51.1760: real time   51.3348
    SETDIJ:  cpu time    0.0520: real time    0.0492
     EDDAV:  cpu time   22.2760: real time   22.6587
 BZINTS: Fermi energy: -2.134002; 64.000000 electrons
         Band energy:-408.427582;  BLOECHL correction: -0.019714
       DOS:  cpu time    0.0080: real time    0.0075
    CHARGE:  cpu time    2.0360: real time    2.1936
    MIXING:  cpu time    0.0520: real time    0.0487
    --------------------------------------------
      LOOP:  cpu time   75.6000: real time   76.2924

 eigenvalue-minimisations  :   960
 total energy-change (2. order) :-0.7677593E-03  (-0.5604394E-04)
 number of electron      63.9999999 magnetization       1.8130072
 augmentation part        4.8670499 magnetization       0.8022711

 Broyden mixing:
  rms(total) = 0.27760E-02    rms(broyden)= 0.27728E-02
  rms(prec ) = 0.45324E-02
  weight for this iteration     100.00

 eigenvalues of (default mixing * dielectric matrix)
  average eigenvalue GAMMA=   1.9394
 10.0581  2.7467  2.7467  1.9120  0.4677  0.4677  1.1153  0.9725  0.8410  0.5956
  0.6480  0.7015

 Free energy of the ion-electron system (eV)
  ---------------------------------------------------
  alpha Z        PSCENC =        16.14724484
  Ewald energy   TEWEN  =      8065.03639907
  -Hartree energ DENC   =    -11432.17443287
  -exchange      EXHF   =         0.00000000
  -V(xc)+E(xc)   XCENC  =      -134.59111885
  PAW double counting   =      2490.48410116    -2347.32648668
  entropy T*S    EENTRO =         0.00000000
  eigenvalues    EBANDS =      -408.42758192
  atomic energy  EATOM  =      3717.35284836
  Solvation  Ediel_sol  =         0.00000000
  ---------------------------------------------------
  free energy    TOTEN  =       -33.49902689 eV

  energy without entropy =      -33.49902689  energy(sigma->0) =      -33.49902689


--------------------------------------------------------------------------------------------------------




--------------------------------------- Iteration      1(  18)  ---------------------------------------


    POTLOK:  cpu time   51.1480: real time   51.5813
    SETDIJ:  cpu time    0.0520: real time    0.0497
     EDDAV:  cpu time   20.9360: real time   21.0293
 BZINTS: Fermi energy: -2.131924; 64.000000 electrons
         Band energy:-408.302548;  BLOECHL correction: -0.019762
       DOS:  cpu time    0.0040: real time    0.0068
    CHARGE:  cpu time    2.1280: real time    2.1734
    MIXING:  cpu time    0.0480: real time    0.0496
    --------------------------------------------
      LOOP:  cpu time   74.3160: real time   74.8901

 eigenvalue-minimisations  :   864
 total energy-change (2. order) :-0.3500867E-03  (-0.2348806E-04)
 number of electron      63.9999999 magnetization       1.8097909
 augmentation part        4.8659017 magnetization       0.7995676

 Broyden mixing:
  rms(total) = 0.18537E-02    rms(broyden)= 0.18533E-02
  rms(prec ) = 0.38478E-02
  weight for this iteration     100.00

 eigenvalues of (default mixing * dielectric matrix)
  average eigenvalue GAMMA=   1.8934
 10.0745  2.8254  2.8254  2.0012  1.1514  1.1514  0.4677  0.4677  0.9200  0.7877
  0.6004  0.6567  0.6849

 Free energy of the ion-electron system (eV)
  ---------------------------------------------------
  alpha Z        PSCENC =        16.14724484
  Ewald energy   TEWEN  =      8065.03639907
  -Hartree energ DENC   =    -11432.30324670
  -exchange      EXHF   =         0.00000000
  -V(xc)+E(xc)   XCENC  =      -134.59191849
  PAW double counting   =      2490.62603406    -2347.46418989
  entropy T*S    EENTRO =         0.00000000
  eigenvalues    EBANDS =      -408.30254823
  atomic energy  EATOM  =      3717.35284836
  Solvation  Ediel_sol  =         0.00000000
  ---------------------------------------------------
  free energy    TOTEN  =       -33.49937698 eV

  energy without entropy =      -33.49937698  energy(sigma->0) =      -33.49937698


--------------------------------------------------------------------------------------------------------




--------------------------------------- Iteration      1(  19)  ---------------------------------------


    POTLOK:  cpu time   51.3920: real time   51.5297
    SETDIJ:  cpu time    0.0520: real time    0.0540
     EDDAV:  cpu time   21.2880: real time   21.3123
 BZINTS: Fermi energy: -2.126762; 64.000000 electrons
         Band energy:-407.979474;  BLOECHL correction: -0.019817
       DOS:  cpu time    0.0040: real time    0.0075
    CHARGE:  cpu time    2.1360: real time    2.1385
    MIXING:  cpu time    0.0840: real time    0.0814
    --------------------------------------------
      LOOP:  cpu time   74.9560: real time   75.1233

 eigenvalue-minimisations  :   864
 total energy-change (2. order) :-0.2859385E-03  (-0.1385281E-04)
 number of electron      63.9999999 magnetization       1.8051062
 augmentation part        4.8643996 magnetization       0.7955925

 Broyden mixing:
  rms(total) = 0.85342E-03    rms(broyden)= 0.85311E-03
  rms(prec ) = 0.30749E-02
  weight for this iteration     100.00

 eigenvalues of (default mixing * dielectric matrix)
  average eigenvalue GAMMA=   1.8823
 10.0925  3.3023  2.6401  2.1207  1.5741  0.4677  0.4677  1.1358  1.0337  0.8110
  0.8110  0.5994  0.6480  0.6480

 Free energy of the ion-electron system (eV)
  ---------------------------------------------------
  alpha Z        PSCENC =        16.14724484
  Ewald energy   TEWEN  =      8065.03639907
  -Hartree energ DENC   =    -11432.63059021
  -exchange      EXHF   =         0.00000000
  -V(xc)+E(xc)   XCENC  =      -134.59274539
  PAW double counting   =      2490.62846867    -2347.46181466
  entropy T*S    EENTRO =         0.00000000
  eigenvalues    EBANDS =      -407.97947360
  atomic energy  EATOM  =      3717.35284836
  Solvation  Ediel_sol  =         0.00000000
  ---------------------------------------------------
  free energy    TOTEN  =       -33.49966292 eV

  energy without entropy =      -33.49966292  energy(sigma->0) =      -33.49966292


--------------------------------------------------------------------------------------------------------




--------------------------------------- Iteration      1(  20)  ---------------------------------------


    POTLOK:  cpu time   51.4760: real time   51.5009
    SETDIJ:  cpu time    0.0480: real time    0.0481
     EDDAV:  cpu time   20.1080: real time   20.1519
 BZINTS: Fermi energy: -2.120420; 64.000000 electrons
         Band energy:-407.576894;  BLOECHL correction: -0.019854
       DOS:  cpu time    0.0080: real time    0.0049
    --------------------------------------------
      LOOP:  cpu time   71.6400: real time   71.7057

 eigenvalue-minimisations  :   816
 total energy-change (2. order) :-0.1348104E-04  (-0.1876994E-04)
 number of electron      63.9999999 magnetization       1.8051062
 augmentation part        4.8643996 magnetization       0.7955925

 Free energy of the ion-electron system (eV)
  ---------------------------------------------------
  alpha Z        PSCENC =        16.14724484
  Ewald energy   TEWEN  =      8065.03639907
  -Hartree energ DENC   =    -11433.03432037
  -exchange      EXHF   =         0.00000000
  -V(xc)+E(xc)   XCENC  =      -134.59405594
  PAW double counting   =      2490.63833409    -2347.46923278
  entropy T*S    EENTRO =         0.00000000
  eigenvalues    EBANDS =      -407.57689368
  atomic energy  EATOM  =      3717.35284836
  Solvation  Ediel_sol  =         0.00000000
  ---------------------------------------------------
  free energy    TOTEN  =       -33.49967640 eV

  energy without entropy =      -33.49967640  energy(sigma->0) =      -33.49967640


--------------------------------------------------------------------------------------------------------




 average (electrostatic) potential at core
  the test charge radii are     0.9791  0.9892  1.1897
  (the norm of the test charge is              1.0000)
       1 -49.1937       2 -49.1937       3 -92.2741       4 -92.2741       5 -96.7299
       6 -96.7299       7 -96.7299       8 -96.7299       9 -96.7299      10 -96.7299



 E-fermi :  -2.1204     XC(G=0):  -3.5679     alpha+bet : -2.9822


 spin component 1

 k-point     1 :       0.0000    0.0000    0.0000
  band No.  band energies     occupation 
      1     -14.5711      1.00000
      2     -13.8046      1.00000
      3     -12.8619      1.00000
      4     -12.8619      1.00000
      5     -12.7769      1.00000
      6     -12.7768      1.00000
      7     -10.3179      1.00000
      8      -8.3274      1.00000
      9      -6.7768      1.00000
     10      -6.5556      1.00000
     11      -6.5405      1.00000
     12      -6.5404      1.00000
     13      -6.1614      1.00000
     14      -6.1614      1.00000
     15      -5.4827      1.00000
     16      -4.8525      1.00000
     17      -4.8525      1.00000
     18      -4.6481      1.00000
     19      -4.6481      1.00000
     20      -4.2179      1.00000
     21      -3.8733      1.00000
     22      -3.8733      1.00000
     23      -3.7516      1.00000
     24      -3.7111      1.00000
     25      -3.6926      1.00000
     26      -3.6926      1.00000
     27      -3.6356      1.00000
     28      -3.6356      1.00000
     29      -3.3476      1.00000
     30      -2.4659      1.00000
     31      -2.4659      1.00000
     32      -2.1846      1.00000
     33      -2.1845      1.00000
     34      -1.4625      0.00000
     35      -1.4625      0.00000
     36      -0.5705      0.00000
     37      -0.5358      0.00000
     38       0.7621      0.00000
     39       0.7621      0.00000
     40       0.8893      0.00000
     41       1.5686      0.00000
     42       1.8171      0.00000
     43       1.9563      0.00000
     44       1.9563      0.00000
     45       2.0929      0.00000
     46       2.3618      0.00000
     47       2.8623      0.00000
     48       2.8624      0.00000

 k-point     2 :       0.2000    0.0000    0.0000
  band No.  band energies     occupation 
      1     -14.4489      1.00000
      2     -13.7080      1.00000
      3     -13.0680      1.00000
      4     -12.9562      1.00000
      5     -12.8573      1.00000
      6     -12.8283      1.00000
      7     -10.2009      1.00000
      8      -8.3967      1.00000
      9      -6.8851      1.00000
     10      -6.5695      1.00000
     11      -6.4701      1.00000
     12      -6.1478      1.00000
     13      -5.7607      1.00000
     14      -5.6495      1.00000
     15      -5.2666      1.00000
     16      -4.9427      1.00000
     17      -4.8938      1.00000
     18      -4.8080      1.00000
     19      -4.4532      1.00000
     20      -4.2591      1.00000
     21      -4.1501      1.00000
     22      -4.0507      1.00000
     23      -3.8082      1.00000
     24      -3.8035      1.00000
     25      -3.7328      1.00000
     26      -3.6173      1.00000
     27      -3.6061      1.00000
     28      -3.5544      1.00000
     29      -3.4569      1.00000
     30      -3.1589      1.00000
     31      -2.8053      1.00000
     32      -2.1586      1.00000
     33      -2.1361      0.91792
     34      -2.0164      0.00000
     35      -1.6775      0.00000
     36      -0.1529      0.00000
     37      -0.0446      0.00000
     38       0.7562      0.00000
     39       0.7858      0.00000
     40       1.1095      0.00000
     41       1.5668      0.00000
     42       1.6276      0.00000
     43       1.8688      0.00000
     44       1.9911      0.00000
     45       2.2310      0.00000
     46       2.5058      0.00000
     47       2.7419      0.00000
     48       2.7886      0.00000

 k-point     3 :       0.4000    0.0000    0.0000
  band No.  band energies     occupation 
      1     -14.1085      1.00000
      2     -13.5590      1.00000
      3     -13.4510      1.00000
      4     -13.1067      1.00000
      5     -13.0221      1.00000
      6     -12.9513      1.00000
      7     -10.0193      1.00000
      8      -8.4415      1.00000
      9      -6.7381      1.00000
     10      -6.4069      1.00000
     11      -6.1188      1.00000
     12      -5.5797      1.00000
     13      -5.2638      1.00000
     14      -5.2408      1.00000
     15      -5.1238      1.00000
     16      -5.0854      1.00000
     17      -4.9950      1.00000
     18      -4.9717      1.00000
     19      -4.5488      1.00000
     20      -4.4647      1.00000
     21      -4.4538      1.00000
     22      -4.0436      1.00000
     23      -3.9047      1.00000
     24      -3.8655      1.00000
     25      -3.8338      1.00000
     26      -3.7681      1.00000
     27      -3.6382      1.00000
     28      -3.4342      1.00000
     29      -3.3929      1.00000
     30      -3.3697      1.00000
     31      -3.2790      1.00000
     32      -2.3237      1.00000
     33      -2.2313      1.08664
     34      -2.0490      0.00000
     35      -1.8825      0.00000
     36      -0.5059      0.00000
     37      -0.3900      0.00000
     38       0.6310      0.00000
     39       0.9948      0.00000
     40       1.1246      0.00000
     41       1.3770      0.00000
     42       1.6433      0.00000
     43       1.7670      0.00000
     44       2.1744      0.00000
     45       2.5522      0.00000
     46       2.6925      0.00000
     47       2.8825      0.00000
     48       2.9580      0.00000

 k-point     4 :       0.4000    0.2000    0.0000
  band No.  band energies     occupation 
      1     -14.2159      1.00000
      2     -13.5307      1.00000
      3     -13.2860      1.00000
      4     -13.2266      1.00000
      5     -12.9771      1.00000
      6     -12.9097      1.00000
      7     -10.0309      1.00000
      8      -8.4120      1.00000
      9      -6.8792      1.00000
     10      -6.3954      1.00000
     11      -6.2779      1.00000
     12      -5.7577      1.00000
     13      -5.2145      1.00000
     14      -5.1439      1.00000
     15      -5.1332      1.00000
     16      -5.0899      1.00000
     17      -5.0161      1.00000
     18      -4.9066      1.00000
     19      -4.6430      1.00000
     20      -4.5358      1.00000
     21      -4.4450      1.00000
     22      -4.0215      1.00000
     23      -3.8282      1.00000
     24      -3.8206      1.00000
     25      -3.8029      1.00000
     26      -3.7277      1.00000
     27      -3.6234      1.00000
     28      -3.4478      1.00000
     29      -3.4451      1.00000
     30      -3.3356      1.00000
     31      -2.9860      1.00000
     32      -2.6164      1.00000
     33      -2.0903      0.55645
     34      -1.9762      0.00000
     35      -1.6790      0.00000
     36      -0.4830      0.00000
     37      -0.3201      0.00000
     38       0.4966      0.00000
     39       0.6760      0.00000
     40       1.2770      0.00000
     41       1.4327      0.00000
     42       1.5282      0.00000
     43       1.7811      0.00000
     44       2.0669      0.00000
     45       2.4843      0.00000
     46       2.7322      0.00000
     47       2.7399      0.00000
     48       2.9372      0.00000

 k-point     5 :      -0.4000    0.2000    0.0000
  band No.  band energies     occupation 
      1     -13.8760      1.00000
      2     -13.6773      1.00000
      3     -13.3371      1.00000
      4     -13.2776      1.00000
      5     -13.1647      1.00000
      6     -12.9882      1.00000
      7      -9.9114      1.00000
      8      -8.3834      1.00000
      9      -6.6649      1.00000
     10      -6.2138      1.00000
     11      -6.1876      1.00000
     12      -5.7673      1.00000
     13      -5.4853      1.00000
     14      -5.3368      1.00000
     15      -5.1099      1.00000
     16      -4.9062      1.00000
     17      -4.8557      1.00000
     18      -4.7762      1.00000
     19      -4.6984      1.00000
     20      -4.6655      1.00000
     21      -4.3487      1.00000
     22      -4.0649      1.00000
     23      -3.8686      1.00000
     24      -3.8062      1.00000
     25      -3.7892      1.00000
     26      -3.5966      1.00000
     27      -3.5788      1.00000
     28      -3.4583      1.00000
     29      -3.3898      1.00000
     30      -3.3557      1.00000
     31      -3.1434      1.00000
     32      -2.3060      1.00000
[...]
     34      -1.1646      0.00000
     35      -0.8320      0.00000
     36       0.2411      0.00000
     37       0.4725      0.00000
     38       1.1102      0.00000
     39       1.2845      0.00000
     40       1.8814      0.00000
     41       2.0606      0.00000
     42       2.1830      0.00000
     43       2.4953      0.00000
     44       2.5074      0.00000
     45       2.8942      0.00000
     46       3.2280      0.00000
     47       3.4337      0.00000
     48       3.7766      0.00000

 k-point     5 :      -0.4000    0.2000    0.0000
  band No.  band energies     occupation 
      1     -13.9062      1.00000
      2     -13.7036      1.00000
      3     -13.2557      1.00000
      4     -13.0776      1.00000
      5     -12.9501      1.00000
      6     -12.7440      1.00000
      7      -9.6894      1.00000
      8      -8.0978      1.00000
      9      -6.7054      1.00000
     10      -6.1944      1.00000
     11      -6.1241      1.00000
     12      -5.6717      1.00000
     13      -5.3432      1.00000
     14      -5.1840      1.00000
     15      -4.9208      1.00000
     16      -4.5170      1.00000
     17      -4.5058      1.00000
     18      -4.4795      1.00000
     19      -4.4358      1.00000
     20      -4.2216      1.00000
     21      -4.0687      1.00000
     22      -3.6967      1.00000
     23      -3.4784      1.00000
     24      -3.3637      1.00000
     25      -3.3009      1.00000
     26      -3.1800      1.00000
     27      -3.0903      1.00000
     28      -2.9261      1.00000
     29      -2.9024      1.00000
     30      -2.8642      1.00000
     31      -2.7578      1.00000
     32      -1.5050      0.26653
     33      -1.4609      0.00000
     34      -1.2793      0.00000
     35      -0.7978      0.00000
     36      -0.2286      0.00000
     37       0.1862      0.00000
     38       0.6040      0.00000
     39       0.9968      0.00000
     40       1.5862      0.00000
     41       1.7871      0.00000
     42       2.0521      0.00000
     43       2.7534      0.00000
     44       3.0650      0.00000
     45       3.0658      0.00000
     46       3.1553      0.00000
     47       3.2302      0.00000
     48       3.9267      0.00000


--------------------------------------------------------------------------------------------------------


 soft charge-density along one line, spin component           1
         0         1         2         3         4         5         6         7         8         9
 total charge-density along one line

 soft charge-density along one line, spin component           2
         0         1         2         3         4         5         6         7         8         9
 total charge-density along one line

 pseudopotential strength for first ion, spin component:           1
 -9.913  -0.087  -0.000   0.000  -0.000   1.122   0.036  -0.000
 -0.087 -10.012   0.000  -0.000   0.000   0.036   1.163  -0.000
 -0.000   0.000  -9.861   0.000   0.000  -0.000  -0.000   1.099
  0.000  -0.000   0.000 -10.012   0.087  -0.000   0.000  -0.000
 -0.000   0.000   0.000   0.087  -9.913   0.000  -0.000  -0.000
  1.122   0.036  -0.000  -0.000   0.000   0.847  -0.016   0.000
  0.036   1.163  -0.000   0.000  -0.000  -0.016   0.830   0.000
 -0.000  -0.000   1.099  -0.000  -0.000   0.000   0.000   0.857
 -0.000   0.000  -0.000   1.163  -0.036   0.000  -0.000   0.000
  0.000  -0.000  -0.000  -0.036   1.122  -0.000   0.000   0.000
  0.000  -0.000   0.003  -0.000   0.000   0.000  -0.000  -0.000
 -0.000   0.000  -0.000   0.000  -0.000   0.000  -0.000   0.000
 -0.000  -0.000   0.000  -0.000   0.000  -0.000   0.000  -0.000
 -0.000  -0.000  -0.000  -0.000   0.000  -0.000   0.000   0.000
  0.000  -0.000   0.000  -0.000  -0.000   0.000  -0.000  -0.000
  0.000   0.000  -0.000   0.000  -0.001  -0.000  -0.000   0.000
  0.000   0.000  -0.000   0.000  -0.000  -0.000  -0.000   0.000
 -0.001   0.000  -0.000   0.000  -0.000   0.000  -0.000   0.000
 pseudopotential strength for first ion, spin component:           2
 -9.713  -0.012  -0.000   0.000  -0.000   1.037   0.006   0.000
 -0.012  -9.721   0.000  -0.000   0.000   0.006   1.041  -0.000
 -0.000   0.000  -9.706   0.000   0.000   0.000  -0.000   1.032
  0.000  -0.000   0.000  -9.721   0.012  -0.000   0.000  -0.000
 -0.000   0.000   0.000   0.012  -9.713   0.000  -0.000  -0.000
  1.037   0.006   0.000  -0.000   0.000   0.884  -0.004  -0.000
  0.006   1.041  -0.000   0.000  -0.000  -0.004   0.882   0.000
  0.000  -0.000   1.032  -0.000  -0.000  -0.000   0.000   0.887
 -0.000   0.000  -0.000   1.041  -0.006   0.000  -0.000   0.000
  0.000  -0.000  -0.000  -0.006   1.037  -0.000   0.000   0.000
  0.000  -0.000  -0.001  -0.000   0.000   0.000  -0.000   0.001
 -0.000   0.000  -0.000   0.000  -0.000   0.000  -0.000  -0.000
 -0.000  -0.000   0.000  -0.000   0.000  -0.000   0.000  -0.000
 -0.000  -0.000  -0.000  -0.000  -0.000  -0.000   0.000   0.000
  0.000  -0.000   0.000  -0.000  -0.000   0.000  -0.000  -0.000
  0.000   0.000  -0.000   0.000  -0.001  -0.000  -0.000   0.000
  0.000   0.000  -0.000   0.000   0.000  -0.000  -0.000   0.000
 -0.001   0.000  -0.000   0.000  -0.000   0.000  -0.000   0.000
 total augmentation occupancy for first ion, spin component:           1
  1.827  -0.144   0.000   0.000  -0.000   0.040   0.075   0.000  -0.000  -0.000  -0.000  -0.000  -0.000  -0.000   0.005   0.000
 -0.144   1.701  -0.000  -0.000   0.000   0.074   0.110   0.000  -0.000  -0.000  -0.000   0.000  -0.000  -0.000   0.004   0.000
  0.000  -0.000   1.946  -0.000  -0.000   0.000   0.000  -0.021   0.000  -0.000  -0.009  -0.003  -0.000  -0.000   0.000   0.000
  0.000  -0.000  -0.000   1.701   0.144  -0.000   0.000   0.000   0.110  -0.074  -0.000  -0.000  -0.004   0.000  -0.000   0.000
 -0.000   0.000  -0.000   0.144   1.827   0.000  -0.000  -0.000  -0.075   0.040   0.000   0.000   0.005   0.000   0.000  -0.000
  0.040   0.074   0.000  -0.000   0.000   0.054   0.038   0.000  -0.000  -0.000   0.000  -0.000  -0.000   0.000   0.013   0.000
  0.075   0.110   0.000   0.000  -0.000   0.038   0.099   0.000  -0.000  -0.000   0.000   0.000  -0.000   0.000  -0.003   0.000
  0.000   0.000  -0.021   0.000  -0.000   0.000   0.000   0.045   0.000  -0.000   0.021  -0.011  -0.000   0.000   0.000   0.000
 -0.000  -0.000   0.000   0.110  -0.075  -0.000  -0.000   0.000   0.099  -0.038   0.000   0.000   0.003  -0.000  -0.000  -0.000
 -0.000  -0.000  -0.000  -0.074   0.040  -0.000  -0.000  -0.000  -0.038   0.054  -0.000   0.000   0.013  -0.000   0.000  -0.002
 -0.000   0.000  -0.009  -0.000   0.000   0.000  -0.000   0.021   0.000  -0.000   1.026  -0.274   0.000  -0.000   0.000  -0.000
 -0.000   0.000  -0.003  -0.000   0.000  -0.000  -0.000  -0.011   0.000   0.000  -0.274   0.124  -0.000  -0.000   0.000   0.000
 -0.000  -0.000  -0.000  -0.004   0.005  -0.000  -0.000  -0.000   0.003   0.013  -0.000  -0.000   0.183   0.000  -0.000  -0.012
 -0.000  -0.000  -0.000   0.000   0.000   0.000   0.000   0.000  -0.000  -0.000  -0.000  -0.000  -0.000   0.187  -0.000  -0.000
  0.005   0.004   0.000  -0.000   0.000   0.013  -0.003   0.000  -0.000   0.000   0.000   0.000  -0.000  -0.000   0.183   0.000
  0.000   0.000   0.000   0.000  -0.000   0.000   0.000   0.000  -0.000  -0.002  -0.000   0.000  -0.012  -0.000   0.000   0.001
  0.000   0.000   0.000  -0.000  -0.000  -0.000  -0.000  -0.000   0.000   0.000  -0.000   0.000  -0.000  -0.014   0.000   0.000
 -0.000  -0.000  -0.000   0.000  -0.000  -0.002   0.000  -0.000   0.000  -0.000   0.000  -0.000  -0.000   0.000  -0.012  -0.000
 total augmentation occupancy for first ion, spin component:           2
  0.023   0.043   0.000  -0.000  -0.000  -0.023  -0.020  -0.000   0.000   0.000   0.000   0.000   0.000  -0.000   0.000   0.000
  0.043   0.076   0.000  -0.000  -0.000  -0.021  -0.050  -0.000   0.000   0.000  -0.000  -0.000   0.000   0.000   0.000   0.000
  0.000   0.000  -0.001   0.000  -0.000  -0.000  -0.000  -0.012  -0.000   0.000   0.003   0.002  -0.000  -0.000   0.000  -0.000
 -0.000  -0.000   0.000   0.076  -0.043   0.000  -0.000  -0.000  -0.050   0.021  -0.000  -0.000  -0.000  -0.000   0.000  -0.000
 -0.000  -0.000  -0.000  -0.043   0.023  -0.000   0.000   0.000   0.020  -0.023  -0.000  -0.000   0.000   0.000  -0.000   0.000
 -0.023  -0.021  -0.000   0.000  -0.000   0.004   0.007   0.000  -0.000  -0.000  -0.000  -0.000  -0.000   0.000  -0.000  -0.000
 -0.020  -0.050  -0.000  -0.000   0.000   0.007   0.014   0.000  -0.000  -0.000  -0.000   0.000  -0.000  -0.000  -0.000  -0.000
 -0.000  -0.000  -0.012  -0.000   0.000   0.000   0.000   0.001   0.000  -0.000  -0.001  -0.000   0.000   0.000  -0.000  -0.000
  0.000   0.000  -0.000  -0.050   0.020  -0.000  -0.000   0.000   0.014  -0.007   0.000   0.000   0.000   0.000  -0.000   0.000
  0.000   0.000   0.000   0.021  -0.023  -0.000  -0.000  -0.000  -0.007   0.004   0.000   0.000  -0.000  -0.000   0.000   0.000
  0.000   0.000   0.003   0.000  -0.000  -0.000  -0.000  -0.001   0.000   0.000   0.002   0.010  -0.000  -0.000   0.000  -0.000
  0.000  -0.000   0.002   0.000  -0.000  -0.000   0.000  -0.000  -0.000   0.000   0.010  -0.005  -0.000  -0.000   0.000  -0.000
  0.000   0.000  -0.000  -0.000   0.000  -0.000  -0.000   0.000   0.000  -0.000   0.000   0.000  -0.000   0.000   0.000   0.000
 -0.000   0.000  -0.000  -0.000   0.000   0.000  -0.000   0.000   0.000  -0.000  -0.000  -0.000   0.000   0.000   0.000   0.000
  0.000   0.000   0.000   0.000  -0.000  -0.000  -0.000  -0.000  -0.000   0.000   0.000   0.000   0.000  -0.000  -0.000   0.000
  0.000   0.000  -0.000  -0.000   0.000  -0.000  -0.000  -0.000   0.000   0.000  -0.000   0.000   0.000   0.000   0.000  -0.000
  0.000   0.000   0.000   0.000  -0.000   0.000   0.000   0.000  -0.000  -0.000   0.000  -0.000   0.000   0.000  -0.000  -0.000
  0.000   0.000   0.000   0.000  -0.000   0.000  -0.000   0.000  -0.000   0.000   0.000   0.000  -0.000  -0.000   0.000   0.000


------------------------ aborting loop because EDIFF is reached ----------------------------------------





 total charge     

# of ion       s       p       d       tot
------------------------------------------
    1        0.395   0.418   8.388   9.201
    2        0.395   0.418   8.388   9.201
    3        0.781   0.847   0.000   1.628
    4        0.781   0.847   0.000   1.628
    5        1.405   1.903   0.044   3.352
    6        1.397   1.949   0.046   3.391
    7        1.401   1.911   0.045   3.357
    8        1.405   1.903   0.044   3.352
    9        1.397   1.949   0.046   3.391
   10        1.401   1.911   0.045   3.357
--------------------------------------------------
tot         10.759  14.054  17.046  41.859



 magnetization (x)

# of ion       s       p       d       tot
------------------------------------------
    1       -0.000  -0.001   0.267   0.265
    2       -0.000  -0.001   0.267   0.265
    3        0.001   0.005   0.000   0.006
    4        0.001   0.005   0.000   0.006
    5        0.004   0.037   0.001   0.042
    6        0.004   0.037   0.002   0.044
    7        0.005   0.040   0.001   0.045
    8        0.004   0.037   0.001   0.042
    9        0.004   0.037   0.002   0.044
   10        0.005   0.040   0.001   0.045
--------------------------------------------------
tot          0.027   0.237   0.542   0.806

    CHARGE:  cpu time    2.1000: real time    2.1602
    FORLOC:  cpu time    0.0520: real time    0.0565
    FORNL :  cpu time    6.4440: real time    6.5467
    STRESS:  cpu time   19.4880: real time   19.6193
    FORCOR:  cpu time   51.1520: real time   51.2362
    FORHAR:  cpu time    0.3320: real time    0.3303
    MIXING:  cpu time    0.0400: real time    0.0414
    OFIELD:  cpu time    0.0000: real time    0.0001

  FORCE on cell =-STRESS in cart. coord.  units (eV):
  Direction    XX          YY          ZZ          XY          YZ          ZX
  --------------------------------------------------------------------------------------
  Alpha Z    17.86055    17.86055    17.86055
  Ewald   10335.61884 10335.61669-12345.29630    -0.00225    -0.00056    -0.00103
  Hartree 11057.20648 11057.20763-10407.58653    -0.00047     0.00009     0.00014
  E(xc)    -280.07934  -280.07935  -279.63476     0.00003     0.00002     0.00002
  Local  -22250.51921-22250.51910 21867.29298     0.00247     0.00037     0.00069
  n-local   673.03735   672.15184   680.02099    -0.55938     0.39452     0.48205
  augment   -66.78278   -66.78258   -73.05341    -0.00002     0.00002     0.00006
  Kinetic   519.65579   508.84339   540.81066    -5.55418    -1.00496    -1.54603
  Fock        0.00000     0.00000     0.00000     0.00000     0.00000     0.00000
  -------------------------------------------------------------------------------------
  Total       0.14837     0.14837     0.41418     0.00000    -0.00000     0.00000
  in kB       0.27140     0.27140     0.75762     0.00000    -0.00000     0.00000
  external pressure =        0.43 kB  Pullay stress =        0.00 kB


 VOLUME and BASIS-vectors are now :
 -----------------------------------------------------------------------------
  energy-cutoff  :      520.00
  volume of cell :      875.90
      direct lattice vectors                 reciprocal lattice vectors
     6.695832137  0.000000068 -0.000000000     0.149346636 -0.086225312  0.000000000
     3.347915556  5.798760433  0.000000000    -0.000000002  0.172450650 -0.000000000
    -0.000000000  0.000000000 22.558685794     0.000000000 -0.000000000  0.044328823

  length of vectors
     6.695832137  6.695831623 22.558685794     0.172450637  0.172450650  0.044328823


 FORCES acting on ions
    electron-ion (+dipol)            ewald-force                    non-local-force                 convergence-correction
 -----------------------------------------------------------------------------------------------
   0.165E-03 0.744E-04 0.722E+00   0.704E-03 0.425E-03 -.731E+00   0.139E-16 0.278E-16 0.121E-01   -.362E-06 -.298E-06 -.290E-03
   -.165E-03 -.744E-04 -.722E+00   -.704E-03 -.425E-03 0.731E+00   -.694E-17 -.278E-16 -.121E-01   0.362E-06 0.298E-06 0.290E-03
   -.365E-04 -.244E-04 0.205E+03   -.150E-03 -.831E-04 -.201E+03   -.206E-16 0.136E-16 -.386E+01   -.533E-07 -.174E-07 -.566E-02
   0.365E-04 0.244E-04 -.205E+03   0.150E-03 0.831E-04 0.201E+03   -.718E-17 -.136E-16 0.386E+01   0.533E-07 0.174E-07 0.566E-02
   -.308E+02 -.102E-01 -.448E+03   0.273E+02 0.136E-01 0.453E+03   0.351E+01 -.703E-02 -.429E+01   0.959E-02 0.180E-04 0.183E-01
   0.154E+02 0.267E+02 -.448E+03   -.136E+02 -.237E+02 0.453E+03   -.176E+01 -.304E+01 -.429E+01   -.478E-02 -.831E-02 0.183E-01
   0.154E+02 -.267E+02 -.448E+03   -.137E+02 0.237E+02 0.453E+03   -.175E+01 0.304E+01 -.429E+01   -.481E-02 0.830E-02 0.183E-01
   0.308E+02 0.102E-01 0.448E+03   -.273E+02 -.136E-01 -.453E+03   -.351E+01 0.703E-02 0.429E+01   -.959E-02 -.180E-04 -.183E-01
   -.154E+02 -.267E+02 0.448E+03   0.136E+02 0.237E+02 -.453E+03   0.176E+01 0.304E+01 0.429E+01   0.478E-02 0.831E-02 -.183E-01
   -.154E+02 0.267E+02 0.448E+03   0.137E+02 -.237E+02 -.453E+03   0.175E+01 -.304E+01 0.429E+01   0.481E-02 -.830E-02 -.183E-01
 -----------------------------------------------------------------------------------------------
   0.244E-09 -.663E-08 0.223E-08   0.000E+00 -.142E-13 -.171E-12   0.000E+00 -.133E-14 0.178E-14   0.417E-12 -.585E-12 0.288E-10


 POSITION                                       TOTAL-FORCE (eV/Angst)
 -----------------------------------------------------------------------------------
      3.34791      1.93292     11.27793         0.000000      0.000000      0.003478
      6.69584      3.86584     11.28075         0.000000     -0.000000     -0.003478
     -0.00000      0.00000     10.11854         0.000000     -0.000000     -0.032100
     -0.00000      0.00000     12.44015         0.000000      0.000000      0.032100
      4.18147      0.00095     12.90963         0.007694     -0.003079      0.014854
      1.25801      2.17703     12.90963        -0.006513     -0.005124      0.014854
      4.60428      3.62079     12.90963        -0.001180      0.008203      0.014854
      5.86227      5.79781      9.64906        -0.007694      0.003079     -0.014854
      8.78574      3.62173      9.64906         0.006513      0.005124     -0.014854
      5.43947      2.17798      9.64906         0.001180     -0.008203     -0.014854
 -----------------------------------------------------------------------------------
    total drift:                                0.000000     -0.000000      0.000000


--------------------------------------------------------------------------------------------------------



  FREE ENERGIE OF THE ION-ELECTRON SYSTEM (eV)
  ---------------------------------------------------
  free  energy   TOTEN  =       -34.06557007 eV

  energy  without entropy=      -34.06557007  energy(sigma->0) =      -34.06557007

 d Force = 0.1967838E-03[-0.912E-04, 0.485E-03]  d Energy = 0.4655733E-03-0.269E-03
 d Force = 0.1272571E+01[ 0.127E+01, 0.127E+01]  d Ewald  = 0.3699022E+01-0.243E+01


--------------------------------------------------------------------------------------------------------


    POTLOK:  cpu time   51.0000: real time   51.3215


--------------------------------------------------------------------------------------------------------




--------------------------------------------------------------------------------------------------------


  
 reached required accuracy - stopping structural energy minimisation
     LOOP+:  cpu time  514.5920: real time  517.1935
    4ORBIT:  cpu time    0.0000: real time    0.0000



 total charge     

# of ion       s       p       d       tot
------------------------------------------
    1        0.395   0.418   8.388   9.201
    2        0.395   0.418   8.388   9.201
    3        0.781   0.847   0.000   1.628
    4        0.781   0.847   0.000   1.628
    5        1.405   1.903   0.044   3.352
    6        1.397   1.949   0.046   3.391
    7        1.401   1.911   0.045   3.357
    8        1.405   1.903   0.044   3.352
    9        1.397   1.949   0.046   3.391
   10        1.401   1.911   0.045   3.357
--------------------------------------------------
tot         10.759  14.054  17.046  41.859



 magnetization (x)

# of ion       s       p       d       tot
------------------------------------------
    1       -0.000  -0.001   0.267   0.265
    2       -0.000  -0.001   0.267   0.265
    3        0.001   0.005   0.000   0.006
    4        0.001   0.005   0.000   0.006
    5        0.004   0.037   0.001   0.042
    6        0.004   0.037   0.002   0.044
    7        0.005   0.040   0.001   0.045
    8        0.004   0.037   0.001   0.042
    9        0.004   0.037   0.002   0.044
   10        0.005   0.040   0.001   0.045
--------------------------------------------------
tot          0.027   0.237   0.542   0.806

 BZINTS: Fermi energy: -1.557791; 64.000000 electrons
         Band energy:-397.859622;  BLOECHL correction: -0.046453

 total amount of memory used by VASP MPI-rank0   129376. kBytes
=======================================================================

   base      :      30000. kBytes
   nonlr-proj:       9066. kBytes
   fftplans  :      11247. kBytes
   grid      :      66142. kBytes
   one-center:        311. kBytes
   wavefun   :      12610. kBytes

  
  
 General timing and accounting informations for this job:
 ========================================================
  
                  Total CPU time used (sec):     8135.256
                            User time (sec):     7940.160
                          System time (sec):      195.096
                         Elapsed time (sec):     8186.735
  
                   Maximum memory used (kb):      379380.
                   Average memory used (kb):           0.
  
                          Minor page faults:      8295029
                          Major page faults:            7
                 Voluntary context switches:         1087
