 vasp.5.4.4.18Apr17-6-g9f103f2a35 (build May  1 2020 15:48:39) complex           
 executed on             LinuxGNU date 2020.06.26  16:39:35
 running on   16 total cores
 distrk:  each k-point on   16 cores,    1 groups
 distr:  one band on NCORES_PER_BAND=   1 cores,   16 groups


--------------------------------------------------------------------------------------------------------


 INCAR:
 POTCAR:   PAW_PBE Ni 06Sep2000                   
 POTCAR:   PAW_PBE Ge 05Jan2001                   
 POTCAR:   PAW_PBE Si 05Jan2001                   
 POTCAR:    PAW_PBE S 17Jan2003                   

 ----------------------------------------------------------------------------- 
|                                                                             |
|           W    W    AA    RRRRR   N    N  II  N    N   GGGG   !!!           |
|           W    W   A  A   R    R  NN   N  II  NN   N  G    G  !!!           |
|           W    W  A    A  R    R  N N  N  II  N N  N  G       !!!           |
|           W WW W  AAAAAA  RRRRR   N  N N  II  N  N N  G  GGG   !            |
|           WW  WW  A    A  R   R   N   NN  II  N   NN  G    G                |
|           W    W  A    A  R    R  N    N  II  N    N   GGGG   !!!           |
|                                                                             |
|      For optimal performance we recommend to set                            |
|        NCORE= 4 - approx SQRT( number of cores)                             |
|      NCORE specifies how many cores store one orbital (NPAR=cpu/NCORE).     |
|      This setting can  greatly improve the performance of VASP for DFT.     |
|      The default,   NCORE=1            might be grossly inefficient         |
|      on modern multi-core architectures or massively parallel machines.     |
|      Do your own testing !!!!                                               |
|      Unfortunately you need to use the default for GW and RPA calculations. |
|      (for HF NCORE is supported but not extensively tested yet)             |
|                                                                             |
 ----------------------------------------------------------------------------- 


 ----------------------------------------------------------------------------- 
|                                                                             |
|  ADVICE TO THIS USER RUNNING 'VASP/VAMP'   (HEAR YOUR MASTER'S VOICE ...):  |
|                                                                             |
|      You have switched on vdW-DFT.                                          |
|      This routine was written and supplied by Jiri Klimes.                  |
|      We recommed that you carefully read and cite the following             |
|      publication                                                            |
|      J. Klimes, D.R. Bowler, A. Michelides                                  |
|        J. Phys.: Cond Matt. 22 022201 (2010)                                |
|      J. Klimes, D.R. Bowler, A. Michelides                                  |
|        Phys. Rev. B. 83, 195131 (2011)                                      |
|      and references therein.                                                |
|                                                                             |
 ----------------------------------------------------------------------------- 

 POTCAR:   PAW_PBE Ni 06Sep2000                   
   VRHFIN =Ni:                                                                  
   LEXCH  = PE                                                                  
   EATOM  =  1077.9025 eV,   79.2236 Ry                                         
                                                                                
   TITEL  = PAW_PBE Ni 06Sep2000                                                
   LULTRA =        F    use ultrasoft PP ?                                      
   IUNSCR =        1    unscreen: 0-lin 1-nonlin 2-no                           
   RPACOR =    2.000    partial core radius                                     
   POMASS =   58.690; ZVAL   =   10.000    mass and valenz                      
   RCORE  =    2.300    outmost cutoff radius                                   
   RWIGS  =    2.430; RWIGS  =    1.286    wigner-seitz radius (au A)           
   ENMAX  =  269.533; ENMIN  =  202.150 eV                                      
   RCLOC  =    1.681    cutoff for local pot                                    
   LCOR   =        T    correct aug charges                                     
   LPAW   =        T    paw PP                                                  
   EAUG   =  544.565                                                            
   DEXC   =    -.009                                                            
   RMAX   =    2.808    core radius for proj-oper                               
   RAUG   =    1.300    factor for augmentation sphere                          
   RDEP   =    2.390    radius for radial grids                                 
   QCUT   =   -4.451; QGAM   =    8.902    optimization parameters              
                                                                                
   Description                                                                  
     l     E      TYP  RCUT    TYP  RCUT                                        
     2   .000     23  2.300                                                     
     2   .000     23  2.300                                                     
     0   .000     23  2.300                                                     
     0   .000     23  2.300                                                     
     1  -.200     23  2.300                                                     
     1   .000     23  2.300                                                     
     3   .000      7   .000                                                     
  local pseudopotential read in
  partial core-charges read in
  atomic valenz-charges read in
  non local Contribution for L=           2  read in
    real space projection operators read in
  non local Contribution for L=           2  read in
    real space projection operators read in
  non local Contribution for L=           0  read in
    real space projection operators read in
  non local Contribution for L=           0  read in
    real space projection operators read in
  non local Contribution for L=           1  read in
    real space projection operators read in
  non local Contribution for L=           1  read in
    real space projection operators read in
    PAW grid and wavefunctions read in

   number of l-projection  operators is LMAX  =           6
   number of lm-projection operators is LMMAX =          18

 POTCAR:   PAW_PBE Ge 05Jan2001                   
   VRHFIN =Ge: s2p2                                                             
   LEXCH  = PE                                                                  
   EATOM  =   104.9960 eV,    7.7170 Ry                                         
                                                                                
   TITEL  = PAW_PBE Ge 05Jan2001                                                
   LULTRA =        F    use ultrasoft PP ?                                      
   IUNSCR =        1    unscreen: 0-lin 1-nonlin 2-no                           
   RPACOR =    2.170    partial core radius                                     
   POMASS =   72.610; ZVAL   =    4.000    mass and valenz                      
   RCORE  =    2.300    outmost cutoff radius                                   
   RWIGS  =    2.300; RWIGS  =    1.217    wigner-seitz radius (au A)           
   ENMAX  =  173.807; ENMIN  =  130.355 eV                                      
   ICORE  =        3    local potential                                         
   LCOR   =        T    correct aug charges                                     
   LPAW   =        T    paw PP                                                  
   EAUG   =  385.843                                                            
   DEXC   =    -.138                                                            
   RMAX   =    3.497    core radius for proj-oper                               
   RAUG   =    1.300    factor for augmentation sphere                          
   RDEP   =    2.318    radius for radial grids                                 
   QCUT   =   -3.574; QGAM   =    7.148    optimization parameters              
                                                                                
   Description                                                                  
     l     E      TYP  RCUT    TYP  RCUT                                        
     0   .000     23  2.300                                                     
     0   .000     23  2.300                                                     
     1   .000     23  2.300                                                     
     1   .000     23  2.300                                                     
     2   .000     23  2.300                                                     
     3  -.100      7  2.300                                                     
  local pseudopotential read in
  partial core-charges read in
  atomic valenz-charges read in
  non local Contribution for L=           0  read in
    real space projection operators read in
  non local Contribution for L=           0  read in
    real space projection operators read in
  non local Contribution for L=           1  read in
    real space projection operators read in
  non local Contribution for L=           1  read in
    real space projection operators read in
  non local Contribution for L=           2  read in
    real space projection operators read in
    PAW grid and wavefunctions read in

   number of l-projection  operators is LMAX  =           5
   number of lm-projection operators is LMMAX =          13

 POTCAR:   PAW_PBE Si 05Jan2001                   
   VRHFIN =Si: s2p2                                                             
   LEXCH  = PE                                                                  
   EATOM  =   103.0669 eV,    7.5752 Ry                                         
                                                                                
   TITEL  = PAW_PBE Si 05Jan2001                                                
   LULTRA =        F    use ultrasoft PP ?                                      
   IUNSCR =        1    unscreen: 0-lin 1-nonlin 2-no                           
   RPACOR =    1.500    partial core radius                                     
   POMASS =   28.085; ZVAL   =    4.000    mass and valenz                      
   RCORE  =    1.900    outmost cutoff radius                                   
   RWIGS  =    2.480; RWIGS  =    1.312    wigner-seitz radius (au A)           
   ENMAX  =  245.345; ENMIN  =  184.009 eV                                      
   ICORE  =        2    local potential                                         
   LCOR   =        T    correct aug charges                                     
   LPAW   =        T    paw PP                                                  
   EAUG   =  322.069                                                            
   DEXC   =    -.007                                                            
   RMAX   =    2.944    core radius for proj-oper                               
   RAUG   =    1.300    factor for augmentation sphere                          
   RDEP   =    1.993    radius for radial grids                                 
   QCUT   =   -4.246; QGAM   =    8.493    optimization parameters              
                                                                                
   Description                                                                  
     l     E      TYP  RCUT    TYP  RCUT                                        
     0   .000     23  1.900                                                     
     0   .000     23  1.900                                                     
     1   .000     23  1.900                                                     
     1   .000     23  1.900                                                     
     2   .000      7  1.900                                                     
  local pseudopotential read in
  partial core-charges read in
  atomic valenz-charges read in
  non local Contribution for L=           0  read in
    real space projection operators read in
  non local Contribution for L=           0  read in
    real space projection operators read in
  non local Contribution for L=           1  read in
    real space projection operators read in
  non local Contribution for L=           1  read in
    real space projection operators read in
    PAW grid and wavefunctions read in

   number of l-projection  operators is LMAX  =           4
   number of lm-projection operators is LMMAX =           8

 POTCAR:    PAW_PBE S 17Jan2003                   
   VRHFIN =S : s2p4                                                             
   LEXCH  = PE                                                                  
   EATOM  =   276.8230 eV,   20.3459 Ry                                         
                                                                                
   TITEL  = PAW_PBE S 17Jan2003                                                 
   LULTRA =        F    use ultrasoft PP ?                                      
   IUNSCR =        1    unscreen: 0-lin 1-nonlin 2-no                           
   RPACOR =    1.500    partial core radius                                     
   POMASS =   32.066; ZVAL   =    6.000    mass and valenz                      
   RCORE  =    1.900    outmost cutoff radius                                   
   RWIGS  =    2.200; RWIGS  =    1.164    wigner-seitz radius (au A)           
   ENMAX  =  280.000; ENMIN  =  194.016 eV                                      
   ICORE  =        2    local potential                                         
   LCOR   =        T    correct aug charges                                     
   LPAW   =        T    paw PP                                                  
   EAUG   =  335.092                                                            
   DEXC   =     .000                                                            
   RMAX   =    2.867    core radius for proj-oper                               
   RAUG   =    1.300    factor for augmentation sphere                          
   RDEP   =    1.954    radius for radial grids                                 
   QCUT   =   -4.360; QGAM   =    8.721    optimization parameters              
                                                                                
   Description                                                                  
     l     E      TYP  RCUT    TYP  RCUT                                        
     0   .000     23  1.900                                                     
     0   .000     23  1.900                                                     
     1   .000     23  1.900                                                     
     1   .000     23  1.900                                                     
     2   .000     23  1.900                                                     
  local pseudopotential read in
  partial core-charges read in
  atomic valenz-charges read in
  non local Contribution for L=           0  read in
    real space projection operators read in
  non local Contribution for L=           0  read in
    real space projection operators read in
  non local Contribution for L=           1  read in
    real space projection operators read in
  non local Contribution for L=           1  read in
    real space projection operators read in
    PAW grid and wavefunctions read in

   number of l-projection  operators is LMAX  =           4
   number of lm-projection operators is LMMAX =           8

 Optimization of the real space projectors (new method)

 maximal supplied QI-value         = 16.25
 optimisation between [QCUT,QGAM] = [ 11.54, 23.24] = [ 37.28,151.24] Ry 
 Optimized for a Real-space Cutoff    1.49 Angstroem

   l    n(q)    QCUT    max X(q) W(low)/X(q) W(high)/X(q)  e(spline) 
   2      9    11.539     4.811    0.20E-04    0.14E-04    0.45E-07
   2      9    11.539    15.146    0.24E-03    0.12E-03    0.20E-06
   0     10    11.539    14.357    0.18E-04    0.12E-05    0.14E-07
   0     10    11.539    43.282    0.39E-04    0.17E-04    0.23E-06
   1     10    11.539     5.514    0.99E-05    0.13E-04    0.19E-07
   1     10    11.539     7.697    0.38E-04    0.79E-04    0.91E-07
 Optimization of the real space projectors (new method)

 maximal supplied QI-value         = 16.25
 optimisation between [QCUT,QGAM] = [ 11.54, 23.24] = [ 37.28,151.24] Ry 
 Optimized for a Real-space Cutoff    1.28 Angstroem

   l    n(q)    QCUT    max X(q) W(low)/X(q) W(high)/X(q)  e(spline) 
   0      9    11.539     8.651    0.22E-04    0.16E-04    0.10E-07
   0      9    11.539    33.192    0.11E-03    0.16E-03    0.65E-07
   1      8    11.539     5.899    0.37E-04    0.28E-04    0.43E-07
   1      8    11.539    27.289    0.22E-03    0.28E-04    0.14E-06
   2      8    11.539     4.673    0.11E-03    0.18E-03    0.58E-07
 Optimization of the real space projectors (new method)

 maximal supplied QI-value         = 19.84
 optimisation between [QCUT,QGAM] = [ 11.51, 23.22] = [ 37.09,150.92] Ry 
 Optimized for a Real-space Cutoff    1.21 Angstroem

   l    n(q)    QCUT    max X(q) W(low)/X(q) W(high)/X(q)  e(spline) 
   0      8    11.508     8.708    0.18E-04    0.44E-05    0.47E-08
   0      8    11.508   106.241    0.70E-04    0.15E-03    0.51E-07
   1      8    11.508     5.901    0.63E-05    0.23E-04    0.21E-07
   1      8    11.508    73.241    0.15E-03    0.36E-04    0.79E-07
 Optimization of the real space projectors (new method)

 maximal supplied QI-value         = 19.84
 optimisation between [QCUT,QGAM] = [ 11.51, 23.22] = [ 37.09,150.92] Ry 
 Optimized for a Real-space Cutoff    1.21 Angstroem

   l    n(q)    QCUT    max X(q) W(low)/X(q) W(high)/X(q)  e(spline) 
   0      8    11.508     5.487    0.18E-04    0.22E-05    0.47E-08
   0      8    11.508    85.627    0.96E-04    0.18E-03    0.54E-07
   1      8    11.508     3.530    0.17E-04    0.28E-04    0.21E-07
   1      8    11.508    42.714    0.18E-03    0.63E-04    0.92E-07

 ----------------------------------------------------------------------------- 
|                                                                             |
|  ADVICE TO THIS USER RUNNING 'VASP/VAMP'   (HEAR YOUR MASTER'S VOICE ...):  |
|                                                                             |
|      You enforced a specific xc-type in the INCAR file,                     |
|      a different type was found on the POTCAR file                          |
|          I HOPE YOU KNOW, WHAT YOU ARE  DOING                               |
|                                                                             |
 ----------------------------------------------------------------------------- 

 PAW_PBE Ni 06Sep2000                   :
 energy of atom  1       EATOM=-1077.9025
 kinetic energy error for atom=    0.0030 (will be added to EATOM!!)
 PAW_PBE Ge 05Jan2001                   :
 energy of atom  2       EATOM= -104.9960
 kinetic energy error for atom=    0.0002 (will be added to EATOM!!)
 PAW_PBE Si 05Jan2001                   :
 energy of atom  3       EATOM= -103.0669
 kinetic energy error for atom=    0.0005 (will be added to EATOM!!)
  PAW_PBE S 17Jan2003                   :
 energy of atom  4       EATOM= -276.8230
 kinetic energy error for atom=    0.0016 (will be added to EATOM!!)


 POSCAR: Ni2 Ge Si S6                            
  positions in direct lattice
  velocities in cartesian coordinates
  No initial velocities read in
 exchange correlation table for  LEXCH =       42
   RHO(1)=    0.500       N(1)  =     2000
   RHO(2)=  100.500       N(2)  =     4000



--------------------------------------------------------------------------------------------------------


 ion  position               nearest neighbor table
   1  0.333  0.333  0.500-   6 2.78   5 2.78   7 2.78   8 2.78  10 2.78   9 2.78
   2  0.667  0.667  0.500-   9 2.78   8 2.78  10 2.78   5 2.78   7 2.78   6 2.78
   3  0.000  0.000  0.448-   4 2.43   8 2.63  10 2.63   9 2.63
   4  0.000  0.000  0.552-   3 2.43   5 2.63   7 2.63   6 2.63
   5  0.626  0.000  0.574-   4 2.63   1 2.78   2 2.78
   6  0.000  0.373  0.574-   4 2.63   1 2.78   2 2.78
   7  0.373  0.626  0.574-   4 2.63   1 2.78   2 2.78
   8  0.374  1.000  0.426-   3 2.63   2 2.78   1 2.78
   9  1.000  0.627  0.426-   3 2.63   2 2.78   1 2.78
  10  0.627  0.374  0.426-   3 2.63   2 2.78   1 2.78

  LATTYP: Found a hexagonal cell.
 ALAT       =     6.9077769333
 C/A-ratio  =     3.3939410937
  
  Lattice vectors:
  
 A1 = (   3.4538890000,  -5.9823100000,   0.0000000000)
 A2 = (  -6.9077770000,   0.0000000000,   0.0000000000)
 A3 = (   0.0000000000,   0.0000000000, -23.4445880000)


Analysis of symmetry for initial positions (statically):
=====================================================================
 Subroutine PRICEL returns:
 Original cell was already a primitive cell.
 

 Routine SETGRP: Setting up the symmetry group for a 
 hexagonal supercell.


 Subroutine GETGRP returns: Found  3 space group operations
 (whereof  3 operations were pure point group operations)
 out of a pool of 24 trial point group operations.


The static configuration has the point symmetry C_3 .


Analysis of symmetry for dynamics (positions and initial velocities):
=====================================================================
 Subroutine PRICEL returns:
 Original cell was already a primitive cell.
 

 Routine SETGRP: Setting up the symmetry group for a 
 hexagonal supercell.


 Subroutine GETGRP returns: Found  3 space group operations
 (whereof  3 operations were pure point group operations)
 out of a pool of 24 trial point group operations.


The dynamic configuration has the point symmetry C_3 .


Analysis of constrained symmetry for selective dynamics:
=====================================================================
 Subroutine PRICEL returns:
 Original cell was already a primitive cell.
 

 Routine SETGRP: Setting up the symmetry group for a 
 hexagonal supercell.


 Subroutine GETGRP returns: Found  3 space group operations
 (whereof  3 operations were pure point group operations)
 out of a pool of 24 trial point group operations.


The constrained configuration has the point symmetry C_3 .


Analysis of structural, dynamic, and magnetic symmetry:
=====================================================================
 Subroutine PRICEL returns:
 Original cell was already a primitive cell.
 

 Routine SETGRP: Setting up the symmetry group for a 
 hexagonal supercell.


 Subroutine GETGRP returns: Found  3 space group operations
 (whereof  3 operations were pure point group operations)
 out of a pool of 24 trial point group operations.


The magnetic configuration has the point symmetry C_3 .


 Subroutine INISYM returns: Found  3 space group operations
 (whereof  3 operations are pure point group operations),
 and found     1 'primitive' translations



 KPOINTS: Kpoints from vasprun.xml                

Automatic generation of k-mesh.
Space group operators:
 irot       det(A)        alpha          n_x          n_y          n_z        tau_x        tau_y        tau_z
    1     1.000000     0.000000     1.000000     0.000000     0.000000     0.000000     0.000000     0.000000
    2     1.000000   120.000000     0.000000     0.000000     1.000000     0.000000     0.000000     0.000000
    3     1.000000   120.000000     0.000000     0.000000    -1.000000     0.000000     0.000000     0.000000
 
 Subroutine IBZKPT returns following result:
 ===========================================
 
 Found      5 irreducible k-points:
 
 Following reciprocal coordinates:
            Coordinates               Weight
  0.000000  0.000000  0.000000      1.000000
  0.200000  0.000000  0.000000      6.000000
  0.400000  0.000000  0.000000      6.000000
  0.400000  0.200000  0.000000      6.000000
 -0.400000  0.200000  0.000000      6.000000
 
 Following cartesian coordinates:
            Coordinates               Weight
  0.000000  0.000000  0.000000      1.000000
  0.028953 -0.016716  0.000000      6.000000
  0.057906 -0.033432  0.000000      6.000000
  0.057906  0.000000  0.000000      6.000000
 -0.057906  0.066864  0.000000      6.000000
 
 TETIRR: Found     15 inequivalent tetrahedra from      150


--------------------------------------------------------------------------------------------------------




 Dimension of arrays:
   k-points           NKPTS =      5   k-points in BZ     NKDIM =      5   number of bands    NBANDS=     48
   number of dos      NEDOS =    301   number of ions     NIONS =     10
   non local maximal  LDIM  =      6   non local SUM 2l+1 LMDIM =     18
   total plane-waves  NPLWV = 524880
   max r-space proj   IRMAX =   7543   max aug-charges    IRDMAX=  29641
   dimension x,y,z NGX =    54 NGY =   54 NGZ =  180
   dimension x,y,z NGXF=   108 NGYF=  108 NGZF=  360
   support grid    NGXF=   108 NGYF=  108 NGZF=  360
   ions per type =               2   1   1   6
   NGX,Y,Z   is equivalent  to a cutoff of  13.00, 13.00, 12.76 a.u.
   NGXF,Y,Z  is equivalent  to a cutoff of  25.99, 25.99, 25.53 a.u.

 SYSTEM =  unknown system                          
 POSCAR =  Ni2 Ge Si S6                            

 Startparameter for this run:
   NWRITE =      2    write-flag & timer
   PREC   = accura    normal or accurate (medium, high low for compatibility)
   ISTART =      0    job   : 0-new  1-cont  2-samecut
   ICHARG =      2    charge: 1-file 2-atom 10-const
   ISPIN  =      2    spin polarized calculation?
   LNONCOLLINEAR =      F non collinear calculations
   LSORBIT =      F    spin-orbit coupling
   INIWAV =      1    electr: 0-lowe 1-rand  2-diag
   LASPH  =      F    aspherical Exc in radial PAW
   METAGGA=      F    non-selfconsistent MetaGGA calc.

 Electronic Relaxation 1
   ENCUT  =  520.0 eV  38.22 Ry    6.18 a.u.  12.84 12.84 43.59*2*pi/ulx,y,z
   ENINI  =  520.0     initial cutoff
   ENAUG  =  544.6 eV  augmentation charge cutoff
   NELM   =    400;   NELMIN=  2; NELMDL=  0     # of ELM steps 
   EDIFF  = 0.1E-03   stopping-criterion for ELM
   LREAL  =      T    real-space projection
   NLSPLINE    = F    spline interpolate recip. space projectors
   LCOMPAT=      F    compatible to vasp.4.4
   GGA_COMPAT  = T    GGA compatible to vasp.4.4-vasp.4.6
   LMAXPAW     = -100 max onsite density
   LMAXMIX     =    2 max onsite mixed and CHGCAR
   VOSKOWN=      0    Vosko Wilk Nusair interpolation
   ROPT   =   -0.00025  -0.00025  -0.00025  -0.00025
 Ionic relaxation
   EDIFFG = 0.1E-02   stopping-criterion for IOM
   NSW    =     99    number of steps for IOM
   NBLOCK =      1;   KBLOCK =     99    inner block; outer block 
   IBRION =      2    ionic relax: 0-MD 1-quasi-New 2-CG
   NFREE  =      1    steps in history (QN), initial steepest desc. (CG)
   ISIF   =      3    stress and relaxation
   IWAVPR =     11    prediction:  0-non 1-charg 2-wave 3-comb
   ISYM   =      2    0-nonsym 1-usesym 2-fastsym
   LCORR  =      T    Harris-Foulkes like correction to forces

   POTIM  = 0.5000    time-step for ionic-motion
   TEIN   =    0.0    initial temperature
   TEBEG  =    0.0;   TEEND  =   0.0 temperature during run
   SMASS  =  -3.00    Nose mass-parameter (am)
   estimated Nose-frequenzy (Omega)   =  0.10E-29 period in steps =****** mass=  -0.109E-26a.u.
   SCALEE = 1.0000    scale energy and forces
   NPACO  =    256;   APACO  = 16.0  distance and # of slots for P.C.
   PSTRESS=    0.0 pullay stress

  Mass of Ions in am
   POMASS =  58.69 72.61 28.09 32.07
  Ionic Valenz
   ZVAL   =  10.00  4.00  4.00  6.00
  Atomic Wigner-Seitz radii
   RWIGS  =  -1.00 -1.00 -1.00 -1.00
  virtual crystal weights 
   VCA    =   1.00  1.00  1.00  1.00
   NELECT =      64.0000    total number of electrons
   NUPDOWN=      -1.0000    fix difference up-down

 DOS related values:
   EMIN   =  10.00;   EMAX   =-10.00  energy-range for DOS
   EFERMI =   0.00
   ISMEAR =    -5;   SIGMA  =   0.05  broadening in eV -4-tet -1-fermi 0-gaus

 Electronic relaxation 2 (details)
   IALGO  =     38    algorithm
   LDIAG  =      T    sub-space diagonalisation (order eigenvalues)
   LSUBROT=      F    optimize rotation matrix (better conditioning)
   TURBO    =      0    0=normal 1=particle mesh
   IRESTART =      0    0=no restart 2=restart with 2 vectors
   NREBOOT  =      0    no. of reboots
   NMIN     =      0    reboot dimension
   EREF     =   0.00    reference energy to select bands
   IMIX   =      4    mixing-type and parameters
     AMIX     =   0.40;   BMIX     =  1.00
     AMIX_MAG =   1.60;   BMIX_MAG =  1.00
     AMIN     =   0.01
     WC   =   100.;   INIMIX=   1;  MIXPRE=   1;  MAXMIX= -45

 Intra band minimization:
   WEIMIN = 0.0010     energy-eigenvalue tresh-hold
   EBREAK =  0.52E-06  absolut break condition
   DEPER  =   0.30     relativ break condition  

   TIME   =   0.40     timestep for ELM

  volume/ion in A,a.u.               =      96.88       653.80
  Fermi-wavevector in a.u.,A,eV,Ry     =   0.661787  1.250596  5.958835  0.437962
  Thomas-Fermi vector in A             =   1.734655

 Write flags
   LWAVE        =      F    write WAVECAR
   LDOWNSAMPLE  =      F    k-point downsampling of WAVECAR
   LCHARG       =      T    write CHGCAR
   LVTOT        =      F    write LOCPOT, total local potential
   LVHAR        =      F    write LOCPOT, Hartree potential only
   LELF         =      F    write electronic localiz. function (ELF)
   LORBIT       =     11    0 simple, 1 ext, 2 COOP (PROOUT), +10 PAW based schemes


 Dipole corrections
   LMONO  =      F    monopole corrections only (constant potential shift)
   LDIPOL =      F    correct potential (dipole corrections)
   IDIPOL =      0    1-x, 2-y, 3-z, 4-all directions 
   EPSILON=  1.0000000 bulk dielectric constant

 Exchange correlation treatment:
   GGA     =    BO    GGA type
   LEXCH   =    42    internal setting for exchange type
   VOSKOWN=      0    Vosko Wilk Nusair interpolation
   LHFCALC =     F    Hartree Fock is set to
   LHFONE  =     F    Hartree Fock one center treatment
   AEXX    =    0.0000 exact exchange contribution

 vdW DFT:
   LUSE_VDW   =     T    switch on vdW DFT
   Zab_VDW    =-.8491    correlation parameter
   PARAM1     =0.1833
   PARAM2     =0.2200
   PARAM3     =0.0000
   -- rVV10 --
   BPARAM     = 6.3000
   CPARAM     = 0.0093

 Linear response parameters
   LEPSILON=     F    determine dielectric tensor
   LRPA    =     F    only Hartree local field effects (RPA)
   LNABLA  =     F    use nabla operator in PAW spheres
   LVEL    =     F    velocity operator in full k-point grid
   LINTERFAST=   F  fast interpolation
   KINTER  =     0    interpolate to denser k-point grid
   CSHIFT  =0.1000    complex shift for real part using Kramers Kronig
   OMEGAMAX=  -1.0    maximum frequency
   DEG_THRESHOLD= 0.2000000E-02 threshold for treating states as degnerate
   RTIME   =   -0.100 relaxation time in fs
  (WPLASMAI=    0.000 imaginary part of plasma frequency in eV, 0.658/RTIME)
   DFIELD  = 0.0000000 0.0000000 0.0000000 field for delta impulse in time

 Orbital magnetization related:
   ORBITALMAG=     F  switch on orbital magnetization
   LCHIMAG   =     F  perturbation theory with respect to B field
   DQ        =  0.001000  dq finite difference perturbation B field
   LLRAUG    =     F  two centre corrections for induced B field



--------------------------------------------------------------------------------------------------------


 conjugate gradient relaxation of ions
   using selective dynamics as specified on POSCAR
 charge density and potential will be updated during run
 spin polarized calculation
 Variant of blocked Davidson
 Davidson routine will perform the subspace rotation
 perform sub-space diagonalisation
    after iterative eigenvector-optimisation
 modified Broyden-mixing scheme, WC =      100.0
 initial mixing is a Kerker type mixing with AMIX =  0.4000 and BMIX =      1.0000
 Hartree-type preconditioning will be used
 using additional bands           16
 real space projection scheme for non local part
 use partial core corrections
 calculate Harris-corrections to forces   (improved forces if not selfconsistent)
 use gradient corrections 
 use of overlap-Matrix (Vanderbilt PP)
 Fermi weights with tetrahedron method with Bloechl corrections


--------------------------------------------------------------------------------------------------------


  energy-cutoff  :      520.00
  volume of cell :      968.84
      direct lattice vectors                 reciprocal lattice vectors
     6.907777000 -0.000000000  0.000000000     0.144764372 -0.083579742  0.000000000
     3.453888000  5.982310000  0.000000000     0.000000000  0.167159509 -0.000000000
     0.000000000  0.000000000 23.444588000    -0.000000000  0.000000000  0.042653767

  length of vectors
     6.907777000  6.907776433 23.444588000     0.167159495  0.167159509  0.042653767



 k-points in units of 2pi/SCALE and weight: Kpoints from vasprun.xml                
   0.00000000  0.00000000  0.00000000       0.040
   0.02895287 -0.01671595  0.00000000       0.240
   0.05790575 -0.03343190  0.00000000       0.240
   0.05790575  0.00000000  0.00000000       0.240
  -0.05790575  0.06686380  0.00000000       0.240

 k-points in reciprocal lattice and weights: Kpoints from vasprun.xml                
   0.00000000  0.00000000  0.00000000       0.040
   0.20000000  0.00000000  0.00000000       0.240
   0.40000000  0.00000000  0.00000000       0.240
   0.40000000  0.20000000  0.00000000       0.240
  -0.40000000  0.20000000  0.00000000       0.240

 position of ions in fractional coordinates (direct lattice) 
   0.33333300  0.33333300  0.49992500
   0.66666700  0.66666700  0.50007500
   0.00000000  0.00000000  0.44821600
   0.00000000  0.00000000  0.55178400
   0.62635700  0.00042000  0.57375200
   0.00042000  0.37322400  0.57375200
   0.37322400  0.62635700  0.57375200
   0.37364300  0.99958000  0.42624800
   0.99958000  0.62677600  0.42624800
   0.62677600  0.37364300  0.42624800

 position of ions in cartesian coordinates  (Angst):
   3.45388488  1.99410134 11.72053566
   6.90778012  3.98820866 11.72405234
   0.00000000  0.00000000 10.50823946
   0.00000000  0.00000000 12.93634854
   4.32818511  0.00251257 13.45137925
   1.29197516  2.23274167 13.45137925
   4.74151509  3.74706174 13.45137925
   6.03347989  5.97979743  9.99320875
   9.06968984  3.74956833  9.99320875
   5.62014991  2.23524826  9.99320875



--------------------------------------------------------------------------------------------------------


 k-point  1 :   0.0000 0.0000 0.0000  plane waves:   26073
 k-point  2 :   0.2000 0.0000 0.0000  plane waves:   26070
 k-point  3 :   0.4000 0.0000 0.0000  plane waves:   26086
 k-point  4 :   0.4000 0.2000 0.0000  plane waves:   26085
 k-point  5 :  -0.4000 0.2000 0.0000  plane waves:   26115

 maximum and minimum number of plane-waves per node :     26115    26070

 maximum number of plane-waves:     26115
 maximum index in each direction: 
   IXMAX=   13   IYMAX=   12   IZMAX=   43
   IXMIN=  -13   IYMIN=  -13   IZMIN=  -43


 serial   3D FFT for wavefunctions
 parallel 3D FFT for charge:
    minimum data exchange during FFTs selected (reduces bandwidth)


 total amount of memory used by VASP MPI-rank0   128521. kBytes
=======================================================================

   base      :      30000. kBytes
   nonlr-proj:       6036. kBytes
   fftplans  :      11247. kBytes
   grid      :      68332. kBytes
   one-center:        311. kBytes
   wavefun   :      12595. kBytes

     INWAV:  cpu time    0.0000: real time    0.0005
 Broyden mixing: mesh for mixing (old mesh)
   NGX = 25   NGY = 25   NGZ = 87
  (NGX  =108   NGY  =108   NGZ  =360)
  gives a total of  54375 points

 initial charge density was supplied:
 charge density of overlapping atoms calculated
 number of electron      64.0000000 magnetization       7.3200000
 keeping initial charge density in first step


--------------------------------------------------------------------------------------------------------


 Maximum index for non-local projection operator         7247
 Maximum index for augmentation-charges         2133 (set IRDMAX)


--------------------------------------------------------------------------------------------------------


 First call to EWALD:  gamma=   0.179
 Maximum number of real-space cells 4x 4x 1
 Maximum number of reciprocal cells 2x 2x 6

    FEWALD:  cpu time    0.0040: real time    0.0015


--------------------------------------- Iteration      1(   1)  ---------------------------------------


vdW kernel read from vdw_kernel.bindat
  0.0000  0.2424  0.5071  0.7962  1.1119  1.4567  1.8333  2.2446  2.6937  3.1842
  3.7199  4.3049  4.9438  5.6415  6.4036  7.2358  8.1446  9.1372 10.2212 11.4050
 12.6979 14.1099 15.6519 17.3360 19.1751 21.1837 23.3773 25.7729 28.3892 31.2465
 34.3669 37.7748 41.4965 45.5611 50.0000

    POTLOK:  cpu time   52.7120: real time   52.8868
    SETDIJ:  cpu time    0.0480: real time    0.0459
     EDDAV:  cpu time   22.0520: real time   22.6633
 BZINTS: Fermi energy:  4.424382; 64.000000 electrons
         Band energy: -47.988559;  BLOECHL correction: -0.040281
       DOS:  cpu time    0.0040: real time    0.0049
    --------------------------------------------
      LOOP:  cpu time   74.8160: real time   75.6009

 eigenvalue-minimisations  :   960
 total energy-change (2. order) : 0.4119340E+03  (-0.1964138E+04)
 number of electron      64.0000000 magnetization       7.3200000
 augmentation part       64.0000000 magnetization       7.3200000

 Free energy of the ion-electron system (eV)
  ---------------------------------------------------
  alpha Z        PSCENC =        27.00337869
  Ewald energy   TEWEN  =      8065.03639907
  -Hartree energ DENC   =    -11704.37651216
  -exchange      EXHF   =         0.00000000
  -V(xc)+E(xc)   XCENC  =       109.28507720
  PAW double counting   =      2410.24412492    -2487.53356943
  entropy T*S    EENTRO =         0.00000000
  eigenvalues    EBANDS =       -47.98855937
  atomic energy  EATOM  =      4040.26366069
  Solvation  Ediel_sol  =         0.00000000
  ---------------------------------------------------
  free energy    TOTEN  =       411.93399960 eV

  energy without entropy =      411.93399960  energy(sigma->0) =      411.93399960


--------------------------------------------------------------------------------------------------------




--------------------------------------- Iteration      1(   2)  ---------------------------------------


     EDDAV:  cpu time   32.9800: real time   33.2774
 BZINTS: Fermi energy: -2.277620; 64.000000 electrons
         Band energy:-428.005881;  BLOECHL correction: -0.020830
       DOS:  cpu time    0.0040: real time    0.0049
    --------------------------------------------
      LOOP:  cpu time   32.9840: real time   33.2823

 eigenvalue-minimisations  :  1472
 total energy-change (2. order) :-0.3800173E+03  (-0.3599138E+03)
 number of electron      64.0000000 magnetization       7.3200000
 augmentation part       64.0000000 magnetization       7.3200000

 Free energy of the ion-electron system (eV)
  ---------------------------------------------------
  alpha Z        PSCENC =        27.00337869
  Ewald energy   TEWEN  =      8065.03639907
  -Hartree energ DENC   =    -11704.37651216
  -exchange      EXHF   =         0.00000000
  -V(xc)+E(xc)   XCENC  =       109.28507720
  PAW double counting   =      2410.24412492    -2487.53356943
  entropy T*S    EENTRO =         0.00000000
  eigenvalues    EBANDS =      -428.00588051
  atomic energy  EATOM  =      4040.26366069
  Solvation  Ediel_sol  =         0.00000000
  ---------------------------------------------------
  free energy    TOTEN  =        31.91667847 eV

  energy without entropy =       31.91667847  energy(sigma->0) =       31.91667847


--------------------------------------------------------------------------------------------------------




--------------------------------------- Iteration      1(   3)  ---------------------------------------


     EDDAV:  cpu time   27.7920: real time   27.9774
 BZINTS: Fermi energy: -2.847119; 64.000000 electrons
         Band energy:-500.418218;  BLOECHL correction: -0.009167
       DOS:  cpu time    0.0080: real time    0.0054
    --------------------------------------------
      LOOP:  cpu time   27.8000: real time   27.9828

 eigenvalue-minimisations  :  1216
 total energy-change (2. order) :-0.7241234E+02  (-0.6914572E+02)
 number of electron      64.0000000 magnetization       7.3200000
 augmentation part       64.0000000 magnetization       7.3200000

 Free energy of the ion-electron system (eV)
  ---------------------------------------------------
  alpha Z        PSCENC =        27.00337869
  Ewald energy   TEWEN  =      8065.03639907
  -Hartree energ DENC   =    -11704.37651216
  -exchange      EXHF   =         0.00000000
  -V(xc)+E(xc)   XCENC  =       109.28507720
  PAW double counting   =      2410.24412492    -2487.53356943
  entropy T*S    EENTRO =         0.00000000
  eigenvalues    EBANDS =      -500.41821767
  atomic energy  EATOM  =      4040.26366069
  Solvation  Ediel_sol  =         0.00000000
  ---------------------------------------------------
  free energy    TOTEN  =       -40.49565869 eV

  energy without entropy =      -40.49565869  energy(sigma->0) =      -40.49565869


--------------------------------------------------------------------------------------------------------




--------------------------------------- Iteration      1(   4)  ---------------------------------------


     EDDAV:  cpu time   28.1680: real time   28.3288
 BZINTS: Fermi energy: -2.864029; 64.000000 electrons
         Band energy:-503.341121;  BLOECHL correction: -0.010424
       DOS:  cpu time    0.0040: real time    0.0055
    --------------------------------------------
      LOOP:  cpu time   28.1720: real time   28.3343

 eigenvalue-minimisations  :  1232
 total energy-change (2. order) :-0.2922904E+01  (-0.2897191E+01)
 number of electron      64.0000000 magnetization       7.3200000
 augmentation part       64.0000000 magnetization       7.3200000

 Free energy of the ion-electron system (eV)
  ---------------------------------------------------
  alpha Z        PSCENC =        27.00337869
  Ewald energy   TEWEN  =      8065.03639907
  -Hartree energ DENC   =    -11704.37651216
  -exchange      EXHF   =         0.00000000
  -V(xc)+E(xc)   XCENC  =       109.28507720
  PAW double counting   =      2410.24412492    -2487.53356943
  entropy T*S    EENTRO =         0.00000000
  eigenvalues    EBANDS =      -503.34112124
  atomic energy  EATOM  =      4040.26366069
  Solvation  Ediel_sol  =         0.00000000
  ---------------------------------------------------
  free energy    TOTEN  =       -43.41856226 eV

  energy without entropy =      -43.41856226  energy(sigma->0) =      -43.41856226


--------------------------------------------------------------------------------------------------------




--------------------------------------- Iteration      1(   5)  ---------------------------------------


     EDDAV:  cpu time   28.8240: real time   29.0666
 BZINTS: Fermi energy: -2.864854; 64.000000 electrons
         Band energy:-503.427596;  BLOECHL correction: -0.010383
       DOS:  cpu time    0.0040: real time    0.0057
    CHARGE:  cpu time    2.1040: real time    2.1368
    MIXING:  cpu time    0.0360: real time    0.0408
    --------------------------------------------
      LOOP:  cpu time   30.9680: real time   31.2500

 eigenvalue-minimisations  :  1280
 total energy-change (2. order) :-0.8647509E-01  (-0.8648804E-01)
 number of electron      63.9999995 magnetization       7.4325048
 augmentation part        1.8134890 magnetization       4.6807575

 Broyden mixing:
  rms(total) = 0.44599E+01    rms(broyden)= 0.44598E+01
  rms(prec ) = 0.47371E+01
  weight for this iteration     100.00

 Free energy of the ion-electron system (eV)
  ---------------------------------------------------
  alpha Z        PSCENC =        27.00337869
  Ewald energy   TEWEN  =      8065.03639907
  -Hartree energ DENC   =    -11704.37651216
  -exchange      EXHF   =         0.00000000
  -V(xc)+E(xc)   XCENC  =       109.28507720
  PAW double counting   =      2410.24412492    -2487.53356943
  entropy T*S    EENTRO =         0.00000000
  eigenvalues    EBANDS =      -503.42759633
  atomic energy  EATOM  =      4040.26366069
  Solvation  Ediel_sol  =         0.00000000
  ---------------------------------------------------
  free energy    TOTEN  =       -43.50503735 eV

  energy without entropy =      -43.50503735  energy(sigma->0) =      -43.50503735


--------------------------------------------------------------------------------------------------------




--------------------------------------- Iteration      1(   6)  ---------------------------------------


    POTLOK:  cpu time   51.1520: real time   52.3754
    SETDIJ:  cpu time    0.0440: real time    0.0443
     EDDAV:  cpu time   29.6920: real time   30.5900
 BZINTS: Fermi energy: -4.390018; 64.000000 electrons
         Band energy:-805.575382;  BLOECHL correction: -0.023215
       DOS:  cpu time    0.0080: real time    0.0070
    CHARGE:  cpu time    2.1080: real time    2.1224
    MIXING:  cpu time    0.0560: real time    0.0563
    --------------------------------------------
      LOOP:  cpu time   83.0600: real time   85.1954

 eigenvalue-minimisations  :  1344
 total energy-change (2. order) :-0.5993005E+02  (-0.8117929E+02)
 number of electron      63.9999993 magnetization       7.0894367
 augmentation part       10.8824979 magnetization       7.6179226

 Broyden mixing:
  rms(total) = 0.65490E+01    rms(broyden)= 0.65490E+01
  rms(prec ) = 0.67996E+01
  weight for this iteration     100.00

 eigenvalues of (default mixing * dielectric matrix)
  average eigenvalue GAMMA=   0.3764
  0.3764

 Free energy of the ion-electron system (eV)
  ---------------------------------------------------
  alpha Z        PSCENC =        27.00337869
  Ewald energy   TEWEN  =      8065.03639907
  -Hartree energ DENC   =    -11499.80141058
  -exchange      EXHF   =         0.00000000
  -V(xc)+E(xc)   XCENC  =       111.04031401
  PAW double counting   =      2057.69375181    -2099.09579771
  entropy T*S    EENTRO =         0.00000000
  eigenvalues    EBANDS =      -805.57538187
  atomic energy  EATOM  =      4040.26366069
  Solvation  Ediel_sol  =         0.00000000
  ---------------------------------------------------
  free energy    TOTEN  =      -103.43508588 eV

  energy without entropy =     -103.43508588  energy(sigma->0) =     -103.43508588


--------------------------------------------------------------------------------------------------------




--------------------------------------- Iteration      1(   7)  ---------------------------------------


    POTLOK:  cpu time   51.0800: real time   52.6937
    SETDIJ:  cpu time    0.0400: real time    0.0419
     EDDAV:  cpu time   26.1280: real time   26.5063
 BZINTS: Fermi energy: -4.755139; 64.000000 electrons
         Band energy:-627.840049;  BLOECHL correction: -0.023010
       DOS:  cpu time    0.0080: real time    0.0067
    CHARGE:  cpu time    2.1000: real time    2.1137
    MIXING:  cpu time    0.0400: real time    0.0408
    --------------------------------------------
      LOOP:  cpu time   79.3960: real time   81.4031

 eigenvalue-minimisations  :  1152
 total energy-change (2. order) : 0.5101344E+02  (-0.7170143E+01)
 number of electron      63.9999993 magnetization       6.8994683
 augmentation part        9.9674883 magnetization       5.7255040

 Broyden mixing:
  rms(total) = 0.34589E+01    rms(broyden)= 0.34589E+01
  rms(prec ) = 0.36664E+01
  weight for this iteration     100.00

 eigenvalues of (default mixing * dielectric matrix)
  average eigenvalue GAMMA=   0.4608
  0.4608  0.4608

 Free energy of the ion-electron system (eV)
  ---------------------------------------------------
  alpha Z        PSCENC =        27.00337869
  Ewald energy   TEWEN  =      8065.03639907
  -Hartree energ DENC   =    -11594.53511816
  -exchange      EXHF   =         0.00000000
  -V(xc)+E(xc)   XCENC  =       107.69008019
  PAW double counting   =      2231.33827884    -2301.37827611
  entropy T*S    EENTRO =         0.00000000
  eigenvalues    EBANDS =      -627.84004927
  atomic energy  EATOM  =      4040.26366069
  Solvation  Ediel_sol  =         0.00000000
  ---------------------------------------------------
  free energy    TOTEN  =       -52.42164606 eV

  energy without entropy =      -52.42164606  energy(sigma->0) =      -52.42164606


--------------------------------------------------------------------------------------------------------




--------------------------------------- Iteration      1(   8)  ---------------------------------------


    POTLOK:  cpu time   51.9840: real time   52.2424
    SETDIJ:  cpu time    0.0440: real time    0.0417
     EDDAV:  cpu time   35.2840: real time   35.5557
 BZINTS: Fermi energy: -4.922549; 64.000000 electrons
         Band energy:-627.997247;  BLOECHL correction: -0.012148
       DOS:  cpu time    0.0040: real time    0.0063
    CHARGE:  cpu time    2.0920: real time    2.0951
    MIXING:  cpu time    0.0400: real time    0.0409
    --------------------------------------------
      LOOP:  cpu time   89.4480: real time   89.9821

 eigenvalue-minimisations  :  1584
 total energy-change (2. order) :-0.5204322E+02  (-0.6682178E+02)
 number of electron      63.9999993 magnetization       6.8931165
 augmentation part        8.9095401 magnetization       6.9532654

 Broyden mixing:
  rms(total) = 0.29550E+01    rms(broyden)= 0.29369E+01
  rms(prec ) = 0.30609E+01
  weight for this iteration     100.00

 eigenvalues of (default mixing * dielectric matrix)
  average eigenvalue GAMMA=   0.3089
  0.4603  0.4603  0.0060

 Free energy of the ion-electron system (eV)
  ---------------------------------------------------
  alpha Z        PSCENC =        27.00337869
  Ewald energy   TEWEN  =      8065.03639907
  -Hartree energ DENC   =    -11639.10367271
  -exchange      EXHF   =         0.00000000
  -V(xc)+E(xc)   XCENC  =       108.51522931
  PAW double counting   =      2306.56371831    -2384.74633466
  entropy T*S    EENTRO =         0.00000000
  eigenvalues    EBANDS =      -627.99724732
  atomic energy  EATOM  =      4040.26366069
  Solvation  Ediel_sol  =         0.00000000
  ---------------------------------------------------
  free energy    TOTEN  =      -104.46486861 eV

  energy without entropy =     -104.46486861  energy(sigma->0) =     -104.46486861


--------------------------------------------------------------------------------------------------------




--------------------------------------- Iteration      1(   9)  ---------------------------------------


    POTLOK:  cpu time   50.6960: real time   50.8887
    SETDIJ:  cpu time    0.0400: real time    0.0408
     EDDAV:  cpu time   26.1360: real time   26.2995
 BZINTS: Fermi energy: -4.831952; 64.000000 electrons
         Band energy:-561.495213;  BLOECHL correction: -0.009966
       DOS:  cpu time    0.0080: real time    0.0071
    CHARGE:  cpu time    2.0800: real time    2.1084
    MIXING:  cpu time    0.0520: real time    0.0533
    --------------------------------------------
      LOOP:  cpu time   79.0120: real time   79.3977

 eigenvalue-minimisations  :  1152
 total energy-change (2. order) : 0.6651824E+02  (-0.1026854E+03)
 number of electron      63.9999993 magnetization       6.7206837
 augmentation part        8.8239812 magnetization       5.0901655

 Broyden mixing:
  rms(total) = 0.22730E+01    rms(broyden)= 0.22580E+01
  rms(prec ) = 0.23857E+01
  weight for this iteration     100.00

 eigenvalues of (default mixing * dielectric matrix)
  average eigenvalue GAMMA=   0.4078
  0.5981  0.5981  0.4218  0.0131

 Free energy of the ion-electron system (eV)
  ---------------------------------------------------
  alpha Z        PSCENC =        27.00337869
  Ewald energy   TEWEN  =      8065.03639907
  -Hartree energ DENC   =    -11639.46878397
  -exchange      EXHF   =         0.00000000
  -V(xc)+E(xc)   XCENC  =       108.93560406
  PAW double counting   =      2307.37209385    -2385.59376592
  entropy T*S    EENTRO =         0.00000000
  eigenvalues    EBANDS =      -561.49521338
  atomic energy  EATOM  =      4040.26366069
  Solvation  Ediel_sol  =         0.00000000
  ---------------------------------------------------
  free energy    TOTEN  =       -37.94662690 eV

  energy without entropy =      -37.94662690  energy(sigma->0) =      -37.94662690


--------------------------------------------------------------------------------------------------------




--------------------------------------- Iteration      1(  10)  ---------------------------------------


    POTLOK:  cpu time   50.6720: real time   50.9018
    SETDIJ:  cpu time    0.0440: real time    0.0409
     EDDAV:  cpu time   25.9720: real time   26.2023
 BZINTS: Fermi energy: -4.732112; 64.000000 electrons
         Band energy:-533.052696;  BLOECHL correction: -0.008005
       DOS:  cpu time    0.0040: real time    0.0065
    CHARGE:  cpu time    2.1560: real time    2.1676
    MIXING:  cpu time    0.0440: real time    0.0428
    --------------------------------------------
      LOOP:  cpu time   78.8920: real time   79.3619

 eigenvalue-minimisations  :  1152
 total energy-change (2. order) : 0.2799657E+01  (-0.2954239E+00)
 number of electron      63.9999993 magnetization       6.6656634
 augmentation part        7.4511029 magnetization       5.7405005

 Broyden mixing:
  rms(total) = 0.10438E+01    rms(broyden)= 0.10422E+01
  rms(prec ) = 0.10877E+01
  weight for this iteration     100.00

 eigenvalues of (default mixing * dielectric matrix)
  average eigenvalue GAMMA=   0.3370
  0.6003  0.6003  0.4145  0.0565  0.0133

 Free energy of the ion-electron system (eV)
  ---------------------------------------------------
  alpha Z        PSCENC =        27.00337869
  Ewald energy   TEWEN  =      8065.03639907
  -Hartree energ DENC   =    -11663.74099206
  -exchange      EXHF   =         0.00000000
  -V(xc)+E(xc)   XCENC  =       109.01467810
  PAW double counting   =      2351.07956883    -2430.75096766
  entropy T*S    EENTRO =         0.00000000
  eigenvalues    EBANDS =      -533.05269570
  atomic energy  EATOM  =      4040.26366069
  Solvation  Ediel_sol  =         0.00000000
  ---------------------------------------------------
  free energy    TOTEN  =       -35.14697004 eV

  energy without entropy =      -35.14697004  energy(sigma->0) =      -35.14697004


--------------------------------------------------------------------------------------------------------




--------------------------------------- Iteration      1(  11)  ---------------------------------------


    POTLOK:  cpu time   50.8240: real time   50.9342
    SETDIJ:  cpu time    0.0400: real time    0.0411
     EDDAV:  cpu time   32.5240: real time   32.5804
 BZINTS: Fermi energy: -4.722014; 64.000000 electrons
         Band energy:-530.141420;  BLOECHL correction: -0.008552
       DOS:  cpu time    0.0040: real time    0.0071
    CHARGE:  cpu time    2.1120: real time    2.1361
    MIXING:  cpu time    0.0560: real time    0.0592
    --------------------------------------------
      LOOP:  cpu time   85.5600: real time   85.7582

 eigenvalue-minimisations  :  1472
 total energy-change (2. order) : 0.1040296E+00  (-0.6580912E-01)
 number of electron      63.9999993 magnetization       6.7646709
 augmentation part        7.2085103 magnetization       5.9446520

 Broyden mixing:
  rms(total) = 0.85541E+00    rms(broyden)= 0.85531E+00
  rms(prec ) = 0.88541E+00
  weight for this iteration     100.00

 eigenvalues of (default mixing * dielectric matrix)
  average eigenvalue GAMMA=   0.2891
  0.5995  0.5995  0.4145  0.0538  0.0538  0.0132

 Free energy of the ion-electron system (eV)
  ---------------------------------------------------
  alpha Z        PSCENC =        27.00337869
  Ewald energy   TEWEN  =      8065.03639907
  -Hartree energ DENC   =    -11666.44416312
  -exchange      EXHF   =         0.00000000
  -V(xc)+E(xc)   XCENC  =       109.02016020
  PAW double counting   =      2356.10344389    -2435.88439971
  entropy T*S    EENTRO =         0.00000000
  eigenvalues    EBANDS =      -530.14142011
  atomic energy  EATOM  =      4040.26366069
  Solvation  Ediel_sol  =         0.00000000
  ---------------------------------------------------
  free energy    TOTEN  =       -35.04294039 eV

  energy without entropy =      -35.04294039  energy(sigma->0) =      -35.04294039


--------------------------------------------------------------------------------------------------------




--------------------------------------- Iteration      1(  12)  ---------------------------------------


    POTLOK:  cpu time   50.6040: real time   50.8998
    SETDIJ:  cpu time    0.0400: real time    0.0403
     EDDAV:  cpu time   32.2400: real time   32.3891
 BZINTS: Fermi energy: -4.675218; 64.000000 electrons
         Band energy:-525.137808;  BLOECHL correction: -0.009061
       DOS:  cpu time    0.0080: real time    0.0072
    CHARGE:  cpu time    2.1240: real time    2.1332
    MIXING:  cpu time    0.0440: real time    0.0441
    --------------------------------------------
      LOOP:  cpu time   85.0600: real time   85.5136

 eigenvalue-minimisations  :  1456
 total energy-change (2. order) : 0.2030407E+00  (-0.1892233E-01)
 number of electron      63.9999992 magnetization       6.1810355
 augmentation part        6.7691126 magnetization       5.4027681

 Broyden mixing:
  rms(total) = 0.68435E+00    rms(broyden)= 0.68431E+00
  rms(prec ) = 0.69476E+00
  weight for this iteration     100.00

 eigenvalues of (default mixing * dielectric matrix)
  average eigenvalue GAMMA=   0.5384
  0.8334  0.8334  0.6439  0.6439  0.4684  0.3326  0.0132

 Free energy of the ion-electron system (eV)
  ---------------------------------------------------
  alpha Z        PSCENC =        27.00337869
  Ewald energy   TEWEN  =      8065.03639907
  -Hartree energ DENC   =    -11670.99744442
  -exchange      EXHF   =         0.00000000
  -V(xc)+E(xc)   XCENC  =       109.18477847
  PAW double counting   =      2365.23686157    -2445.42972529
  entropy T*S    EENTRO =         0.00000000
  eigenvalues    EBANDS =      -525.13780845
  atomic energy  EATOM  =      4040.26366069
  Solvation  Ediel_sol  =         0.00000000
  ---------------------------------------------------
  free energy    TOTEN  =       -34.83989967 eV

  energy without entropy =      -34.83989967  energy(sigma->0) =      -34.83989967


--------------------------------------------------------------------------------------------------------




--------------------------------------- Iteration      1(  13)  ---------------------------------------


    POTLOK:  cpu time   50.9560: real time   51.0428
    SETDIJ:  cpu time    0.0720: real time    0.0703
     EDDAV:  cpu time   30.8840: real time   30.9338
 BZINTS: Fermi energy: -4.559034; 64.000000 electrons
         Band energy:-520.220491;  BLOECHL correction: -0.008923
       DOS:  cpu time    0.0040: real time    0.0067
    CHARGE:  cpu time    2.1640: real time    2.1676
    MIXING:  cpu time    0.0440: real time    0.0450
    --------------------------------------------
      LOOP:  cpu time   84.1240: real time   84.2663

 eigenvalue-minimisations  :  1392
 total energy-change (2. order) :-0.6502305E-01  (-0.2196331E-01)
 number of electron      63.9999992 magnetization       5.2198786
 augmentation part        6.4153670 magnetization       4.5058183

 Broyden mixing:
  rms(total) = 0.47077E+00    rms(broyden)= 0.47072E+00
  rms(prec ) = 0.48068E+00
  weight for this iteration     100.00

 eigenvalues of (default mixing * dielectric matrix)
  average eigenvalue GAMMA=   0.6712
  1.4196  1.4196  0.5940  0.5940  0.5030  0.5030  0.3234  0.0132

 Free energy of the ion-electron system (eV)
  ---------------------------------------------------
  alpha Z        PSCENC =        27.00337869
  Ewald energy   TEWEN  =      8065.03639907
  -Hartree energ DENC   =    -11677.25041516
  -exchange      EXHF   =         0.00000000
  -V(xc)+E(xc)   XCENC  =       109.15291481
  PAW double counting   =      2373.90346068    -2452.79383063
  entropy T*S    EENTRO =         0.00000000
  eigenvalues    EBANDS =      -520.22049088
  atomic energy  EATOM  =      4040.26366069
  Solvation  Ediel_sol  =         0.00000000
  ---------------------------------------------------
  free energy    TOTEN  =       -34.90492272 eV

  energy without entropy =      -34.90492272  energy(sigma->0) =      -34.90492272


--------------------------------------------------------------------------------------------------------




--------------------------------------- Iteration      1(  14)  ---------------------------------------


    POTLOK:  cpu time   50.9000: real time   51.0143
    SETDIJ:  cpu time    0.0400: real time    0.0417
     EDDAV:  cpu time   25.7920: real time   25.8305
 BZINTS: Fermi energy: -4.547744; 64.000000 electrons
         Band energy:-522.112021;  BLOECHL correction: -0.008581
       DOS:  cpu time    0.0040: real time    0.0074
    CHARGE:  cpu time    2.1280: real time    2.1280
    MIXING:  cpu time    0.0440: real time    0.0457
    --------------------------------------------
      LOOP:  cpu time   78.9080: real time   79.0675

 eigenvalue-minimisations  :  1136
 total energy-change (2. order) :-0.1906689E+00  (-0.3438021E-01)
 number of electron      63.9999992 magnetization       4.4092698
 augmentation part        6.7759057 magnetization       3.7680663

 Broyden mixing:
  rms(total) = 0.31058E+00    rms(broyden)= 0.31057E+00
  rms(prec ) = 0.31501E+00
  weight for this iteration     100.00

 eigenvalues of (default mixing * dielectric matrix)
  average eigenvalue GAMMA=   0.7838
  1.8331  1.8331  0.5961  0.5961  0.6842  0.6842  0.4850  0.3287  0.0132

 Free energy of the ion-electron system (eV)
  ---------------------------------------------------
  alpha Z        PSCENC =        27.00337869
  Ewald energy   TEWEN  =      8065.03639907
  -Hartree energ DENC   =    -11677.27043936
  -exchange      EXHF   =         0.00000000
  -V(xc)+E(xc)   XCENC  =       108.99359909
  PAW double counting   =      2370.37909517    -2447.38926393
  entropy T*S    EENTRO =         0.00000000
  eigenvalues    EBANDS =      -522.11202100
  atomic energy  EATOM  =      4040.26366069
  Solvation  Ediel_sol  =         0.00000000
  ---------------------------------------------------
  free energy    TOTEN  =       -35.09559157 eV

  energy without entropy =      -35.09559157  energy(sigma->0) =      -35.09559157


--------------------------------------------------------------------------------------------------------




--------------------------------------- Iteration      1(  15)  ---------------------------------------


    POTLOK:  cpu time   50.8880: real time   50.9754
    SETDIJ:  cpu time    0.0400: real time    0.0416
     EDDAV:  cpu time   28.4320: real time   28.5544
 BZINTS: Fermi energy: -4.424091; 64.000000 electrons
         Band energy:-516.828394;  BLOECHL correction: -0.007838
       DOS:  cpu time    0.0040: real time    0.0070
    CHARGE:  cpu time    2.1080: real time    2.1129
    MIXING:  cpu time    0.0480: real time    0.0501
    --------------------------------------------
      LOOP:  cpu time   81.5200: real time   81.7414

 eigenvalue-minimisations  :  1264
 total energy-change (2. order) :-0.1634858E+00  (-0.2153201E-01)
 number of electron      63.9999992 magnetization       3.6881101
 augmentation part        6.4197796 magnetization       3.1593692

 Broyden mixing:
  rms(total) = 0.23186E+00    rms(broyden)= 0.23177E+00
  rms(prec ) = 0.24681E+00
  weight for this iteration     100.00

 eigenvalues of (default mixing * dielectric matrix)
  average eigenvalue GAMMA=   0.8818
  2.2498  2.2498  0.8534  0.8534  0.5948  0.5948  0.5799  0.5004  0.3281  0.0132

 Free energy of the ion-electron system (eV)
  ---------------------------------------------------
  alpha Z        PSCENC =        27.00337869
  Ewald energy   TEWEN  =      8065.03639907
  -Hartree energ DENC   =    -11682.86600132
  -exchange      EXHF   =         0.00000000
  -V(xc)+E(xc)   XCENC  =       109.11927462
  PAW double counting   =      2378.28751579    -2455.27491070
  entropy T*S    EENTRO =         0.00000000
  eigenvalues    EBANDS =      -516.82839425
  atomic energy  EATOM  =      4040.26366069
  Solvation  Ediel_sol  =         0.00000000
  ---------------------------------------------------
  free energy    TOTEN  =       -35.25907739 eV

  energy without entropy =      -35.25907739  energy(sigma->0) =      -35.25907739


--------------------------------------------------------------------------------------------------------




--------------------------------------- Iteration      1(  16)  ---------------------------------------


    POTLOK:  cpu time   50.6640: real time   50.9412
    SETDIJ:  cpu time    0.0440: real time    0.0456
     EDDAV:  cpu time   35.1960: real time   35.4393
 BZINTS: Fermi energy: -4.430577; 64.000000 electrons
         Band energy:-529.121666;  BLOECHL correction: -0.002992
       DOS:  cpu time    0.0040: real time    0.0069
    CHARGE:  cpu time    2.1240: real time    2.1229
    MIXING:  cpu time    0.0520: real time    0.0539
    --------------------------------------------
      LOOP:  cpu time   88.0840: real time   88.6099

 eigenvalue-minimisations  :  1600
 total energy-change (2. order) :-0.1543315E+02  (-0.1445429E+02)
 number of electron      63.9999992 magnetization       3.6883615
 augmentation part        5.9029010 magnetization       4.8608610

 Broyden mixing:
  rms(total) = 0.18198E+01    rms(broyden)= 0.17976E+01
  rms(prec ) = 0.18576E+01
  weight for this iteration     100.00

 eigenvalues of (default mixing * dielectric matrix)
  average eigenvalue GAMMA=   0.8016
  2.2496  2.2496  0.8534  0.8534  0.5948  0.5948  0.5801  0.5004  0.3281  0.0132
  0.0004

 Free energy of the ion-electron system (eV)
  ---------------------------------------------------
  alpha Z        PSCENC =        27.00337869
  Ewald energy   TEWEN  =      8065.03639907
  -Hartree energ DENC   =    -11684.54763639
  -exchange      EXHF   =         0.00000000
  -V(xc)+E(xc)   XCENC  =       109.13384091
  PAW double counting   =      2380.32243188    -2458.78263806
  entropy T*S    EENTRO =         0.00000000
  eigenvalues    EBANDS =      -529.12166636
  atomic energy  EATOM  =      4040.26366069
  Solvation  Ediel_sol  =         0.00000000
  ---------------------------------------------------
  free energy    TOTEN  =       -50.69222958 eV

  energy without entropy =      -50.69222958  energy(sigma->0) =      -50.69222958


--------------------------------------------------------------------------------------------------------




--------------------------------------- Iteration      1(  17)  ---------------------------------------


    POTLOK:  cpu time   50.6160: real time   50.7137
    SETDIJ:  cpu time    0.0480: real time    0.0468
     EDDAV:  cpu time   25.0840: real time   25.2086
 BZINTS: Fermi energy: -4.426962; 64.000000 electrons
         Band energy:-541.818326;  BLOECHL correction: -0.002965
       DOS:  cpu time    0.0040: real time    0.0064
    CHARGE:  cpu time    2.0800: real time    2.1634
    MIXING:  cpu time    0.0480: real time    0.0492
    --------------------------------------------
      LOOP:  cpu time   77.8800: real time   78.1881

 eigenvalue-minimisations  :  1104
 total energy-change (2. order) :-0.1247677E+02  (-0.1299621E+03)
 number of electron      63.9999992 magnetization       3.6884696
 augmentation part        5.9286779 magnetization       4.8345249

 Broyden mixing:
  rms(total) = 0.18569E+01    rms(broyden)= 0.18184E+01
  rms(prec ) = 0.18763E+01
  weight for this iteration     100.00

 eigenvalues of (default mixing * dielectric matrix)
  average eigenvalue GAMMA=   0.7349
  2.2494  2.2494  0.8535  0.8535  0.5948  0.5948  0.5802  0.5004  0.3281  0.0132
  0.0009  0.0009

 Free energy of the ion-electron system (eV)
  ---------------------------------------------------
  alpha Z        PSCENC =        27.00337869
  Ewald energy   TEWEN  =      8065.03639907
  -Hartree energ DENC   =    -11684.59293389
  -exchange      EXHF   =         0.00000000
  -V(xc)+E(xc)   XCENC  =       109.51981087
  PAW double counting   =      2380.39789421    -2458.97888089
  entropy T*S    EENTRO =         0.00000000
  eigenvalues    EBANDS =      -541.81832558
  atomic energy  EATOM  =      4040.26366069
  Solvation  Ediel_sol  =         0.00000000
  ---------------------------------------------------
  free energy    TOTEN  =       -63.16899683 eV

  energy without entropy =      -63.16899683  energy(sigma->0) =      -63.16899683


--------------------------------------------------------------------------------------------------------




--------------------------------------- Iteration      1(  18)  ---------------------------------------


    POTLOK:  cpu time   50.7920: real time   50.9821
    SETDIJ:  cpu time    0.0400: real time    0.0414
     EDDAV:  cpu time   23.3200: real time   23.5798
 BZINTS: Fermi energy: -4.339779; 64.000000 electrons
         Band energy:-513.495267;  BLOECHL correction: -0.006647
       DOS:  cpu time    0.0040: real time    0.0069
    CHARGE:  cpu time    2.1000: real time    2.1097
    MIXING:  cpu time    0.0520: real time    0.0499
    --------------------------------------------
      LOOP:  cpu time   76.3080: real time   76.7698

 eigenvalue-minimisations  :  1024
 total energy-change (2. order) : 0.2837824E+02  (-0.9331945E+02)
 number of electron      63.9999992 magnetization       3.5160192
 augmentation part        6.1959504 magnetization       2.9287962

 Broyden mixing:
  rms(total) = 0.44313E+00    rms(broyden)= 0.36953E+00
  rms(prec ) = 0.40018E+00
  weight for this iteration     100.00
  WARNING: grid for Broyden might be to small

 eigenvalues of (default mixing * dielectric matrix)
  average eigenvalue GAMMA=   0.7255
  2.3610  2.3610  0.8611  0.8611  0.5954  0.5954  0.5174  0.5174  0.3305  0.4145
  0.0132  0.0023  0.0006

 Free energy of the ion-electron system (eV)
  ---------------------------------------------------
  alpha Z        PSCENC =        27.00337869
  Ewald energy   TEWEN  =      8065.03639907
  -Hartree energ DENC   =    -11684.60082856
  -exchange      EXHF   =         0.00000000
  -V(xc)+E(xc)   XCENC  =       109.57243247
  PAW double counting   =      2380.39480852    -2458.96533690
  entropy T*S    EENTRO =         0.00000000
  eigenvalues    EBANDS =      -513.49526693
  atomic energy  EATOM  =      4040.26366069
  Solvation  Ediel_sol  =         0.00000000
  ---------------------------------------------------
  free energy    TOTEN  =       -34.79075294 eV

  energy without entropy =      -34.79075294  energy(sigma->0) =      -34.79075294


--------------------------------------------------------------------------------------------------------




--------------------------------------- Iteration      1(  19)  ---------------------------------------


    POTLOK:  cpu time   50.5720: real time   50.8375
    SETDIJ:  cpu time    0.0400: real time    0.0408
     EDDAV:  cpu time   23.5760: real time   23.7941
 BZINTS: Fermi energy: -4.366971; 64.000000 electrons
         Band energy:-515.177153;  BLOECHL correction: -0.002112
       DOS:  cpu time    0.0040: real time    0.0073
    CHARGE:  cpu time    2.1080: real time    2.1104
    MIXING:  cpu time    0.0520: real time    0.0506
    --------------------------------------------
      LOOP:  cpu time   76.3520: real time   76.8406

 eigenvalue-minimisations  :  1040
 total energy-change (2. order) :-0.5511848E+00  (-0.4880642E-01)
 number of electron      63.9999992 magnetization       3.1600262
 augmentation part        6.2975437 magnetization       2.5322232

 Broyden mixing:
  rms(total) = 0.38017E+00    rms(broyden)= 0.37693E+00
  rms(prec ) = 0.40801E+00
  weight for this iteration     100.00

 eigenvalues of (default mixing * dielectric matrix)
  average eigenvalue GAMMA=   0.7770
  2.7058  2.7058  1.0199  1.0199  0.5980  0.5980  0.6496  0.6496  0.4858  0.3288
  0.0132  0.1004  0.0023  0.0006

 Free energy of the ion-electron system (eV)
  ---------------------------------------------------
  alpha Z        PSCENC =        27.00337869
  Ewald energy   TEWEN  =      8065.03639907
  -Hartree energ DENC   =    -11683.02520702
  -exchange      EXHF   =         0.00000000
  -V(xc)+E(xc)   XCENC  =       109.12889415
  PAW double counting   =      2377.26391033    -2455.83582100
  entropy T*S    EENTRO =         0.00000000
  eigenvalues    EBANDS =      -515.17715269
  atomic energy  EATOM  =      4040.26366069
  Solvation  Ediel_sol  =         0.00000000
  ---------------------------------------------------
  free energy    TOTEN  =       -35.34193778 eV

  energy without entropy =      -35.34193778  energy(sigma->0) =      -35.34193778


--------------------------------------------------------------------------------------------------------




--------------------------------------- Iteration      1(  20)  ---------------------------------------


    POTLOK:  cpu time   50.7080: real time   50.9111
    SETDIJ:  cpu time    0.0520: real time    0.0517
     EDDAV:  cpu time   23.2920: real time   23.4816
 BZINTS: Fermi energy: -4.433570; 64.000000 electrons
         Band energy:-519.023795;  BLOECHL correction: -0.007847
       DOS:  cpu time    0.0040: real time    0.0070
    CHARGE:  cpu time    2.0840: real time    2.1025
    MIXING:  cpu time    0.0520: real time    0.0524
    --------------------------------------------
      LOOP:  cpu time   76.1920: real time   76.6063

 eigenvalue-minimisations  :  1024
 total energy-change (2. order) : 0.6520112E-03  (-0.1242804E+00)
 number of electron      63.9999992 magnetization       2.8395839
 augmentation part        6.6994947 magnetization       2.0773519

 Broyden mixing:
  rms(total) = 0.10860E+00    rms(broyden)= 0.10780E+00
  rms(prec ) = 0.11267E+00
  weight for this iteration     100.00

 eigenvalues of (default mixing * dielectric matrix)
  average eigenvalue GAMMA=   0.7855
  3.4995  2.1346  1.0297  1.0297  0.5974  0.5974  0.7146  0.6244  0.6244  0.4862
  0.3287  0.0132  0.0992  0.0023  0.0006

 Free energy of the ion-electron system (eV)
  ---------------------------------------------------
  alpha Z        PSCENC =        27.00337869
  Ewald energy   TEWEN  =      8065.03639907
  -Hartree energ DENC   =    -11678.94315737
  -exchange      EXHF   =         0.00000000
  -V(xc)+E(xc)   XCENC  =       108.92076528
  PAW double counting   =      2369.62541573    -2448.22395296
  entropy T*S    EENTRO =         0.00000000
  eigenvalues    EBANDS =      -519.02379490
  atomic energy  EATOM  =      4040.26366069
  Solvation  Ediel_sol  =         0.00000000
  ---------------------------------------------------
  free energy    TOTEN  =       -35.34128577 eV

  energy without entropy =      -35.34128577  energy(sigma->0) =      -35.34128577


--------------------------------------------------------------------------------------------------------




--------------------------------------- Iteration      1(  21)  ---------------------------------------


    POTLOK:  cpu time   50.6640: real time   50.8849
    SETDIJ:  cpu time    0.0400: real time    0.0422
     EDDAV:  cpu time   36.8920: real time   37.0743
 BZINTS: Fermi energy: -4.514732; 64.000000 electrons
         Band energy:-522.390842;  BLOECHL correction: -0.003986
       DOS:  cpu time    0.0080: real time    0.0068
    CHARGE:  cpu time    2.0000: real time    2.1113
    MIXING:  cpu time    0.0560: real time    0.0528
    --------------------------------------------
      LOOP:  cpu time   89.6600: real time   90.1722

 eigenvalue-minimisations  :  1680
 total energy-change (2. order) :-0.3328124E+01  (-0.2111891E+01)
 number of electron      63.9999992 magnetization       2.8398248
 augmentation part        6.5255862 magnetization       3.9112665

 Broyden mixing:
  rms(total) = 0.13161E+01    rms(broyden)= 0.13038E+01
  rms(prec ) = 0.13516E+01
  weight for this iteration     100.00

 eigenvalues of (default mixing * dielectric matrix)
  average eigenvalue GAMMA=   0.7364
  3.5006  2.1330  1.0296  1.0296  0.5974  0.5974  0.7154  0.6242  0.6242  0.4862
  0.3287  0.0132  0.0992  0.0023  0.0004  0.0006

 Free energy of the ion-electron system (eV)
  ---------------------------------------------------
  alpha Z        PSCENC =        27.00337869
  Ewald energy   TEWEN  =      8065.03639907
  -Hartree energ DENC   =    -11679.15664014
  -exchange      EXHF   =         0.00000000
  -V(xc)+E(xc)   XCENC  =       108.93163078
  PAW double counting   =      2370.55394209    -2448.91093946
  entropy T*S    EENTRO =         0.00000000
  eigenvalues    EBANDS =      -522.39084185
  atomic energy  EATOM  =      4040.26366069
  Solvation  Ediel_sol  =         0.00000000
  ---------------------------------------------------
  free energy    TOTEN  =       -38.66941013 eV

  energy without entropy =      -38.66941013  energy(sigma->0) =      -38.66941013


--------------------------------------------------------------------------------------------------------




--------------------------------------- Iteration      1(  22)  ---------------------------------------


    POTLOK:  cpu time   50.4640: real time   50.9994
    SETDIJ:  cpu time    0.0400: real time    0.0416
     EDDAV:  cpu time   23.3200: real time   23.5241
 BZINTS: Fermi energy: -4.421612; 64.000000 electrons
         Band energy:-518.911461;  BLOECHL correction: -0.008015
       DOS:  cpu time    0.0040: real time    0.0071
    CHARGE:  cpu time    2.0960: real time    2.1052
    MIXING:  cpu time    0.0560: real time    0.0553
    --------------------------------------------
      LOOP:  cpu time   75.9800: real time   76.7326

 eigenvalue-minimisations  :  1024
 total energy-change (2. order) : 0.3608296E+01  (-0.6046925E+02)
 number of electron      63.9999992 magnetization       2.5900042
 augmentation part        6.7346644 magnetization       1.8466261

 Broyden mixing:
  rms(total) = 0.17798E+00    rms(broyden)= 0.10488E+00
  rms(prec ) = 0.11226E+00
  weight for this iteration     100.00
  WARNING: grid for Broyden might be to small

 eigenvalues of (default mixing * dielectric matrix)
  average eigenvalue GAMMA=   0.8202
  4.2418  2.5022  0.9503  0.9503  0.5987  0.5987  0.9378  0.8017  0.8017  0.6272
  0.4894  0.3286  0.0132  0.0983  0.0023  0.0007  0.0006

 Free energy of the ion-electron system (eV)
  ---------------------------------------------------
  alpha Z        PSCENC =        27.00337869
  Ewald energy   TEWEN  =      8065.03639907
  -Hartree energ DENC   =    -11679.16564318
  -exchange      EXHF   =         0.00000000
  -V(xc)+E(xc)   XCENC  =       109.13473237
  PAW double counting   =      2370.57099687    -2448.99317775
  entropy T*S    EENTRO =         0.00000000
  eigenvalues    EBANDS =      -518.91146074
[...]
     34      -2.2654      0.00000
     35      -1.9528      0.00000
     36      -0.4510      0.00000
     37       0.3720      0.00000
     38       1.3342      0.00000
     39       1.4680      0.00000
     40       1.9618      0.00000
     41       2.0704      0.00000
     42       2.4061      0.00000
     43       2.4525      0.00000
     44       2.5988      0.00000
     45       3.0383      0.00000
     46       3.1043      0.00000
     47       3.6229      0.00000
     48       3.8146      0.00000

 k-point     5 :      -0.4000    0.2000    0.0000
  band No.  band energies     occupation 
      1     -16.6000      1.00000
      2     -16.2436      1.00000
      3     -15.8607      1.00000
      4     -15.7520      1.00000
      5     -15.5379      1.00000
      6     -15.3468      1.00000
      7     -11.0955      1.00000
      8      -9.6333      1.00000
      9      -8.2190      1.00000
     10      -7.7248      1.00000
     11      -7.6727      1.00000
     12      -7.1631      1.00000
     13      -6.9166      1.00000
     14      -6.7229      1.00000
     15      -6.5200      1.00000
     16      -6.2732      1.00000
     17      -6.1297      1.00000
     18      -5.9896      1.00000
     19      -5.7763      1.00000
     20      -5.6782      1.00000
     21      -5.4616      1.00000
     22      -4.9362      1.00000
     23      -4.8300      1.00000
     24      -4.6675      1.00000
     25      -4.5477      1.00000
     26      -4.3440      1.00000
     27      -4.2278      1.00000
     28      -4.1609      1.00000
     29      -4.0096      1.00000
     30      -3.9572      1.00000
     31      -3.5424      1.00000
     32      -2.7664      1.00000
     33      -2.5769      0.00000
     34      -2.2195      0.00000
     35      -1.9325      0.00000
     36      -0.7962      0.00000
     37       0.2323      0.00000
     38       0.9934      0.00000
     39       1.1002      0.00000
     40       1.7260      0.00000
     41       1.9755      0.00000
     42       2.0044      0.00000
     43       2.9530      0.00000
     44       3.0415      0.00000
     45       3.0475      0.00000
     46       3.2015      0.00000
     47       3.5208      0.00000
     48       3.9914      0.00000


--------------------------------------------------------------------------------------------------------


 soft charge-density along one line, spin component           1
         0         1         2         3         4         5         6         7         8         9
 total charge-density along one line

 soft charge-density along one line, spin component           2
         0         1         2         3         4         5         6         7         8         9
 total charge-density along one line

 pseudopotential strength for first ion, spin component:           1
-10.922  -0.140  -0.000   0.018  -0.000   1.540   0.059   0.000
 -0.140 -11.088   0.000  -0.000   0.018   0.059   1.609  -0.000
 -0.000   0.000 -10.839   0.000   0.000   0.000  -0.000   1.506
  0.018  -0.000   0.000 -11.088   0.140  -0.007   0.000  -0.000
 -0.000   0.018   0.000   0.140 -10.922   0.000  -0.007  -0.000
  1.540   0.059   0.000  -0.007   0.000   0.674  -0.025  -0.000
  0.059   1.609  -0.000   0.000  -0.007  -0.025   0.645   0.000
  0.000  -0.000   1.506  -0.000  -0.000  -0.000   0.000   0.689
 -0.007   0.000  -0.000   1.609  -0.059   0.003  -0.000   0.000
  0.000  -0.007  -0.000  -0.059   1.540  -0.000   0.003   0.000
  0.000  -0.000   0.007  -0.000   0.000   0.000  -0.000  -0.002
 -0.000   0.000  -0.000   0.000  -0.000   0.000  -0.000   0.000
 -0.001  -0.003   0.000   0.000   0.000   0.000   0.001  -0.000
  0.000  -0.000  -0.002  -0.000   0.000   0.000   0.000   0.000
  0.000   0.000   0.000  -0.003   0.001   0.000   0.000  -0.000
  0.000   0.000  -0.000  -0.000  -0.000  -0.000   0.000   0.000
 -0.000   0.000  -0.000   0.000  -0.000   0.000  -0.000   0.000
 -0.000  -0.000  -0.000   0.000  -0.000   0.000   0.000   0.000
 pseudopotential strength for first ion, spin component:           2
-10.513   0.019  -0.000  -0.000  -0.000   1.365  -0.005   0.000
  0.019 -10.488   0.000  -0.000  -0.000  -0.005   1.357  -0.000
 -0.000   0.000 -10.533   0.000   0.000   0.000  -0.000   1.371
 -0.000  -0.000   0.000 -10.488  -0.019  -0.000   0.000  -0.000
 -0.000  -0.000   0.000  -0.019 -10.513   0.000  -0.000  -0.000
  1.365  -0.005   0.000  -0.000   0.000   0.749   0.001  -0.000
 -0.005   1.357  -0.000   0.000  -0.000   0.001   0.751   0.000
  0.000  -0.000   1.371  -0.000  -0.000  -0.000   0.000   0.748
 -0.000   0.000  -0.000   1.357   0.005   0.000  -0.000   0.000
  0.000  -0.000  -0.000   0.005   1.365  -0.000   0.000   0.000
  0.000  -0.000  -0.001  -0.000   0.000   0.000  -0.000   0.001
 -0.000   0.000  -0.000   0.000  -0.000   0.000  -0.000  -0.000
 -0.000  -0.001   0.000   0.000  -0.000  -0.000  -0.000  -0.000
  0.000  -0.000  -0.001  -0.000   0.000   0.000   0.000   0.000
 -0.000   0.000   0.000  -0.001   0.000   0.001   0.000  -0.000
  0.000   0.000  -0.000  -0.000  -0.000  -0.000   0.000   0.000
 -0.000   0.000  -0.000   0.000  -0.000   0.000  -0.000   0.000
 -0.000  -0.000  -0.000   0.000  -0.000  -0.000   0.000   0.000
 total augmentation occupancy for first ion, spin component:           1
  1.799  -0.186   0.000   0.025  -0.000   0.003   0.107  -0.000  -0.016   0.000  -0.000  -0.000  -0.009  -0.000   0.001   0.001
 -0.186   1.627  -0.000  -0.000   0.025   0.106   0.103   0.000   0.000  -0.015  -0.000  -0.000  -0.017   0.000   0.001   0.002
  0.000  -0.000   1.939  -0.000  -0.000  -0.000   0.000  -0.087   0.000   0.000  -0.019  -0.011  -0.000  -0.003  -0.000   0.000
  0.025  -0.000  -0.000   1.627   0.186  -0.015  -0.000   0.000   0.103  -0.106  -0.000   0.000  -0.001  -0.000  -0.017   0.000
 -0.000   0.025  -0.000   0.186   1.799  -0.000  -0.016   0.000  -0.107   0.003   0.000   0.000   0.001   0.000   0.009  -0.001
  0.003   0.106  -0.000  -0.015  -0.000   0.094   0.064   0.000  -0.008  -0.000   0.000  -0.000  -0.005  -0.000   0.019   0.000
  0.107   0.103   0.000  -0.000  -0.016   0.064   0.173   0.000  -0.000  -0.008   0.000   0.000  -0.016   0.000  -0.000   0.002
 -0.000   0.000  -0.087   0.000   0.000   0.000   0.000   0.079   0.000  -0.000   0.034  -0.016  -0.000  -0.006   0.000   0.000
 -0.016   0.000   0.000   0.103  -0.107  -0.008  -0.000   0.000   0.173  -0.064   0.000   0.000   0.000   0.000  -0.016  -0.000
  0.000  -0.015   0.000  -0.106   0.003  -0.000  -0.008  -0.000  -0.064   0.094  -0.000   0.000   0.019   0.000   0.005  -0.003
 -0.000   0.000  -0.019  -0.000   0.000   0.000   0.000   0.034   0.000  -0.000   1.011  -0.305   0.000  -0.030  -0.000   0.000
 -0.000  -0.000  -0.011   0.000   0.000  -0.000   0.000  -0.016   0.000   0.000  -0.305   0.161   0.000   0.012   0.000  -0.000
 -0.009  -0.017  -0.000  -0.001   0.001  -0.005  -0.016  -0.000   0.000   0.019   0.000   0.000   0.199   0.000  -0.000  -0.016
 -0.000  -0.000  -0.003  -0.000   0.000  -0.000   0.000  -0.006   0.000   0.000  -0.030   0.012   0.000   0.210   0.000  -0.000
  0.001   0.001  -0.000  -0.017   0.009   0.019  -0.000   0.000  -0.016   0.005  -0.000  -0.000  -0.000   0.000   0.199   0.000
  0.001   0.002   0.000   0.000  -0.001   0.000   0.002   0.000  -0.000  -0.003   0.000  -0.000  -0.016  -0.000   0.000   0.002
  0.000   0.000   0.001  -0.000  -0.000   0.000   0.000   0.001   0.000  -0.000   0.004  -0.002  -0.000  -0.019   0.000   0.000
 -0.001  -0.000  -0.000   0.002  -0.001  -0.003   0.000  -0.000   0.002  -0.000  -0.000   0.000  -0.000   0.000  -0.016  -0.000
 total augmentation occupancy for first ion, spin component:           2
  0.048   0.087   0.000  -0.010  -0.000  -0.049  -0.045  -0.000   0.005   0.000  -0.000   0.000   0.003   0.000  -0.003   0.000
  0.087   0.153   0.000  -0.000  -0.010  -0.047  -0.108  -0.000   0.000   0.005   0.000   0.000   0.007   0.000  -0.004   0.000
  0.000   0.000  -0.007   0.000  -0.000  -0.000  -0.000  -0.021  -0.000   0.000  -0.001   0.001   0.000   0.000  -0.000   0.000
 -0.010  -0.000   0.000   0.153  -0.087   0.005  -0.000  -0.000  -0.108   0.047   0.000   0.000   0.004   0.000   0.007  -0.000
 -0.000  -0.010  -0.000  -0.087   0.048  -0.000   0.005   0.000   0.045  -0.049   0.000  -0.000  -0.003  -0.000  -0.003  -0.000
 -0.049  -0.047  -0.000   0.005  -0.000   0.013   0.019   0.000  -0.002  -0.000   0.000   0.000  -0.001   0.000   0.002  -0.000
 -0.045  -0.108  -0.000  -0.000   0.005   0.019   0.040   0.000  -0.000  -0.002  -0.000   0.000  -0.003   0.000   0.003  -0.000
 -0.000  -0.000  -0.021  -0.000   0.000   0.000   0.000   0.002   0.000  -0.000   0.002   0.001  -0.000   0.000   0.000  -0.000
  0.005   0.000  -0.000  -0.108   0.045  -0.002  -0.000   0.000   0.040  -0.019   0.000   0.000  -0.003  -0.000  -0.003   0.000
  0.000   0.005   0.000   0.047  -0.049  -0.000  -0.002  -0.000  -0.019   0.013  -0.000  -0.000   0.002  -0.000   0.001   0.000
 -0.000   0.000  -0.001   0.000   0.000   0.000  -0.000   0.002   0.000  -0.000   0.007   0.019   0.000  -0.000  -0.000   0.000
  0.000   0.000   0.001   0.000  -0.000   0.000   0.000   0.001   0.000  -0.000   0.019  -0.011   0.000  -0.001  -0.000   0.000
  0.003   0.007   0.000   0.004  -0.003  -0.001  -0.003  -0.000  -0.003   0.002   0.000   0.000   0.000   0.000  -0.000   0.001
  0.000  -0.000   0.000   0.000  -0.000   0.000   0.000   0.000   0.000  -0.000  -0.000  -0.001   0.000   0.000   0.000   0.000
 -0.003  -0.004  -0.000   0.007  -0.003   0.002   0.003   0.000  -0.003   0.001   0.000  -0.000  -0.000  -0.000   0.000  -0.000
  0.000   0.000   0.000  -0.000  -0.000  -0.000  -0.000  -0.000   0.000   0.000   0.000   0.000   0.001   0.000  -0.000  -0.000
  0.000  -0.000   0.000  -0.000  -0.000  -0.000   0.000  -0.000   0.000   0.000  -0.000   0.000   0.000   0.001  -0.000  -0.000
 -0.000   0.000  -0.000   0.000  -0.000   0.000  -0.000   0.000  -0.000   0.000  -0.000   0.000   0.000  -0.000   0.001   0.000


------------------------ aborting loop because EDIFF is reached ----------------------------------------





 total charge     

# of ion       s       p       d       tot
------------------------------------------
    1        0.395   0.467   8.314   9.177
    2        0.396   0.471   8.315   9.182
    3        1.142   1.177   0.126   2.444
    4        0.732   0.894   0.000   1.626
    5        1.372   2.283   0.000   3.655
    6        1.367   2.377   0.000   3.744
    7        1.369   2.308   0.000   3.677
    8        1.382   2.254   0.000   3.636
    9        1.379   2.321   0.000   3.700
   10        1.378   2.262   0.000   3.640
--------------------------------------------------
tot         10.911  16.814  16.756  44.480



 magnetization (x)

# of ion       s       p       d       tot
------------------------------------------
    1       -0.000  -0.001   0.546   0.545
    2        0.000   0.001  -0.523  -0.522
    3        0.000   0.001   0.000   0.001
    4        0.000   0.000   0.000   0.000
    5        0.002   0.029   0.000   0.031
    6        0.000   0.008   0.000   0.008
    7       -0.001  -0.034   0.000  -0.035
    8       -0.001  -0.034   0.000  -0.036
    9       -0.000  -0.009   0.000  -0.009
   10        0.002   0.048   0.000   0.049
--------------------------------------------------
tot          0.001   0.009   0.023   0.033

    CHARGE:  cpu time    2.1440: real time    2.1541
    FORLOC:  cpu time    0.0600: real time    0.0629
    FORNL :  cpu time    6.7560: real time    6.7577
    STRESS:  cpu time   20.3280: real time   20.3725
    FORCOR:  cpu time   51.4640: real time   51.9767
    FORHAR:  cpu time    0.3360: real time    0.3329
    MIXING:  cpu time    0.0760: real time    0.0765
    OFIELD:  cpu time    0.0000: real time    0.0001

  FORCE on cell =-STRESS in cart. coord.  units (eV):
  Direction    XX          YY          ZZ          XY          YZ          ZX
  --------------------------------------------------------------------------------------
  Alpha Z    40.33894    40.33894    40.33894
  Ewald   13093.30179 13093.29941-15360.60418    -0.00249    -0.00059    -0.00107
  Hartree 13864.29064 13864.29177-13228.26088    -0.00062     0.00006     0.00009
  E(xc)    -267.86719  -267.86726  -267.43248     0.00008     0.00000     0.00001
  Local  -27843.63429-27843.63440 27671.28124     0.00267     0.00035     0.00065
  n-local   429.79478   430.83418   430.20499     0.61132     0.37281     0.37361
  augment    -2.94954    -2.94949    -6.51055     0.00006     0.00011     0.00000
  Kinetic   691.80093   681.60230   722.31565    -5.46352    -1.88937    -1.60864
  Fock        0.00000     0.00000     0.00000     0.00000     0.00000     0.00000
  -------------------------------------------------------------------------------------
  Total       0.49576     0.49576     1.33273    -0.00000    -0.00000    -0.00000
  in kB       1.22472     1.22472     3.29238    -0.00001    -0.00000    -0.00000
  external pressure =        1.91 kB  Pullay stress =        0.00 kB


 VOLUME and BASIS-vectors are now :
 -----------------------------------------------------------------------------
  energy-cutoff  :      520.00
  volume of cell :      648.55
      direct lattice vectors                 reciprocal lattice vectors
     5.897951245  0.000000330 -0.000000000     0.169550407 -0.097889955  0.000000000
     2.948975060  5.107775571  0.000000000    -0.000000011  0.195779947 -0.000000000
     0.000000000  0.000000000 21.528336861     0.000000000 -0.000000000  0.046450407

  length of vectors
     5.897951245  5.897950931 21.528336861     0.195779937  0.195779947  0.046450407


 FORCES acting on ions
    electron-ion (+dipol)            ewald-force                    non-local-force                 convergence-correction
 -----------------------------------------------------------------------------------------------
   -.869E-04 -.420E-04 -.568E+01   0.879E-03 0.524E-03 0.563E+01   0.139E-16 0.139E-16 0.451E-01   0.142E-06 0.210E-06 0.424E-01
   0.781E-04 0.771E-04 -.726E+01   -.871E-03 -.519E-03 0.724E+01   -.139E-16 0.139E-16 0.937E-02   -.226E-06 -.767E-07 0.436E-01
   -.660E-04 0.210E-04 0.271E+03   -.201E-03 -.113E-03 -.268E+03   -.279E-16 -.144E-17 -.387E+01   0.221E-08 0.186E-08 -.972E-01
   0.476E-04 -.241E-05 -.289E+03   0.226E-03 0.127E-03 0.284E+03   0.418E-16 0.156E-16 0.473E+01   -.714E-08 -.366E-08 0.126E+00
   -.259E+02 -.486E+00 -.580E+03   0.225E+02 0.519E+00 0.584E+03   0.337E+01 -.179E-01 -.381E+01   0.164E-01 -.546E-02 0.263E+00
   0.125E+02 0.226E+02 -.580E+03   -.108E+02 -.198E+02 0.584E+03   -.170E+01 -.291E+01 -.381E+01   -.129E-01 -.115E-01 0.263E+00
   0.134E+02 -.222E+02 -.580E+03   -.117E+02 0.192E+02 0.584E+03   -.167E+01 0.292E+01 -.381E+01   -.348E-02 0.170E-01 0.263E+00
   0.393E+02 -.510E+00 0.590E+03   -.357E+02 0.540E+00 -.594E+03   -.359E+01 -.103E-01 0.405E+01   -.191E-01 -.437E-02 -.242E+00
   -.201E+02 -.338E+02 0.590E+03   0.183E+02 0.307E+02 -.594E+03   0.179E+01 0.311E+01 0.405E+01   0.576E-02 0.187E-01 -.242E+00
   -.192E+02 0.343E+02 0.590E+03   0.174E+02 -.312E+02 -.594E+03   0.180E+01 -.310E+01 0.405E+01   0.133E-01 -.143E-01 -.242E+00
 -----------------------------------------------------------------------------------------------
   0.378E-04 0.489E-04 -.177E+01   0.142E-13 0.711E-14 -.114E-12   -.888E-15 0.444E-15 0.164E+01   -.183E-06 0.812E-07 0.177E+00


 POSITION                                       TOTAL-FORCE (eV/Angst)
 -----------------------------------------------------------------------------------
      2.94897      1.70259     10.74591        -0.000000     -0.000000      0.028773
      5.89795      3.40519     10.74810        -0.000000     -0.000000      0.024929
      0.00000      0.00000      9.64935        -0.000000     -0.000000     -0.260317
     -0.00000      0.00000     11.99366        -0.000000     -0.000000     -0.084669
      3.76797     -0.00155     12.25391         0.023355      0.010304     -0.003999
      1.06365      1.84540     12.25391        -0.002754     -0.025378     -0.003999
      4.01532      3.26393     12.25391        -0.020601      0.015074     -0.003999
      5.21182      5.10502      9.28024        -0.035929      0.014699      0.101094
      7.71312      3.14947      9.28024         0.030694      0.023766      0.101094
      4.76891      1.96106      9.28024         0.005235     -0.038464      0.101094
 -----------------------------------------------------------------------------------
    total drift:                                0.000038      0.000049      0.041082


--------------------------------------------------------------------------------------------------------



  FREE ENERGIE OF THE ION-ELECTRON SYSTEM (eV)
  ---------------------------------------------------
  free  energy   TOTEN  =       -43.16448605 eV

  energy  without entropy=      -43.16448605  energy(sigma->0) =      -43.16448605

 d Force = 0.8267488E-04[ 0.827E-04, 0.826E-04]  d Energy =-0.2044387E-02 0.213E-02
 d Force =-0.4486042E-01[-0.448E-01,-0.449E-01]  d Ewald  = 0.1403466E+01-0.145E+01


--------------------------------------------------------------------------------------------------------


    POTLOK:  cpu time   52.1040: real time   52.4184


--------------------------------------------------------------------------------------------------------




--------------------------------------------------------------------------------------------------------


  
 reached required accuracy - stopping structural energy minimisation
     LOOP+:  cpu time 2136.2400: real time 2148.5212
    4ORBIT:  cpu time    0.0000: real time    0.0000



 total charge     

# of ion       s       p       d       tot
------------------------------------------
    1        0.395   0.467   8.314   9.177
    2        0.396   0.471   8.315   9.182
    3        1.142   1.177   0.126   2.444
    4        0.732   0.894   0.000   1.626
    5        1.372   2.283   0.000   3.655
    6        1.367   2.377   0.000   3.744
    7        1.369   2.308   0.000   3.677
    8        1.382   2.254   0.000   3.636
    9        1.379   2.321   0.000   3.700
   10        1.378   2.262   0.000   3.640
--------------------------------------------------
tot         10.911  16.814  16.756  44.480



 magnetization (x)

# of ion       s       p       d       tot
------------------------------------------
    1       -0.000  -0.001   0.546   0.545
    2        0.000   0.001  -0.523  -0.522
    3        0.000   0.001   0.000   0.001
    4        0.000   0.000   0.000   0.000
    5        0.002   0.029   0.000   0.031
    6        0.000   0.008   0.000   0.008
    7       -0.001  -0.034   0.000  -0.035
    8       -0.001  -0.034   0.000  -0.036
    9       -0.000  -0.009   0.000  -0.009
   10        0.002   0.048   0.000   0.049
--------------------------------------------------
tot          0.001   0.009   0.023   0.033

 BZINTS: Fermi energy: -2.582800; 64.037144 electrons
         Band energy:-497.503954;  BLOECHL correction: -0.004891

 total amount of memory used by VASP MPI-rank0   131460. kBytes
=======================================================================

   base      :      30000. kBytes
   nonlr-proj:       8975. kBytes
   fftplans  :      11247. kBytes
   grid      :      68332. kBytes
   one-center:        311. kBytes
   wavefun   :      12595. kBytes

  
  
 General timing and accounting informations for this job:
 ========================================================
  
                  Total CPU time used (sec):    20157.451
                            User time (sec):    19756.604
                          System time (sec):      400.848
                         Elapsed time (sec):    20275.198
  
                   Maximum memory used (kb):      391384.
                   Average memory used (kb):           0.
  
                          Minor page faults:     16402064
                          Major page faults:            6
                 Voluntary context switches:         1119
