 vasp.5.4.4.18Apr17-6-g9f103f2a35 (build May  1 2020 15:48:39) complex           
 executed on             LinuxGNU date 2020.07.10  12:43:48
 running on   16 total cores
 distrk:  each k-point on   16 cores,    1 groups
 distr:  one band on NCORES_PER_BAND=   1 cores,   16 groups


--------------------------------------------------------------------------------------------------------


 INCAR:
 POTCAR:   PAW_PBE Mn 06Sep2000                   
 POTCAR:   PAW_PBE Si 05Jan2001                   
 POTCAR:    PAW_PBE P 17Jan2003                   
 POTCAR:    PAW_PBE S 17Jan2003                   

 ----------------------------------------------------------------------------- 
|                                                                             |
|           W    W    AA    RRRRR   N    N  II  N    N   GGGG   !!!           |
|           W    W   A  A   R    R  NN   N  II  NN   N  G    G  !!!           |
|           W    W  A    A  R    R  N N  N  II  N N  N  G       !!!           |
|           W WW W  AAAAAA  RRRRR   N  N N  II  N  N N  G  GGG   !            |
|           WW  WW  A    A  R   R   N   NN  II  N   NN  G    G                |
|           W    W  A    A  R    R  N    N  II  N    N   GGGG   !!!           |
|                                                                             |
|      For optimal performance we recommend to set                            |
|        NCORE= 4 - approx SQRT( number of cores)                             |
|      NCORE specifies how many cores store one orbital (NPAR=cpu/NCORE).     |
|      This setting can  greatly improve the performance of VASP for DFT.     |
|      The default,   NCORE=1            might be grossly inefficient         |
|      on modern multi-core architectures or massively parallel machines.     |
|      Do your own testing !!!!                                               |
|      Unfortunately you need to use the default for GW and RPA calculations. |
|      (for HF NCORE is supported but not extensively tested yet)             |
|                                                                             |
 ----------------------------------------------------------------------------- 


 ----------------------------------------------------------------------------- 
|                                                                             |
|  ADVICE TO THIS USER RUNNING 'VASP/VAMP'   (HEAR YOUR MASTER'S VOICE ...):  |
|                                                                             |
|      You have switched on vdW-DFT.                                          |
|      This routine was written and supplied by Jiri Klimes.                  |
|      We recommed that you carefully read and cite the following             |
|      publication                                                            |
|      J. Klimes, D.R. Bowler, A. Michelides                                  |
|        J. Phys.: Cond Matt. 22 022201 (2010)                                |
|      J. Klimes, D.R. Bowler, A. Michelides                                  |
|        Phys. Rev. B. 83, 195131 (2011)                                      |
|      and references therein.                                                |
|                                                                             |
 ----------------------------------------------------------------------------- 

 POTCAR:   PAW_PBE Mn 06Sep2000                   
   VRHFIN =Mn: d6 s1                                                            
   LEXCH  = PE                                                                  
   EATOM  =   416.8732 eV,   30.6393 Ry                                         
                                                                                
   TITEL  = PAW_PBE Mn 06Sep2000                                                
   LULTRA =        F    use ultrasoft PP ?                                      
   IUNSCR =        1    unscreen: 0-lin 1-nonlin 2-no                           
   RPACOR =    2.000    partial core radius                                     
   POMASS =   54.938; ZVAL   =    7.000    mass and valenz                      
   RCORE  =    2.300    outmost cutoff radius                                   
   RWIGS  =    2.500; RWIGS  =    1.323    wigner-seitz radius (au A)           
   ENMAX  =  269.865; ENMIN  =  202.399 eV                                      
   RCLOC  =    1.725    cutoff for local pot                                    
   LCOR   =        T    correct aug charges                                     
   LPAW   =        T    paw PP                                                  
   EAUG   =  500.711                                                            
   DEXC   =    -.071                                                            
   RMAX   =    2.807    core radius for proj-oper                               
   RAUG   =    1.300    factor for augmentation sphere                          
   RDEP   =    2.338    radius for radial grids                                 
   QCUT   =   -4.454; QGAM   =    8.907    optimization parameters              
                                                                                
   Description                                                                  
     l     E      TYP  RCUT    TYP  RCUT                                        
     2   .000     23  2.300                                                     
     2   .000     23  2.300                                                     
     0   .000     23  2.300                                                     
     0   .000     23  2.300                                                     
     1  -.200     23  2.300                                                     
     1  1.500     23  2.300                                                     
     3   .000      7   .000                                                     
  local pseudopotential read in
  partial core-charges read in
  atomic valenz-charges read in
  non local Contribution for L=           2  read in
    real space projection operators read in
  non local Contribution for L=           2  read in
    real space projection operators read in
  non local Contribution for L=           0  read in
    real space projection operators read in
  non local Contribution for L=           0  read in
    real space projection operators read in
  non local Contribution for L=           1  read in
    real space projection operators read in
  non local Contribution for L=           1  read in
    real space projection operators read in
    PAW grid and wavefunctions read in

   number of l-projection  operators is LMAX  =           6
   number of lm-projection operators is LMMAX =          18

 POTCAR:   PAW_PBE Si 05Jan2001                   
   VRHFIN =Si: s2p2                                                             
   LEXCH  = PE                                                                  
   EATOM  =   103.0669 eV,    7.5752 Ry                                         
                                                                                
   TITEL  = PAW_PBE Si 05Jan2001                                                
   LULTRA =        F    use ultrasoft PP ?                                      
   IUNSCR =        1    unscreen: 0-lin 1-nonlin 2-no                           
   RPACOR =    1.500    partial core radius                                     
   POMASS =   28.085; ZVAL   =    4.000    mass and valenz                      
   RCORE  =    1.900    outmost cutoff radius                                   
   RWIGS  =    2.480; RWIGS  =    1.312    wigner-seitz radius (au A)           
   ENMAX  =  245.345; ENMIN  =  184.009 eV                                      
   ICORE  =        2    local potential                                         
   LCOR   =        T    correct aug charges                                     
   LPAW   =        T    paw PP                                                  
   EAUG   =  322.069                                                            
   DEXC   =    -.007                                                            
   RMAX   =    2.944    core radius for proj-oper                               
   RAUG   =    1.300    factor for augmentation sphere                          
   RDEP   =    1.993    radius for radial grids                                 
   QCUT   =   -4.246; QGAM   =    8.493    optimization parameters              
                                                                                
   Description                                                                  
     l     E      TYP  RCUT    TYP  RCUT                                        
     0   .000     23  1.900                                                     
     0   .000     23  1.900                                                     
     1   .000     23  1.900                                                     
     1   .000     23  1.900                                                     
     2   .000      7  1.900                                                     
  local pseudopotential read in
  partial core-charges read in
  atomic valenz-charges read in
  non local Contribution for L=           0  read in
    real space projection operators read in
  non local Contribution for L=           0  read in
    real space projection operators read in
  non local Contribution for L=           1  read in
    real space projection operators read in
  non local Contribution for L=           1  read in
    real space projection operators read in
    PAW grid and wavefunctions read in

   number of l-projection  operators is LMAX  =           4
   number of lm-projection operators is LMMAX =           8

 POTCAR:    PAW_PBE P 17Jan2003                   
   VRHFIN =P : s2p3                                                             
   LEXCH  = PE                                                                  
   EATOM  =   176.0430 eV,   12.9388 Ry                                         
                                                                                
   TITEL  = PAW_PBE P 17Jan2003                                                 
   LULTRA =        F    use ultrasoft PP ?                                      
   IUNSCR =        1    unscreen: 0-lin 1-nonlin 2-no                           
   RPACOR =    1.500    partial core radius                                     
   POMASS =   30.974; ZVAL   =    5.000    mass and valenz                      
   RCORE  =    1.900    outmost cutoff radius                                   
   RWIGS  =    2.330; RWIGS  =    1.233    wigner-seitz radius (au A)           
   ENMAX  =  270.000; ENMIN  =  191.280 eV                                      
   ICORE  =        2    local potential                                         
   LCOR   =        T    correct aug charges                                     
   LPAW   =        T    paw PP                                                  
   EAUG   =  342.924                                                            
   DEXC   =    -.002                                                            
   RMAX   =    2.887    core radius for proj-oper                               
   RAUG   =    1.300    factor for augmentation sphere                          
   RDEP   =    1.931    radius for radial grids                                 
   QCUT   =   -4.330; QGAM   =    8.659    optimization parameters              
                                                                                
   Description                                                                  
     l     E      TYP  RCUT    TYP  RCUT                                        
     0   .000     23  1.900                                                     
     0   .000     23  1.900                                                     
     1   .000     23  1.900                                                     
     1   .000     23  1.900                                                     
     2   .000     23  1.900                                                     
  local pseudopotential read in
  partial core-charges read in
  atomic valenz-charges read in
  non local Contribution for L=           0  read in
    real space projection operators read in
  non local Contribution for L=           0  read in
    real space projection operators read in
  non local Contribution for L=           1  read in
    real space projection operators read in
  non local Contribution for L=           1  read in
    real space projection operators read in
    PAW grid and wavefunctions read in

   number of l-projection  operators is LMAX  =           4
   number of lm-projection operators is LMMAX =           8

 POTCAR:    PAW_PBE S 17Jan2003                   
   VRHFIN =S : s2p4                                                             
   LEXCH  = PE                                                                  
   EATOM  =   276.8230 eV,   20.3459 Ry                                         
                                                                                
   TITEL  = PAW_PBE S 17Jan2003                                                 
   LULTRA =        F    use ultrasoft PP ?                                      
   IUNSCR =        1    unscreen: 0-lin 1-nonlin 2-no                           
   RPACOR =    1.500    partial core radius                                     
   POMASS =   32.066; ZVAL   =    6.000    mass and valenz                      
   RCORE  =    1.900    outmost cutoff radius                                   
   RWIGS  =    2.200; RWIGS  =    1.164    wigner-seitz radius (au A)           
   ENMAX  =  280.000; ENMIN  =  194.016 eV                                      
   ICORE  =        2    local potential                                         
   LCOR   =        T    correct aug charges                                     
   LPAW   =        T    paw PP                                                  
   EAUG   =  335.092                                                            
   DEXC   =     .000                                                            
   RMAX   =    2.867    core radius for proj-oper                               
   RAUG   =    1.300    factor for augmentation sphere                          
   RDEP   =    1.954    radius for radial grids                                 
   QCUT   =   -4.360; QGAM   =    8.721    optimization parameters              
                                                                                
   Description                                                                  
     l     E      TYP  RCUT    TYP  RCUT                                        
     0   .000     23  1.900                                                     
     0   .000     23  1.900                                                     
     1   .000     23  1.900                                                     
     1   .000     23  1.900                                                     
     2   .000     23  1.900                                                     
  local pseudopotential read in
  partial core-charges read in
  atomic valenz-charges read in
  non local Contribution for L=           0  read in
    real space projection operators read in
  non local Contribution for L=           0  read in
    real space projection operators read in
  non local Contribution for L=           1  read in
    real space projection operators read in
  non local Contribution for L=           1  read in
    real space projection operators read in
    PAW grid and wavefunctions read in

   number of l-projection  operators is LMAX  =           4
   number of lm-projection operators is LMMAX =           8

 Optimization of the real space projectors (new method)

 maximal supplied QI-value         = 16.25
 optimisation between [QCUT,QGAM] = [ 11.54, 23.24] = [ 37.28,151.24] Ry 
 Optimized for a Real-space Cutoff    1.53 Angstroem

   l    n(q)    QCUT    max X(q) W(low)/X(q) W(high)/X(q)  e(spline) 
   2     10    11.539     4.144    0.87E-05    0.14E-04    0.48E-07
   2     10    11.539    35.116    0.12E-03    0.13E-03    0.25E-06
   0     11    11.539    20.431    0.20E-04    0.18E-05    0.19E-07
   0     11    11.539    61.159    0.37E-04    0.19E-04    0.29E-06
   1     10    11.539     6.695    0.11E-04    0.24E-05    0.29E-07
   1     10    11.539     8.642    0.41E-04    0.18E-04    0.11E-06
 Optimization of the real space projectors (new method)

 maximal supplied QI-value         = 19.84
 optimisation between [QCUT,QGAM] = [ 11.51, 23.22] = [ 37.09,150.92] Ry 
 Optimized for a Real-space Cutoff    1.21 Angstroem

   l    n(q)    QCUT    max X(q) W(low)/X(q) W(high)/X(q)  e(spline) 
   0      8    11.508     8.708    0.18E-04    0.44E-05    0.47E-08
   0      8    11.508   106.241    0.70E-04    0.15E-03    0.51E-07
   1      8    11.508     5.901    0.63E-05    0.23E-04    0.21E-07
   1      8    11.508    73.241    0.15E-03    0.36E-04    0.79E-07
 Optimization of the real space projectors (new method)

 maximal supplied QI-value         = 19.84
 optimisation between [QCUT,QGAM] = [ 11.51, 23.22] = [ 37.09,150.92] Ry 
 Optimized for a Real-space Cutoff    1.21 Angstroem

   l    n(q)    QCUT    max X(q) W(low)/X(q) W(high)/X(q)  e(spline) 
   0      8    11.508     6.651    0.19E-04    0.31E-05    0.49E-08
   0      8    11.508    90.285    0.95E-04    0.17E-03    0.51E-07
   1      8    11.508     4.328    0.14E-04    0.32E-04    0.22E-07
   1      8    11.508    54.583    0.16E-03    0.71E-04    0.89E-07
 Optimization of the real space projectors (new method)

 maximal supplied QI-value         = 19.84
 optimisation between [QCUT,QGAM] = [ 11.51, 23.22] = [ 37.09,150.92] Ry 
 Optimized for a Real-space Cutoff    1.21 Angstroem

   l    n(q)    QCUT    max X(q) W(low)/X(q) W(high)/X(q)  e(spline) 
   0      8    11.508     5.487    0.18E-04    0.22E-05    0.47E-08
   0      8    11.508    85.627    0.96E-04    0.18E-03    0.54E-07
   1      8    11.508     3.530    0.17E-04    0.28E-04    0.21E-07
   1      8    11.508    42.714    0.18E-03    0.63E-04    0.92E-07

 ----------------------------------------------------------------------------- 
|                                                                             |
|  ADVICE TO THIS USER RUNNING 'VASP/VAMP'   (HEAR YOUR MASTER'S VOICE ...):  |
|                                                                             |
|      You enforced a specific xc-type in the INCAR file,                     |
|      a different type was found on the POTCAR file                          |
|          I HOPE YOU KNOW, WHAT YOU ARE  DOING                               |
|                                                                             |
 ----------------------------------------------------------------------------- 

 PAW_PBE Mn 06Sep2000                   :
 energy of atom  1       EATOM= -416.8732
 kinetic energy error for atom=    0.0024 (will be added to EATOM!!)
 PAW_PBE Si 05Jan2001                   :
 energy of atom  2       EATOM= -103.0669
 kinetic energy error for atom=    0.0005 (will be added to EATOM!!)
  PAW_PBE P 17Jan2003                   :
 energy of atom  3       EATOM= -176.0430
 kinetic energy error for atom=    0.0011 (will be added to EATOM!!)
  PAW_PBE S 17Jan2003                   :
 energy of atom  4       EATOM= -276.8230
 kinetic energy error for atom=    0.0016 (will be added to EATOM!!)


 POSCAR: Mn2 Si P S6                             
  positions in direct lattice
  velocities in cartesian coordinates
  No initial velocities read in
 exchange correlation table for  LEXCH =       42
   RHO(1)=    0.500       N(1)  =     2000
   RHO(2)=  100.500       N(2)  =     4000



--------------------------------------------------------------------------------------------------------


 ion  position               nearest neighbor table
   1  0.333  0.333  0.500-   6 2.78   5 2.78   7 2.78   8 2.78  10 2.78   9 2.78
   2  0.667  0.667  0.500-   9 2.78   8 2.78  10 2.78   5 2.78   7 2.78   6 2.78
   3  0.000  0.000  0.448-   4 2.43   8 2.63  10 2.63   9 2.63
   4  0.000  0.000  0.552-   3 2.43   5 2.63   7 2.63   6 2.63
   5  0.626  0.000  0.574-   4 2.63   1 2.78   2 2.78
   6  0.000  0.373  0.574-   4 2.63   1 2.78   2 2.78
   7  0.373  0.626  0.574-   4 2.63   1 2.78   2 2.78
   8  0.374  1.000  0.426-   3 2.63   2 2.78   1 2.78
   9  1.000  0.627  0.426-   3 2.63   2 2.78   1 2.78
  10  0.627  0.374  0.426-   3 2.63   2 2.78   1 2.78

  LATTYP: Found a hexagonal cell.
 ALAT       =     6.9077769333
 C/A-ratio  =     3.3939410937
  
  Lattice vectors:
  
 A1 = (   3.4538890000,  -5.9823100000,   0.0000000000)
 A2 = (  -6.9077770000,   0.0000000000,   0.0000000000)
 A3 = (   0.0000000000,   0.0000000000, -23.4445880000)


Analysis of symmetry for initial positions (statically):
=====================================================================
 Subroutine PRICEL returns:
 Original cell was already a primitive cell.
 

 Routine SETGRP: Setting up the symmetry group for a 
 hexagonal supercell.


 Subroutine GETGRP returns: Found  3 space group operations
 (whereof  3 operations were pure point group operations)
 out of a pool of 24 trial point group operations.


The static configuration has the point symmetry C_3 .


Analysis of symmetry for dynamics (positions and initial velocities):
=====================================================================
 Subroutine PRICEL returns:
 Original cell was already a primitive cell.
 

 Routine SETGRP: Setting up the symmetry group for a 
 hexagonal supercell.


 Subroutine GETGRP returns: Found  3 space group operations
 (whereof  3 operations were pure point group operations)
 out of a pool of 24 trial point group operations.


The dynamic configuration has the point symmetry C_3 .


Analysis of constrained symmetry for selective dynamics:
=====================================================================
 Subroutine PRICEL returns:
 Original cell was already a primitive cell.
 

 Routine SETGRP: Setting up the symmetry group for a 
 hexagonal supercell.


 Subroutine GETGRP returns: Found  3 space group operations
 (whereof  3 operations were pure point group operations)
 out of a pool of 24 trial point group operations.


The constrained configuration has the point symmetry C_3 .


Analysis of structural, dynamic, and magnetic symmetry:
=====================================================================
 Subroutine PRICEL returns:
 Original cell was already a primitive cell.
 

 Routine SETGRP: Setting up the symmetry group for a 
 hexagonal supercell.


 Subroutine GETGRP returns: Found  3 space group operations
 (whereof  3 operations were pure point group operations)
 out of a pool of 24 trial point group operations.


The magnetic configuration has the point symmetry C_3 .


 Subroutine INISYM returns: Found  3 space group operations
 (whereof  3 operations are pure point group operations),
 and found     1 'primitive' translations



 KPOINTS: Kpoints from vasprun.xml                

Automatic generation of k-mesh.
Space group operators:
 irot       det(A)        alpha          n_x          n_y          n_z        tau_x        tau_y        tau_z
    1     1.000000     0.000000     1.000000     0.000000     0.000000     0.000000     0.000000     0.000000
    2     1.000000   120.000000     0.000000     0.000000     1.000000     0.000000     0.000000     0.000000
    3     1.000000   120.000000     0.000000     0.000000    -1.000000     0.000000     0.000000     0.000000
 
 Subroutine IBZKPT returns following result:
 ===========================================
 
 Found      5 irreducible k-points:
 
 Following reciprocal coordinates:
            Coordinates               Weight
  0.000000  0.000000  0.000000      1.000000
  0.200000  0.000000  0.000000      6.000000
  0.400000  0.000000  0.000000      6.000000
  0.400000  0.200000  0.000000      6.000000
 -0.400000  0.200000  0.000000      6.000000
 
 Following cartesian coordinates:
            Coordinates               Weight
  0.000000  0.000000  0.000000      1.000000
  0.028953 -0.016716  0.000000      6.000000
  0.057906 -0.033432  0.000000      6.000000
  0.057906  0.000000  0.000000      6.000000
 -0.057906  0.066864  0.000000      6.000000
 
 TETIRR: Found     15 inequivalent tetrahedra from      150


--------------------------------------------------------------------------------------------------------




 Dimension of arrays:
   k-points           NKPTS =      5   k-points in BZ     NKDIM =      5   number of bands    NBANDS=     48
   number of dos      NEDOS =    301   number of ions     NIONS =     10
   non local maximal  LDIM  =      6   non local SUM 2l+1 LMDIM =     18
   total plane-waves  NPLWV = 524880
   max r-space proj   IRMAX =   8238   max aug-charges    IRDMAX=  20115
   dimension x,y,z NGX =    54 NGY =   54 NGZ =  180
   dimension x,y,z NGXF=   108 NGYF=  108 NGZF=  360
   support grid    NGXF=   108 NGYF=  108 NGZF=  360
   ions per type =               2   1   1   6
   NGX,Y,Z   is equivalent  to a cutoff of  13.00, 13.00, 12.76 a.u.
   NGXF,Y,Z  is equivalent  to a cutoff of  25.99, 25.99, 25.53 a.u.

 SYSTEM =  unknown system                          
 POSCAR =  Mn2 Si P S6                             

 Startparameter for this run:
   NWRITE =      2    write-flag & timer
   PREC   = accura    normal or accurate (medium, high low for compatibility)
   ISTART =      0    job   : 0-new  1-cont  2-samecut
   ICHARG =      2    charge: 1-file 2-atom 10-const
   ISPIN  =      2    spin polarized calculation?
   LNONCOLLINEAR =      F non collinear calculations
   LSORBIT =      F    spin-orbit coupling
   INIWAV =      1    electr: 0-lowe 1-rand  2-diag
   LASPH  =      F    aspherical Exc in radial PAW
   METAGGA=      F    non-selfconsistent MetaGGA calc.

 Electronic Relaxation 1
   ENCUT  =  520.0 eV  38.22 Ry    6.18 a.u.  12.84 12.84 43.59*2*pi/ulx,y,z
   ENINI  =  520.0     initial cutoff
   ENAUG  =  500.7 eV  augmentation charge cutoff
   NELM   =    400;   NELMIN=  2; NELMDL=  0     # of ELM steps 
   EDIFF  = 0.1E-03   stopping-criterion for ELM
   LREAL  =      T    real-space projection
   NLSPLINE    = F    spline interpolate recip. space projectors
   LCOMPAT=      F    compatible to vasp.4.4
   GGA_COMPAT  = T    GGA compatible to vasp.4.4-vasp.4.6
   LMAXPAW     = -100 max onsite density
   LMAXMIX     =    2 max onsite mixed and CHGCAR
   VOSKOWN=      0    Vosko Wilk Nusair interpolation
   ROPT   =   -0.00025  -0.00025  -0.00025  -0.00025
 Ionic relaxation
   EDIFFG = 0.1E-02   stopping-criterion for IOM
   NSW    =     99    number of steps for IOM
   NBLOCK =      1;   KBLOCK =     99    inner block; outer block 
   IBRION =      2    ionic relax: 0-MD 1-quasi-New 2-CG
   NFREE  =      1    steps in history (QN), initial steepest desc. (CG)
   ISIF   =      3    stress and relaxation
   IWAVPR =     11    prediction:  0-non 1-charg 2-wave 3-comb
   ISYM   =      2    0-nonsym 1-usesym 2-fastsym
   LCORR  =      T    Harris-Foulkes like correction to forces

   POTIM  = 0.5000    time-step for ionic-motion
   TEIN   =    0.0    initial temperature
   TEBEG  =    0.0;   TEEND  =   0.0 temperature during run
   SMASS  =  -3.00    Nose mass-parameter (am)
   estimated Nose-frequenzy (Omega)   =  0.10E-29 period in steps =****** mass=  -0.109E-26a.u.
   SCALEE = 1.0000    scale energy and forces
   NPACO  =    256;   APACO  = 16.0  distance and # of slots for P.C.
   PSTRESS=    0.0 pullay stress

  Mass of Ions in am
   POMASS =  54.94 28.09 30.97 32.07
  Ionic Valenz
   ZVAL   =   7.00  4.00  5.00  6.00
  Atomic Wigner-Seitz radii
   RWIGS  =  -1.00 -1.00 -1.00 -1.00
  virtual crystal weights 
   VCA    =   1.00  1.00  1.00  1.00
   NELECT =      59.0000    total number of electrons
   NUPDOWN=      -1.0000    fix difference up-down

 DOS related values:
   EMIN   =  10.00;   EMAX   =-10.00  energy-range for DOS
   EFERMI =   0.00
   ISMEAR =    -5;   SIGMA  =   0.05  broadening in eV -4-tet -1-fermi 0-gaus

 Electronic relaxation 2 (details)
   IALGO  =     38    algorithm
   LDIAG  =      T    sub-space diagonalisation (order eigenvalues)
   LSUBROT=      F    optimize rotation matrix (better conditioning)
   TURBO    =      0    0=normal 1=particle mesh
   IRESTART =      0    0=no restart 2=restart with 2 vectors
   NREBOOT  =      0    no. of reboots
   NMIN     =      0    reboot dimension
   EREF     =   0.00    reference energy to select bands
   IMIX   =      4    mixing-type and parameters
     AMIX     =   0.40;   BMIX     =  1.00
     AMIX_MAG =   1.60;   BMIX_MAG =  1.00
     AMIN     =   0.01
     WC   =   100.;   INIMIX=   1;  MIXPRE=   1;  MAXMIX= -45

 Intra band minimization:
   WEIMIN = 0.0010     energy-eigenvalue tresh-hold
   EBREAK =  0.52E-06  absolut break condition
   DEPER  =   0.30     relativ break condition  

   TIME   =   0.40     timestep for ELM

  volume/ion in A,a.u.               =      96.88       653.80
  Fermi-wavevector in a.u.,A,eV,Ry     =   0.644084  1.217141  5.644291  0.414844
  Thomas-Fermi vector in A             =   1.711295

 Write flags
   LWAVE        =      F    write WAVECAR
   LDOWNSAMPLE  =      F    k-point downsampling of WAVECAR
   LCHARG       =      T    write CHGCAR
   LVTOT        =      F    write LOCPOT, total local potential
   LVHAR        =      F    write LOCPOT, Hartree potential only
   LELF         =      F    write electronic localiz. function (ELF)
   LORBIT       =     11    0 simple, 1 ext, 2 COOP (PROOUT), +10 PAW based schemes


 Dipole corrections
   LMONO  =      F    monopole corrections only (constant potential shift)
   LDIPOL =      F    correct potential (dipole corrections)
   IDIPOL =      0    1-x, 2-y, 3-z, 4-all directions 
   EPSILON=  1.0000000 bulk dielectric constant

 Exchange correlation treatment:
   GGA     =    BO    GGA type
   LEXCH   =    42    internal setting for exchange type
   VOSKOWN=      0    Vosko Wilk Nusair interpolation
   LHFCALC =     F    Hartree Fock is set to
   LHFONE  =     F    Hartree Fock one center treatment
   AEXX    =    0.0000 exact exchange contribution

 vdW DFT:
   LUSE_VDW   =     T    switch on vdW DFT
   Zab_VDW    =-.8491    correlation parameter
   PARAM1     =0.1833
   PARAM2     =0.2200
   PARAM3     =0.0000
   -- rVV10 --
   BPARAM     = 6.3000
   CPARAM     = 0.0093

 Linear response parameters
   LEPSILON=     F    determine dielectric tensor
   LRPA    =     F    only Hartree local field effects (RPA)
   LNABLA  =     F    use nabla operator in PAW spheres
   LVEL    =     F    velocity operator in full k-point grid
   LINTERFAST=   F  fast interpolation
   KINTER  =     0    interpolate to denser k-point grid
   CSHIFT  =0.1000    complex shift for real part using Kramers Kronig
   OMEGAMAX=  -1.0    maximum frequency
   DEG_THRESHOLD= 0.2000000E-02 threshold for treating states as degnerate
   RTIME   =   -0.100 relaxation time in fs
  (WPLASMAI=    0.000 imaginary part of plasma frequency in eV, 0.658/RTIME)
   DFIELD  = 0.0000000 0.0000000 0.0000000 field for delta impulse in time

 Orbital magnetization related:
   ORBITALMAG=     F  switch on orbital magnetization
   LCHIMAG   =     F  perturbation theory with respect to B field
   DQ        =  0.001000  dq finite difference perturbation B field
   LLRAUG    =     F  two centre corrections for induced B field



--------------------------------------------------------------------------------------------------------


 conjugate gradient relaxation of ions
   using selective dynamics as specified on POSCAR
 charge density and potential will be updated during run
 spin polarized calculation
 Variant of blocked Davidson
 Davidson routine will perform the subspace rotation
 perform sub-space diagonalisation
    after iterative eigenvector-optimisation
 modified Broyden-mixing scheme, WC =      100.0
 initial mixing is a Kerker type mixing with AMIX =  0.4000 and BMIX =      1.0000
 Hartree-type preconditioning will be used
 using additional bands           18
 real space projection scheme for non local part
 use partial core corrections
 calculate Harris-corrections to forces   (improved forces if not selfconsistent)
 use gradient corrections 
 use of overlap-Matrix (Vanderbilt PP)
 Fermi weights with tetrahedron method with Bloechl corrections


--------------------------------------------------------------------------------------------------------


  energy-cutoff  :      520.00
  volume of cell :      968.84
      direct lattice vectors                 reciprocal lattice vectors
     6.907777000 -0.000000000  0.000000000     0.144764372 -0.083579742  0.000000000
     3.453888000  5.982310000  0.000000000     0.000000000  0.167159509 -0.000000000
     0.000000000  0.000000000 23.444588000    -0.000000000  0.000000000  0.042653767

  length of vectors
     6.907777000  6.907776433 23.444588000     0.167159495  0.167159509  0.042653767



 k-points in units of 2pi/SCALE and weight: Kpoints from vasprun.xml                
   0.00000000  0.00000000  0.00000000       0.040
   0.02895287 -0.01671595  0.00000000       0.240
   0.05790575 -0.03343190  0.00000000       0.240
   0.05790575  0.00000000  0.00000000       0.240
  -0.05790575  0.06686380  0.00000000       0.240

 k-points in reciprocal lattice and weights: Kpoints from vasprun.xml                
   0.00000000  0.00000000  0.00000000       0.040
   0.20000000  0.00000000  0.00000000       0.240
   0.40000000  0.00000000  0.00000000       0.240
   0.40000000  0.20000000  0.00000000       0.240
  -0.40000000  0.20000000  0.00000000       0.240

 position of ions in fractional coordinates (direct lattice) 
   0.33333300  0.33333300  0.49992500
   0.66666700  0.66666700  0.50007500
   0.00000000  0.00000000  0.44821600
   0.00000000  0.00000000  0.55178400
   0.62635700  0.00042000  0.57375200
   0.00042000  0.37322400  0.57375200
   0.37322400  0.62635700  0.57375200
   0.37364300  0.99958000  0.42624800
   0.99958000  0.62677600  0.42624800
   0.62677600  0.37364300  0.42624800

 position of ions in cartesian coordinates  (Angst):
   3.45388488  1.99410134 11.72053566
   6.90778012  3.98820866 11.72405234
   0.00000000  0.00000000 10.50823946
   0.00000000  0.00000000 12.93634854
   4.32818511  0.00251257 13.45137925
   1.29197516  2.23274167 13.45137925
   4.74151509  3.74706174 13.45137925
   6.03347989  5.97979743  9.99320875
   9.06968984  3.74956833  9.99320875
   5.62014991  2.23524826  9.99320875



--------------------------------------------------------------------------------------------------------


 k-point  1 :   0.0000 0.0000 0.0000  plane waves:   26073
 k-point  2 :   0.2000 0.0000 0.0000  plane waves:   26070
 k-point  3 :   0.4000 0.0000 0.0000  plane waves:   26086
 k-point  4 :   0.4000 0.2000 0.0000  plane waves:   26085
 k-point  5 :  -0.4000 0.2000 0.0000  plane waves:   26115

 maximum and minimum number of plane-waves per node :     26115    26070

 maximum number of plane-waves:     26115
 maximum index in each direction: 
   IXMAX=   13   IYMAX=   12   IZMAX=   43
   IXMIN=  -13   IYMIN=  -13   IZMIN=  -43


 serial   3D FFT for wavefunctions
 parallel 3D FFT for charge:
    minimum data exchange during FFTs selected (reduces bandwidth)


 total amount of memory used by VASP MPI-rank0   128589. kBytes
=======================================================================

   base      :      30000. kBytes
   nonlr-proj:       6104. kBytes
   fftplans  :      11247. kBytes
   grid      :      68332. kBytes
   one-center:        311. kBytes
   wavefun   :      12595. kBytes

     INWAV:  cpu time    0.0000: real time    0.0005
 Broyden mixing: mesh for mixing (old mesh)
   NGX = 25   NGY = 25   NGZ = 87
  (NGX  =108   NGY  =108   NGZ  =360)
  gives a total of  54375 points

 initial charge density was supplied:
 charge density of overlapping atoms calculated
 number of electron      59.0000000 magnetization       7.0000000
 keeping initial charge density in first step


--------------------------------------------------------------------------------------------------------


 Maximum index for non-local projection operator         7925
 Maximum index for augmentation-charges         1290 (set IRDMAX)


--------------------------------------------------------------------------------------------------------


 First call to EWALD:  gamma=   0.179
 Maximum number of real-space cells 4x 4x 1
 Maximum number of reciprocal cells 2x 2x 6

    FEWALD:  cpu time    0.0040: real time    0.0015


--------------------------------------- Iteration      1(   1)  ---------------------------------------


vdW kernel read from vdw_kernel.bindat
  0.0000  0.2424  0.5071  0.7962  1.1119  1.4567  1.8333  2.2446  2.6937  3.1842
  3.7199  4.3049  4.9438  5.6415  6.4036  7.2358  8.1446  9.1372 10.2212 11.4050
 12.6979 14.1099 15.6519 17.3360 19.1751 21.1837 23.3773 25.7729 28.3892 31.2465
 34.3669 37.7748 41.4965 45.5611 50.0000

    POTLOK:  cpu time   52.2960: real time   52.7881
    SETDIJ:  cpu time    0.0400: real time    0.0410
     EDDAV:  cpu time   21.1200: real time   22.6715
 BZINTS: Fermi energy:  5.931114; 59.000000 electrons
         Band energy: -12.788485;  BLOECHL correction: -0.060786
       DOS:  cpu time    0.0040: real time    0.0065
    --------------------------------------------
      LOOP:  cpu time   73.4600: real time   75.5071

 eigenvalue-minimisations  :   960
 total energy-change (2. order) : 0.4211469E+03  (-0.1719251E+04)
 number of electron      59.0000000 magnetization       7.0000000
 augmentation part       59.0000000 magnetization       7.0000000

 Free energy of the ion-electron system (eV)
  ---------------------------------------------------
  alpha Z        PSCENC =        20.52731372
  Ewald energy   TEWEN  =      6735.59374366
  -Hartree energ DENC   =     -9222.27087131
  -exchange      EXHF   =         0.00000000
  -V(xc)+E(xc)   XCENC  =        34.77291046
  PAW double counting   =      1335.93312625    -1254.83014081
  entropy T*S    EENTRO =         0.00000000
  eigenvalues    EBANDS =       -12.78848491
  atomic energy  EATOM  =      2784.20928046
  Solvation  Ediel_sol  =         0.00000000
  ---------------------------------------------------
  free energy    TOTEN  =       421.14687751 eV

  energy without entropy =      421.14687751  energy(sigma->0) =      421.14687751


--------------------------------------------------------------------------------------------------------




--------------------------------------- Iteration      1(   2)  ---------------------------------------


     EDDAV:  cpu time   26.7200: real time   27.6909
 BZINTS: Fermi energy: -0.949165; 59.000000 electrons
         Band energy:-399.768633;  BLOECHL correction: -0.138979
       DOS:  cpu time    0.0040: real time    0.0046
    --------------------------------------------
      LOOP:  cpu time   26.7240: real time   27.6955

 eigenvalue-minimisations  :  1200
 total energy-change (2. order) :-0.3869801E+03  (-0.3564937E+03)
 number of electron      59.0000000 magnetization       7.0000000
 augmentation part       59.0000000 magnetization       7.0000000

 Free energy of the ion-electron system (eV)
  ---------------------------------------------------
  alpha Z        PSCENC =        20.52731372
  Ewald energy   TEWEN  =      6735.59374366
  -Hartree energ DENC   =     -9222.27087131
  -exchange      EXHF   =         0.00000000
  -V(xc)+E(xc)   XCENC  =        34.77291046
  PAW double counting   =      1335.93312625    -1254.83014081
  entropy T*S    EENTRO =         0.00000000
  eigenvalues    EBANDS =      -399.76863308
  atomic energy  EATOM  =      2784.20928046
  Solvation  Ediel_sol  =         0.00000000
  ---------------------------------------------------
  free energy    TOTEN  =        34.16672934 eV

  energy without entropy =       34.16672934  energy(sigma->0) =       34.16672934


--------------------------------------------------------------------------------------------------------




--------------------------------------- Iteration      1(   3)  ---------------------------------------


     EDDAV:  cpu time   31.1280: real time   31.6266
 BZINTS: Fermi energy: -2.758517; 59.000000 electrons
         Band energy:-485.302001;  BLOECHL correction:  0.000000
       DOS:  cpu time    0.0040: real time    0.0031
    --------------------------------------------
      LOOP:  cpu time   31.1320: real time   31.6297

 eigenvalue-minimisations  :  1392
 total energy-change (2. order) :-0.8553337E+02  (-0.8192692E+02)
 number of electron      59.0000000 magnetization       7.0000000
 augmentation part       59.0000000 magnetization       7.0000000

 Free energy of the ion-electron system (eV)
  ---------------------------------------------------
  alpha Z        PSCENC =        20.52731372
  Ewald energy   TEWEN  =      6735.59374366
  -Hartree energ DENC   =     -9222.27087131
  -exchange      EXHF   =         0.00000000
  -V(xc)+E(xc)   XCENC  =        34.77291046
  PAW double counting   =      1335.93312625    -1254.83014081
  entropy T*S    EENTRO =         0.00000000
  eigenvalues    EBANDS =      -485.30200129
  atomic energy  EATOM  =      2784.20928046
  Solvation  Ediel_sol  =         0.00000000
  ---------------------------------------------------
  free energy    TOTEN  =       -51.36663886 eV

  energy without entropy =      -51.36663886  energy(sigma->0) =      -51.36663886


--------------------------------------------------------------------------------------------------------




--------------------------------------- Iteration      1(   4)  ---------------------------------------


     EDDAV:  cpu time   30.7480: real time   31.0936
 BZINTS: Fermi energy: -2.828663; 58.966083 electrons
         Band energy:-489.968532;  BLOECHL correction: -0.001106
       DOS:  cpu time    0.0080: real time    0.0084
    --------------------------------------------
      LOOP:  cpu time   30.7560: real time   31.1019

 eigenvalue-minimisations  :  1360
 total energy-change (2. order) :-0.4666531E+01  (-0.4634460E+01)
 number of electron      59.0000000 magnetization       7.0000000
 augmentation part       59.0000000 magnetization       7.0000000

 Free energy of the ion-electron system (eV)
  ---------------------------------------------------
  alpha Z        PSCENC =        20.52731372
  Ewald energy   TEWEN  =      6735.59374366
  -Hartree energ DENC   =     -9222.27087131
  -exchange      EXHF   =         0.00000000
  -V(xc)+E(xc)   XCENC  =        34.77291046
  PAW double counting   =      1335.93312625    -1254.83014081
  entropy T*S    EENTRO =         0.00000000
  eigenvalues    EBANDS =      -489.96853189
  atomic energy  EATOM  =      2784.20928046
  Solvation  Ediel_sol  =         0.00000000
  ---------------------------------------------------
  free energy    TOTEN  =       -56.03316947 eV

  energy without entropy =      -56.03316947  energy(sigma->0) =      -56.03316947


--------------------------------------------------------------------------------------------------------




--------------------------------------- Iteration      1(   5)  ---------------------------------------


     EDDAV:  cpu time   29.4120: real time   29.8761
 BZINTS: Fermi energy: -2.830081; 59.006034 electrons
         Band energy:-490.200576;  BLOECHL correction: -0.000867
       DOS:  cpu time    0.0200: real time    0.0205
    CHARGE:  cpu time    1.9240: real time    1.9516
    MIXING:  cpu time    0.0400: real time    0.0398
    --------------------------------------------
      LOOP:  cpu time   31.3960: real time   31.8880

 eigenvalue-minimisations  :  1312
 total energy-change (2. order) :-0.2320437E+00  (-0.1191208E+00)
 number of electron      59.0060329 magnetization       6.7862094
 augmentation part       -2.8904935 magnetization       4.9516387

 Broyden mixing:
  rms(total) = 0.26526E+01    rms(broyden)= 0.26523E+01
  rms(prec ) = 0.29682E+01
  weight for this iteration     100.00

 Free energy of the ion-electron system (eV)
  ---------------------------------------------------
  alpha Z        PSCENC =        20.52731372
  Ewald energy   TEWEN  =      6735.59374366
  -Hartree energ DENC   =     -9222.27087131
  -exchange      EXHF   =         0.00000000
  -V(xc)+E(xc)   XCENC  =        34.77291046
  PAW double counting   =      1335.93312625    -1254.83014081
  entropy T*S    EENTRO =         0.00000000
  eigenvalues    EBANDS =      -490.20057558
  atomic energy  EATOM  =      2784.20928046
  Solvation  Ediel_sol  =         0.00000000
  ---------------------------------------------------
  free energy    TOTEN  =       -56.26521315 eV

  energy without entropy =      -56.26521315  energy(sigma->0) =      -56.26521315


--------------------------------------------------------------------------------------------------------




--------------------------------------- Iteration      1(   6)  ---------------------------------------


    POTLOK:  cpu time   51.6120: real time   51.8114
    SETDIJ:  cpu time    0.0360: real time    0.0366
     EDDAV:  cpu time   29.2480: real time   29.4237
 BZINTS: Fermi energy: -4.961856; 59.000000 electrons
         Band energy:-643.776616;  BLOECHL correction: -0.021357
       DOS:  cpu time    0.0080: real time    0.0067
    CHARGE:  cpu time    1.9520: real time    1.9544
    MIXING:  cpu time    0.0400: real time    0.0429
    --------------------------------------------
      LOOP:  cpu time   82.8960: real time   83.2757

 eigenvalue-minimisations  :  1296
 total energy-change (2. order) :-0.7310017E+02  (-0.2724539E+02)
 number of electron      59.0000001 magnetization       6.5972930
 augmentation part        9.3807762 magnetization       6.1941865

 Broyden mixing:
  rms(total) = 0.66688E+01    rms(broyden)= 0.66686E+01
  rms(prec ) = 0.73248E+01
  weight for this iteration     100.00

 eigenvalues of (default mixing * dielectric matrix)
  average eigenvalue GAMMA=   0.2368
  0.2368

 Free energy of the ion-electron system (eV)
  ---------------------------------------------------
  alpha Z        PSCENC =        20.52731372
  Ewald energy   TEWEN  =      6735.59374366
  -Hartree energ DENC   =     -9150.51447295
  -exchange      EXHF   =         0.00000000
  -V(xc)+E(xc)   XCENC  =        34.80146858
  PAW double counting   =      1210.47734748    -1120.68344457
  entropy T*S    EENTRO =         0.00000000
  eigenvalues    EBANDS =      -643.77661642
  atomic energy  EATOM  =      2784.20928046
  Solvation  Ediel_sol  =         0.00000000
  ---------------------------------------------------
  free energy    TOTEN  =      -129.36538005 eV

  energy without entropy =     -129.36538005  energy(sigma->0) =     -129.36538005


--------------------------------------------------------------------------------------------------------




--------------------------------------- Iteration      1(   7)  ---------------------------------------


    POTLOK:  cpu time   52.0040: real time   52.4029
    SETDIJ:  cpu time    0.0360: real time    0.0376
     EDDAV:  cpu time   29.1360: real time   29.2789
 BZINTS: Fermi energy: -4.414117; 59.000000 electrons
         Band energy:-500.497672;  BLOECHL correction: -0.006876
       DOS:  cpu time    0.0040: real time    0.0071
    CHARGE:  cpu time    1.9680: real time    1.9662
    MIXING:  cpu time    0.0400: real time    0.0425
    --------------------------------------------
      LOOP:  cpu time   83.1880: real time   83.7353

 eigenvalue-minimisations  :  1280
 total energy-change (2. order) : 0.8441933E+02  (-0.9287656E+01)
 number of electron      59.0000001 magnetization       6.4656381
 augmentation part        2.9269688 magnetization       5.8020306

 Broyden mixing:
  rms(total) = 0.15781E+01    rms(broyden)= 0.15778E+01
  rms(prec ) = 0.17569E+01
  weight for this iteration     100.00

 eigenvalues of (default mixing * dielectric matrix)
  average eigenvalue GAMMA=   0.3713
  0.3713  0.3713

 Free energy of the ion-electron system (eV)
  ---------------------------------------------------
  alpha Z        PSCENC =        20.52731372
  Ewald energy   TEWEN  =      6735.59374366
  -Hartree energ DENC   =     -9199.74487442
  -exchange      EXHF   =         0.00000000
  -V(xc)+E(xc)   XCENC  =        33.77798769
  PAW double counting   =      1299.25777957    -1218.06961335
  entropy T*S    EENTRO =         0.00000000
  eigenvalues    EBANDS =      -500.49767218
  atomic energy  EATOM  =      2784.20928046
  Solvation  Ediel_sol  =         0.00000000
  ---------------------------------------------------
  free energy    TOTEN  =       -44.94605485 eV

  energy without entropy =      -44.94605485  energy(sigma->0) =      -44.94605485


--------------------------------------------------------------------------------------------------------




--------------------------------------- Iteration      1(   8)  ---------------------------------------


    POTLOK:  cpu time   52.0640: real time   52.2549
    SETDIJ:  cpu time    0.0400: real time    0.0396
     EDDAV:  cpu time   32.3680: real time   32.4772
 BZINTS: Fermi energy: -3.708205; 59.000000 electrons
         Band energy:-493.899052;  BLOECHL correction: -0.007280
       DOS:  cpu time    0.0040: real time    0.0069
    CHARGE:  cpu time    1.9960: real time    2.0148
    MIXING:  cpu time    0.0440: real time    0.0419
    --------------------------------------------
      LOOP:  cpu time   86.5160: real time   86.8353

 eigenvalue-minimisations  :  1440
 total energy-change (2. order) :-0.5157381E+00  (-0.1802175E+01)
 number of electron      58.9999997 magnetization       6.5263882
 augmentation part       -0.0327061 magnetization       4.1228550

 Broyden mixing:
  rms(total) = 0.14859E+01    rms(broyden)= 0.14858E+01
  rms(prec ) = 0.15182E+01
  weight for this iteration     100.00

 eigenvalues of (default mixing * dielectric matrix)
  average eigenvalue GAMMA=   0.3408
  0.3581  0.3322  0.3322

 Free energy of the ion-electron system (eV)
  ---------------------------------------------------
  alpha Z        PSCENC =        20.52731372
  Ewald energy   TEWEN  =      6735.59374366
  -Hartree energ DENC   =     -9206.77794511
  -exchange      EXHF   =         0.00000000
  -V(xc)+E(xc)   XCENC  =        34.17175891
  PAW double counting   =      1311.61382390    -1230.90071652
  entropy T*S    EENTRO =         0.00000000
  eigenvalues    EBANDS =      -493.89905196
  atomic energy  EATOM  =      2784.20928046
  Solvation  Ediel_sol  =         0.00000000
  ---------------------------------------------------
  free energy    TOTEN  =       -45.46179295 eV

  energy without entropy =      -45.46179295  energy(sigma->0) =      -45.46179295


--------------------------------------------------------------------------------------------------------




--------------------------------------- Iteration      1(   9)  ---------------------------------------


    POTLOK:  cpu time   51.1360: real time   51.2621
    SETDIJ:  cpu time    0.0360: real time    0.0357
     EDDAV:  cpu time   31.9600: real time   32.2487
 BZINTS: Fermi energy: -3.988753; 59.000000 electrons
         Band energy:-498.227887;  BLOECHL correction: -0.004902
       DOS:  cpu time    0.0040: real time    0.0068
    CHARGE:  cpu time    1.9720: real time    1.9898
    MIXING:  cpu time    0.0440: real time    0.0438
    --------------------------------------------
      LOOP:  cpu time   85.1520: real time   85.5869

 eigenvalue-minimisations  :  1456
 total energy-change (2. order) :-0.2814205E+00  (-0.1701779E+00)
 number of electron      58.9999998 magnetization       6.5644446
 augmentation part        0.8194856 magnetization       4.2846644

 Broyden mixing:
  rms(total) = 0.11702E+01    rms(broyden)= 0.11702E+01
  rms(prec ) = 0.11802E+01
  weight for this iteration     100.00

 eigenvalues of (default mixing * dielectric matrix)
  average eigenvalue GAMMA=   0.3307
  0.3703  0.3703  0.2910  0.2910

 Free energy of the ion-electron system (eV)
  ---------------------------------------------------
  alpha Z        PSCENC =        20.52731372
  Ewald energy   TEWEN  =      6735.59374366
  -Hartree energ DENC   =     -9203.16976888
  -exchange      EXHF   =         0.00000000
  -V(xc)+E(xc)   XCENC  =        34.69008552
  PAW double counting   =      1303.77948445    -1223.14546569
  entropy T*S    EENTRO =         0.00000000
  eigenvalues    EBANDS =      -498.22788667
  atomic energy  EATOM  =      2784.20928046
  Solvation  Ediel_sol  =         0.00000000
  ---------------------------------------------------
  free energy    TOTEN  =       -45.74321344 eV

  energy without entropy =      -45.74321344  energy(sigma->0) =      -45.74321344


--------------------------------------------------------------------------------------------------------




--------------------------------------- Iteration      1(  10)  ---------------------------------------


    POTLOK:  cpu time   50.7800: real time   50.9634
    SETDIJ:  cpu time    0.0400: real time    0.0380
     EDDAV:  cpu time   34.4320: real time   34.7060
 BZINTS: Fermi energy: -4.016047; 59.000000 electrons
         Band energy:-498.748737;  BLOECHL correction: -0.007697
       DOS:  cpu time    0.0040: real time    0.0072
    CHARGE:  cpu time    1.9720: real time    1.9922
    MIXING:  cpu time    0.0440: real time    0.0448
    --------------------------------------------
      LOOP:  cpu time   87.2720: real time   87.7515

 eigenvalue-minimisations  :  1568
 total energy-change (2. order) :-0.2294115E+00  (-0.9602394E-01)
 number of electron      58.9999998 magnetization       6.6506187
 augmentation part        0.9554265 magnetization       4.2292382

 Broyden mixing:
  rms(total) = 0.11586E+01    rms(broyden)= 0.11586E+01
  rms(prec ) = 0.11772E+01
  weight for this iteration     100.00

 eigenvalues of (default mixing * dielectric matrix)
  average eigenvalue GAMMA=   0.3671
  0.5311  0.5311  0.3251  0.3251  0.1234

 Free energy of the ion-electron system (eV)
  ---------------------------------------------------
  alpha Z        PSCENC =        20.52731372
  Ewald energy   TEWEN  =      6735.59374366
  -Hartree energ DENC   =     -9203.02964522
  -exchange      EXHF   =         0.00000000
  -V(xc)+E(xc)   XCENC  =        34.95592375
  PAW double counting   =      1303.10272820    -1222.58323270
  entropy T*S    EENTRO =         0.00000000
  eigenvalues    EBANDS =      -498.74873681
  atomic energy  EATOM  =      2784.20928046
  Solvation  Ediel_sol  =         0.00000000
  ---------------------------------------------------
  free energy    TOTEN  =       -45.97262494 eV

  energy without entropy =      -45.97262494  energy(sigma->0) =      -45.97262494


--------------------------------------------------------------------------------------------------------




--------------------------------------- Iteration      1(  11)  ---------------------------------------


    POTLOK:  cpu time   50.7600: real time   50.9405
    SETDIJ:  cpu time    0.0600: real time    0.0608
     EDDAV:  cpu time   32.5040: real time   32.7666
 BZINTS: Fermi energy: -4.067853; 59.000000 electrons
         Band energy:-499.208180;  BLOECHL correction: -0.011142
       DOS:  cpu time    0.0040: real time    0.0073
    CHARGE:  cpu time    1.9920: real time    2.0006
    MIXING:  cpu time    0.0440: real time    0.0434
    --------------------------------------------
      LOOP:  cpu time   85.3640: real time   85.8192

 eigenvalue-minimisations  :  1472
 total energy-change (2. order) :-0.2811578E+00  (-0.5114773E-01)
 number of electron      58.9999998 magnetization       6.9889789
 augmentation part        1.0356970 magnetization       4.5591042

 Broyden mixing:
  rms(total) = 0.10122E+01    rms(broyden)= 0.10122E+01
  rms(prec ) = 0.10229E+01
  weight for this iteration     100.00

 eigenvalues of (default mixing * dielectric matrix)
  average eigenvalue GAMMA=   0.5441
  0.9660  0.9660  0.4387  0.3896  0.3896  0.1145

 Free energy of the ion-electron system (eV)
  ---------------------------------------------------
  alpha Z        PSCENC =        20.52731372
  Ewald energy   TEWEN  =      6735.59374366
  -Hartree energ DENC   =     -9203.16816759
  -exchange      EXHF   =         0.00000000
  -V(xc)+E(xc)   XCENC  =        35.51282124
  PAW double counting   =      1302.55030055    -1222.27089474
  entropy T*S    EENTRO =         0.00000000
  eigenvalues    EBANDS =      -499.20817999
  atomic energy  EATOM  =      2784.20928046
  Solvation  Ediel_sol  =         0.00000000
  ---------------------------------------------------
  free energy    TOTEN  =       -46.25378270 eV

  energy without entropy =      -46.25378270  energy(sigma->0) =      -46.25378270


--------------------------------------------------------------------------------------------------------




--------------------------------------- Iteration      1(  12)  ---------------------------------------


    POTLOK:  cpu time   50.6240: real time   50.9017
    SETDIJ:  cpu time    0.0400: real time    0.0373
     EDDAV:  cpu time   32.8040: real time   32.9966
 BZINTS: Fermi energy: -4.133193; 59.000000 electrons
         Band energy:-500.916868;  BLOECHL correction: -0.011532
       DOS:  cpu time    0.0080: real time    0.0071
    CHARGE:  cpu time    1.9840: real time    2.0010
    MIXING:  cpu time    0.0440: real time    0.0442
    --------------------------------------------
      LOOP:  cpu time   85.5040: real time   85.9879

 eigenvalue-minimisations  :  1488
 total energy-change (2. order) :-0.5912862E+00  (-0.4535477E-01)
 number of electron      58.9999998 magnetization       7.4188394
 augmentation part        1.0247083 magnetization       4.8819098

 Broyden mixing:
  rms(total) = 0.60329E+00    rms(broyden)= 0.60327E+00
  rms(prec ) = 0.61655E+00
  weight for this iteration     100.00

 eigenvalues of (default mixing * dielectric matrix)
  average eigenvalue GAMMA=   0.6797
  1.2815  1.2815  0.6330  0.6330  0.4073  0.4073  0.1142

 Free energy of the ion-electron system (eV)
  ---------------------------------------------------
  alpha Z        PSCENC =        20.52731372
  Ewald energy   TEWEN  =      6735.59374366
  -Hartree energ DENC   =     -9203.28045354
  -exchange      EXHF   =         0.00000000
  -V(xc)+E(xc)   XCENC  =        37.52497714
  PAW double counting   =      1299.93779406    -1220.44085651
  entropy T*S    EENTRO =         0.00000000
  eigenvalues    EBANDS =      -500.91686791
  atomic energy  EATOM  =      2784.20928046
  Solvation  Ediel_sol  =         0.00000000
  ---------------------------------------------------
  free energy    TOTEN  =       -46.84506892 eV

  energy without entropy =      -46.84506892  energy(sigma->0) =      -46.84506892


--------------------------------------------------------------------------------------------------------




--------------------------------------- Iteration      1(  13)  ---------------------------------------


    POTLOK:  cpu time   50.8600: real time   50.9314
    SETDIJ:  cpu time    0.0400: real time    0.0373
     EDDAV:  cpu time   32.6520: real time   33.0509
 BZINTS: Fermi energy: -4.175836; 59.000000 electrons
         Band energy:-504.277551;  BLOECHL correction: -0.011635
       DOS:  cpu time    0.0040: real time    0.0070
    CHARGE:  cpu time    1.9720: real time    1.9711
    MIXING:  cpu time    0.0440: real time    0.0447
    --------------------------------------------
      LOOP:  cpu time   85.5720: real time   86.0424

 eigenvalue-minimisations  :  1488
 total energy-change (2. order) :-0.1431721E+00  (-0.3670781E-01)
 number of electron      58.9999998 magnetization       7.5817019
 augmentation part        1.0574628 magnetization       4.8496827

 Broyden mixing:
  rms(total) = 0.25893E+00    rms(broyden)= 0.25891E+00
  rms(prec ) = 0.28320E+00
  weight for this iteration     100.00

 eigenvalues of (default mixing * dielectric matrix)
  average eigenvalue GAMMA=   0.7530
  1.3054  1.3054  0.9561  0.9561  0.5810  0.4030  0.4030  0.1142

 Free energy of the ion-electron system (eV)
  ---------------------------------------------------
  alpha Z        PSCENC =        20.52731372
  Ewald energy   TEWEN  =      6735.59374366
  -Hartree energ DENC   =     -9201.75343502
  -exchange      EXHF   =         0.00000000
  -V(xc)+E(xc)   XCENC  =        40.14037629
  PAW double counting   =      1294.25371688    -1215.68168568
  entropy T*S    EENTRO =         0.00000000
  eigenvalues    EBANDS =      -504.27755129
  atomic energy  EATOM  =      2784.20928046
  Solvation  Ediel_sol  =         0.00000000
  ---------------------------------------------------
  free energy    TOTEN  =       -46.98824099 eV

  energy without entropy =      -46.98824099  energy(sigma->0) =      -46.98824099


--------------------------------------------------------------------------------------------------------




--------------------------------------- Iteration      1(  14)  ---------------------------------------


    POTLOK:  cpu time   50.8600: real time   51.1322
    SETDIJ:  cpu time    0.0360: real time    0.0371
     EDDAV:  cpu time   28.6800: real time   28.7771
 BZINTS: Fermi energy: -4.191775; 59.000000 electrons
         Band energy:-505.457063;  BLOECHL correction: -0.008938
       DOS:  cpu time    0.0040: real time    0.0074
    CHARGE:  cpu time    1.9680: real time    1.9899
    MIXING:  cpu time    0.0480: real time    0.0458
    --------------------------------------------
      LOOP:  cpu time   81.5960: real time   81.9896

 eigenvalue-minimisations  :  1280
 total energy-change (2. order) : 0.2709949E-01  (-0.1387102E-01)
 number of electron      58.9999998 magnetization       7.7562786
 augmentation part        0.9943108 magnetization       5.1255679

 Broyden mixing:
  rms(total) = 0.19864E+00    rms(broyden)= 0.19864E+00
  rms(prec ) = 0.21606E+00
  weight for this iteration     100.00

 eigenvalues of (default mixing * dielectric matrix)
  average eigenvalue GAMMA=   0.8556
  1.9083  1.3285  1.3285  0.9805  0.6156  0.6156  0.4046  0.4046  0.1142

 Free energy of the ion-electron system (eV)
  ---------------------------------------------------
  alpha Z        PSCENC =        20.52731372
  Ewald energy   TEWEN  =      6735.59374366
  -Hartree energ DENC   =     -9200.34863031
  -exchange      EXHF   =         0.00000000
  -V(xc)+E(xc)   XCENC  =        39.95830457
  PAW double counting   =      1292.46329924    -1213.90738935
  entropy T*S    EENTRO =         0.00000000
  eigenvalues    EBANDS =      -505.45706348
  atomic energy  EATOM  =      2784.20928046
  Solvation  Ediel_sol  =         0.00000000
  ---------------------------------------------------
  free energy    TOTEN  =       -46.96114150 eV

  energy without entropy =      -46.96114150  energy(sigma->0) =      -46.96114150


--------------------------------------------------------------------------------------------------------




--------------------------------------- Iteration      1(  15)  ---------------------------------------


    POTLOK:  cpu time   50.7160: real time   51.0374
    SETDIJ:  cpu time    0.0360: real time    0.0366
     EDDAV:  cpu time   34.0520: real time   34.4221
 BZINTS: Fermi energy: -4.191142; 59.000000 electrons
         Band energy:-505.938195;  BLOECHL correction: -0.011295
       DOS:  cpu time    0.0040: real time    0.0052
    CHARGE:  cpu time    1.9960: real time    1.9993
    MIXING:  cpu time    0.0480: real time    0.0464
    --------------------------------------------
      LOOP:  cpu time   86.8520: real time   87.5470

 eigenvalue-minimisations  :  1552
 total energy-change (2. order) : 0.1199167E-01  (-0.7379139E-02)
 number of electron      58.9999998 magnetization       7.8435477
 augmentation part        0.8641883 magnetization       5.4242859

 Broyden mixing:
  rms(total) = 0.10395E+00    rms(broyden)= 0.10395E+00
  rms(prec ) = 0.11003E+00
  weight for this iteration     100.00

 eigenvalues of (default mixing * dielectric matrix)
  average eigenvalue GAMMA=   0.8496
  1.8756  1.3346  1.3346  1.0731  0.4041  0.4041  0.6828  0.6828  0.5898  0.1142

 Free energy of the ion-electron system (eV)
  ---------------------------------------------------
  alpha Z        PSCENC =        20.52731372
  Ewald energy   TEWEN  =      6735.59374366
  -Hartree energ DENC   =     -9199.80303957
  -exchange      EXHF   =         0.00000000
  -V(xc)+E(xc)   XCENC  =        39.93586944
  PAW double counting   =      1292.76590702    -1214.24002948
  entropy T*S    EENTRO =         0.00000000
  eigenvalues    EBANDS =      -505.93819507
  atomic energy  EATOM  =      2784.20928046
  Solvation  Ediel_sol  =         0.00000000
  ---------------------------------------------------
  free energy    TOTEN  =       -46.94914983 eV

  energy without entropy =      -46.94914983  energy(sigma->0) =      -46.94914983


--------------------------------------------------------------------------------------------------------




--------------------------------------- Iteration      1(  16)  ---------------------------------------


    POTLOK:  cpu time   50.4640: real time   51.0432
    SETDIJ:  cpu time    0.0400: real time    0.0369
     EDDAV:  cpu time   31.4480: real time   31.7011
 BZINTS: Fermi energy: -4.182233; 59.000000 electrons
         Band energy:-505.709272;  BLOECHL correction: -0.013686
       DOS:  cpu time    0.0040: real time    0.0072
    CHARGE:  cpu time    1.9680: real time    1.9859
    MIXING:  cpu time    0.0480: real time    0.0511
    --------------------------------------------
      LOOP:  cpu time   83.9720: real time   84.8254

 eigenvalue-minimisations  :  1424
 total energy-change (2. order) :-0.9657959E-02  (-0.2785729E-02)
 number of electron      58.9999998 magnetization       7.8625750
 augmentation part        0.7974548 magnetization       5.6128060

 Broyden mixing:
  rms(total) = 0.39221E-01    rms(broyden)= 0.39211E-01
  rms(prec ) = 0.42049E-01
  weight for this iteration     100.00

 eigenvalues of (default mixing * dielectric matrix)
  average eigenvalue GAMMA=   0.9417
  1.3461  1.3461  1.6876  1.6876  1.2296  0.4042  0.4042  0.8469  0.6460  0.6460
  0.1142

 Free energy of the ion-electron system (eV)
  ---------------------------------------------------
  alpha Z        PSCENC =        20.52731372
  Ewald energy   TEWEN  =      6735.59374366
  -Hartree energ DENC   =     -9200.22907121
  -exchange      EXHF   =         0.00000000
  -V(xc)+E(xc)   XCENC  =        40.21381021
  PAW double counting   =      1294.13213587    -1215.69674860
  entropy T*S    EENTRO =         0.00000000
  eigenvalues    EBANDS =      -505.70927189
  atomic energy  EATOM  =      2784.20928046
  Solvation  Ediel_sol  =         0.00000000
  ---------------------------------------------------
  free energy    TOTEN  =       -46.95880779 eV

  energy without entropy =      -46.95880779  energy(sigma->0) =      -46.95880779


--------------------------------------------------------------------------------------------------------




--------------------------------------- Iteration      1(  17)  ---------------------------------------


    POTLOK:  cpu time   50.6560: real time   50.8314
    SETDIJ:  cpu time    0.0400: real time    0.0396
     EDDAV:  cpu time   28.3560: real time   28.8027
 BZINTS: Fermi energy: -4.176660; 59.000000 electrons
         Band energy:-505.446770;  BLOECHL correction: -0.010531
       DOS:  cpu time    0.0040: real time    0.0074
    CHARGE:  cpu time    2.0120: real time    2.0227
    MIXING:  cpu time    0.0480: real time    0.0481
    --------------------------------------------
      LOOP:  cpu time   81.1160: real time   81.7519

 eigenvalue-minimisations  :  1280
 total energy-change (2. order) :-0.5859401E-02  (-0.1978984E-02)
 number of electron      58.9999998 magnetization       7.8877689
 augmentation part        0.7800665 magnetization       5.6966615

 Broyden mixing:
  rms(total) = 0.22265E-01    rms(broyden)= 0.22258E-01
  rms(prec ) = 0.23869E-01
  weight for this iteration     100.00

 eigenvalues of (default mixing * dielectric matrix)
  average eigenvalue GAMMA=   0.9595
  1.3422  1.3422  1.6458  1.5673  1.5673  1.1295  0.4042  0.4042  0.6848  0.6848
  0.6273  0.1142

 Free energy of the ion-electron system (eV)
  ---------------------------------------------------
  alpha Z        PSCENC =        20.52731372
  Ewald energy   TEWEN  =      6735.59374366
  -Hartree energ DENC   =     -9200.57455827
  -exchange      EXHF   =         0.00000000
  -V(xc)+E(xc)   XCENC  =        40.26240500
  PAW double counting   =      1295.60622733    -1217.14230889
  entropy T*S    EENTRO =         0.00000000
  eigenvalues    EBANDS =      -505.44677019
  atomic energy  EATOM  =      2784.20928046
  Solvation  Ediel_sol  =         0.00000000
  ---------------------------------------------------
  free energy    TOTEN  =       -46.96466719 eV

  energy without entropy =      -46.96466719  energy(sigma->0) =      -46.96466719


--------------------------------------------------------------------------------------------------------




--------------------------------------- Iteration      1(  18)  ---------------------------------------


    POTLOK:  cpu time   50.8200: real time   51.0687
    SETDIJ:  cpu time    0.0360: real time    0.0369
     EDDAV:  cpu time   24.7040: real time   24.9830
 BZINTS: Fermi energy: -4.181627; 59.000000 electrons
         Band energy:-505.693688;  BLOECHL correction: -0.009949
       DOS:  cpu time    0.0080: real time    0.0068
    CHARGE:  cpu time    1.9840: real time    1.9862
    MIXING:  cpu time    0.0520: real time    0.0510
    --------------------------------------------
      LOOP:  cpu time   77.6040: real time   78.1327

 eigenvalue-minimisations  :  1088
 total energy-change (2. order) :-0.6050973E-03  (-0.4371248E-03)
 number of electron      58.9999998 magnetization       7.8979158
 augmentation part        0.7721430 magnetization       5.7408862

 Broyden mixing:
  rms(total) = 0.14801E-01    rms(broyden)= 0.14800E-01
  rms(prec ) = 0.16301E-01
  weight for this iteration     100.00

 eigenvalues of (default mixing * dielectric matrix)
  average eigenvalue GAMMA=   1.0131
  2.6205  1.3418  1.3418  1.5224  1.5224  0.1142  0.4042  0.4042  1.0358  0.8727
  0.6771  0.6771  0.6362

 Free energy of the ion-electron system (eV)
  ---------------------------------------------------
  alpha Z        PSCENC =        20.52731372
  Ewald energy   TEWEN  =      6735.59374366
  -Hartree energ DENC   =     -9200.33284681
  -exchange      EXHF   =         0.00000000
  -V(xc)+E(xc)   XCENC  =        40.25240198
  PAW double counting   =      1295.74573666    -1217.26721413
  entropy T*S    EENTRO =         0.00000000
  eigenvalues    EBANDS =      -505.69368782
  atomic energy  EATOM  =      2784.20928046
  Solvation  Ediel_sol  =         0.00000000
  ---------------------------------------------------
  free energy    TOTEN  =       -46.96527229 eV

  energy without entropy =      -46.96527229  energy(sigma->0) =      -46.96527229


--------------------------------------------------------------------------------------------------------




--------------------------------------- Iteration      1(  19)  ---------------------------------------


    POTLOK:  cpu time   50.8520: real time   50.9672
    SETDIJ:  cpu time    0.0800: real time    0.0883
     EDDAV:  cpu time   26.1960: real time   26.2945
 BZINTS: Fermi energy: -4.186978; 59.000000 electrons
         Band energy:-505.969370;  BLOECHL correction: -0.010281
       DOS:  cpu time    0.0040: real time    0.0074
    CHARGE:  cpu time    1.9720: real time    1.9720
    MIXING:  cpu time    0.0880: real time    0.0883
    --------------------------------------------
      LOOP:  cpu time   79.1920: real time   79.4178

 eigenvalue-minimisations  :  1152
 total energy-change (2. order) :-0.1439944E-02  (-0.7985931E-04)
 number of electron      58.9999998 magnetization       7.8976645
 augmentation part        0.7686996 magnetization       5.7575709

 Broyden mixing:
  rms(total) = 0.10505E-01    rms(broyden)= 0.10505E-01
  rms(prec ) = 0.12006E-01
  weight for this iteration     100.00

 eigenvalues of (default mixing * dielectric matrix)
  average eigenvalue GAMMA=   1.0142
  2.6712  1.3405  1.3405  1.5383  1.5383  1.1983  0.1142  0.4042  0.4042  0.8652
  0.8652  0.6507  0.6507  0.6174

 Free energy of the ion-electron system (eV)
  ---------------------------------------------------
  alpha Z        PSCENC =        20.52731372
  Ewald energy   TEWEN  =      6735.59374366
  -Hartree energ DENC   =     -9200.05588365
  -exchange      EXHF   =         0.00000000
  -V(xc)+E(xc)   XCENC  =        40.23410318
  PAW double counting   =      1295.72505252    -1217.23095249
  entropy T*S    EENTRO =         0.00000000
  eigenvalues    EBANDS =      -505.96936962
  atomic energy  EATOM  =      2784.20928046
  Solvation  Ediel_sol  =         0.00000000
  ---------------------------------------------------
  free energy    TOTEN  =       -46.96671223 eV

  energy without entropy =      -46.96671223  energy(sigma->0) =      -46.96671223


--------------------------------------------------------------------------------------------------------




--------------------------------------- Iteration      1(  20)  ---------------------------------------


    POTLOK:  cpu time   50.6440: real time   50.8168
    SETDIJ:  cpu time    0.0360: real time    0.0363
     EDDAV:  cpu time   25.4960: real time   25.5766
 BZINTS: Fermi energy: -4.191216; 59.000000 electrons
         Band energy:-506.202336;  BLOECHL correction: -0.010281
       DOS:  cpu time    0.0080: real time    0.0080
    CHARGE:  cpu time    1.9840: real time    1.9850
    MIXING:  cpu time    0.0520: real time    0.0520
    --------------------------------------------
      LOOP:  cpu time   78.2200: real time   78.4746

 eigenvalue-minimisations  :  1104
 total energy-change (2. order) :-0.4576418E-03  (-0.4459638E-04)
 number of electron      58.9999998 magnetization       7.9041962
 augmentation part        0.7710412 magnetization       5.7610231

 Broyden mixing:
  rms(total) = 0.99568E-02    rms(broyden)= 0.99561E-02
  rms(prec ) = 0.10656E-01
  weight for this iteration     100.00

 eigenvalues of (default mixing * dielectric matrix)
  average eigenvalue GAMMA=   1.0697
  2.7474  2.2233  1.3410  1.3410  1.4892  1.4892  0.9070  0.9070  0.1142  0.4042
  0.4042  0.7088  0.7088  0.6299  0.6299

 Free energy of the ion-electron system (eV)
  ---------------------------------------------------
  alpha Z        PSCENC =        20.52731372
  Ewald energy   TEWEN  =      6735.59374366
  -Hartree energ DENC   =     -9199.80938022
  -exchange      EXHF   =         0.00000000
  -V(xc)+E(xc)   XCENC  =        40.20778982
  PAW double counting   =      1295.66054641    -1217.15412741
  entropy T*S    EENTRO =         0.00000000
  eigenvalues    EBANDS =      -506.20233630
  atomic energy  EATOM  =      2784.20928046
  Solvation  Ediel_sol  =         0.00000000
  ---------------------------------------------------
  free energy    TOTEN  =       -46.96716988 eV

  energy without entropy =      -46.96716988  energy(sigma->0) =      -46.96716988


--------------------------------------------------------------------------------------------------------




--------------------------------------- Iteration      1(  21)  ---------------------------------------


    POTLOK:  cpu time   50.6800: real time   50.9929
    SETDIJ:  cpu time    0.0400: real time    0.0400
     EDDAV:  cpu time   22.8680: real time   23.0405
 BZINTS: Fermi energy: -4.196238; 59.000000 electrons
         Band energy:-506.498874;  BLOECHL correction: -0.010236
       DOS:  cpu time    0.0080: real time    0.0067
    CHARGE:  cpu time    2.0400: real time    2.0539
    MIXING:  cpu time    0.0520: real time    0.0544
    --------------------------------------------
      LOOP:  cpu time   75.6880: real time   76.1884

 eigenvalue-minimisations  :   976
 total energy-change (2. order) :-0.3818458E-03  (-0.2753098E-04)
 number of electron      58.9999998 magnetization       7.9108105
 augmentation part        0.7693986 magnetization       5.7715973

 Broyden mixing:
  rms(total) = 0.84611E-02    rms(broyden)= 0.84606E-02
  rms(prec ) = 0.93449E-02
  weight for this iteration     100.00

 eigenvalues of (default mixing * dielectric matrix)
  average eigenvalue GAMMA=   1.1304
  3.3008  2.4882  1.3409  1.3409  1.6342  1.6342  0.9925  0.9925  0.1142  0.4042
  0.4042  0.7643  0.7643  0.6492  0.6492  0.6128

 Free energy of the ion-electron system (eV)
  ---------------------------------------------------
  alpha Z        PSCENC =        20.52731372
  Ewald energy   TEWEN  =      6735.59374366
  -Hartree energ DENC   =     -9199.51731422
  -exchange      EXHF   =         0.00000000
  -V(xc)+E(xc)   XCENC  =        40.21419745
  PAW double counting   =      1295.61982368    -1217.11572239
  entropy T*S    EENTRO =         0.00000000
  eigenvalues    EBANDS =      -506.49887406
  atomic energy  EATOM  =      2784.20928046
  Solvation  Ediel_sol  =         0.00000000
  ---------------------------------------------------
  free energy    TOTEN  =       -46.96755172 eV

  energy without entropy =      -46.96755172  energy(sigma->0) =      -46.96755172


--------------------------------------------------------------------------------------------------------




--------------------------------------- Iteration      1(  22)  ---------------------------------------


    POTLOK:  cpu time   50.8240: real time   50.9205
    SETDIJ:  cpu time    0.0400: real time    0.0392
     EDDAV:  cpu time   24.6520: real time   24.9173
 BZINTS: Fermi energy: -4.203249; 59.000000 electrons
         Band energy:-506.922960;  BLOECHL correction: -0.010222
       DOS:  cpu time    0.0040: real time    0.0071
    CHARGE:  cpu time    1.9640: real time    1.9823
    MIXING:  cpu time    0.0560: real time    0.0579
    --------------------------------------------
      LOOP:  cpu time   77.5400: real time   77.9243

 eigenvalue-minimisations  :  1072
 total energy-change (2. order) :-0.2562316E-03  (-0.2078250E-04)
 number of electron      58.9999998 magnetization       7.9108520
 augmentation part        0.7693774 magnetization       5.7738076

 Broyden mixing:
  rms(total) = 0.56432E-02    rms(broyden)= 0.56431E-02
  rms(prec ) = 0.68155E-02
  weight for this iteration     100.00

 eigenvalues of (default mixing * dielectric matrix)
  average eigenvalue GAMMA=   1.1466
  3.6132  2.5705  1.3408  1.3408  1.7114  1.7114  1.0110  1.0110  0.1142  0.4042
  0.4042  0.8113  0.7898  0.7898  0.6343  0.6343  0.5999

 Free energy of the ion-electron system (eV)
  ---------------------------------------------------
  alpha Z        PSCENC =        20.52731372
  Ewald energy   TEWEN  =      6735.59374366
  -Hartree energ DENC   =     -9199.10655218
  -exchange      EXHF   =         0.00000000
  -V(xc)+E(xc)   XCENC  =        40.23431750
  PAW double counting   =      1295.61105867    -1217.11401027
  entropy T*S    EENTRO =         0.00000000
  eigenvalues    EBANDS =      -506.92295952
  atomic energy  EATOM  =      2784.20928046
  Solvation  Ediel_sol  =         0.00000000
  ---------------------------------------------------
  free energy    TOTEN  =       -46.96780795 eV

  energy without entropy =      -46.96780795  energy(sigma->0) =      -46.96780795


[...]
     34      -0.8208      0.00000
     35      -0.5006      0.00000
     36       0.0090      0.00000
     37       0.6830      0.00000
     38       0.8871      0.00000
     39       1.2249      0.00000
     40       1.6212      0.00000
     41       2.1633      0.00000
     42       2.2577      0.00000
     43       2.6153      0.00000
     44       2.7723      0.00000
     45       2.7919      0.00000
     46       3.4281      0.00000
     47       3.6812      0.00000
     48       3.8481      0.00000

 k-point     5 :      -0.4000    0.2000    0.0000
  band No.  band energies     occupation 
      1     -18.1899      1.00000
      2     -16.3553      1.00000
      3     -16.2087      1.00000
      4     -15.9914      1.00000
      5     -15.6220      1.00000
      6     -15.4799      1.00000
      7     -12.0162      1.00000
      8     -10.0032      1.00000
      9      -8.5699      1.00000
     10      -8.2186      1.00000
     11      -8.1207      1.00000
     12      -7.5658      1.00000
     13      -7.2355      1.00000
     14      -6.6031      1.00000
     15      -6.1470      1.00000
     16      -5.9272      1.00000
     17      -5.7457      1.00000
     18      -5.7051      1.00000
     19      -5.6124      1.00000
     20      -5.4822      1.00000
     21      -4.9040      1.00000
     22      -4.9017      1.00000
     23      -4.6809      1.00000
     24      -4.3769      1.00000
     25      -4.2342      1.00000
     26      -2.5901      0.00000
     27      -2.1478      0.00000
     28      -1.9902      0.00000
     29      -1.4058      0.00000
     30      -1.3805      0.00000
     31      -1.2991      0.00000
     32      -1.1247      0.00000
     33      -1.0037      0.00000
     34      -0.6721      0.00000
     35      -0.5766      0.00000
     36      -0.2219      0.00000
     37       0.4633      0.00000
     38       0.8847      0.00000
     39       1.0967      0.00000
     40       1.6961      0.00000
     41       1.8271      0.00000
     42       2.1712      0.00000
     43       2.8680      0.00000
     44       3.0652      0.00000
     45       3.2067      0.00000
     46       3.2999      0.00000
     47       3.4707      0.00000
     48       3.7110      0.00000


--------------------------------------------------------------------------------------------------------


 soft charge-density along one line, spin component           1
         0         1         2         3         4         5         6         7         8         9
 total charge-density along one line

 soft charge-density along one line, spin component           2
         0         1         2         3         4         5         6         7         8         9
 total charge-density along one line

 pseudopotential strength for first ion, spin component:           1
-11.933   0.045  -0.000   0.000  -0.000   0.838  -0.010   0.000
  0.045 -11.881   0.000   0.000   0.000  -0.010   0.827  -0.000
 -0.000   0.000 -11.937   0.000   0.000   0.000  -0.000   0.839
  0.000   0.000   0.000 -11.881  -0.045  -0.000  -0.000  -0.000
 -0.000   0.000   0.000  -0.045 -11.933   0.000  -0.000  -0.000
  0.838  -0.010   0.000  -0.000   0.000   0.303   0.002  -0.000
 -0.010   0.827  -0.000  -0.000  -0.000   0.002   0.306   0.000
  0.000  -0.000   0.839  -0.000  -0.000  -0.000   0.000   0.303
 -0.000  -0.000  -0.000   0.827   0.010   0.000   0.000   0.000
  0.000  -0.000  -0.000   0.010   0.838  -0.000   0.000   0.000
 -0.000  -0.000  -0.003  -0.000   0.000   0.000   0.000   0.001
  0.000   0.000   0.001   0.000  -0.000  -0.000  -0.000  -0.000
 -0.001   0.003   0.000  -0.000  -0.001   0.000  -0.001  -0.000
 -0.000  -0.000   0.006  -0.000  -0.000   0.000   0.000  -0.001
 -0.001  -0.000   0.000   0.003   0.001   0.000   0.000  -0.000
  0.001  -0.004  -0.000   0.000  -0.000  -0.000   0.001   0.000
  0.000   0.000  -0.006   0.000   0.000  -0.000  -0.000   0.001
 -0.000   0.000  -0.000  -0.004  -0.001  -0.000  -0.000   0.000
 pseudopotential strength for first ion, spin component:           2
 -9.582  -0.073  -0.000  -0.001  -0.000   0.278   0.015   0.000
 -0.073  -9.622   0.000   0.000  -0.001   0.015   0.286  -0.000
 -0.000   0.000  -9.506   0.000   0.000   0.000  -0.000   0.261
 -0.001   0.000   0.000  -9.622   0.073   0.000  -0.000  -0.000
 -0.000  -0.001   0.000   0.073  -9.582   0.000   0.000  -0.000
  0.278   0.015   0.000   0.000   0.000   0.434  -0.003  -0.000
  0.015   0.286  -0.000  -0.000   0.000  -0.003   0.433   0.000
  0.000  -0.000   0.261  -0.000  -0.000  -0.000   0.000   0.437
  0.000  -0.000  -0.000   0.286  -0.015  -0.000   0.000   0.000
  0.000   0.000  -0.000  -0.015   0.278  -0.000  -0.000   0.000
 -0.000  -0.000  -0.002  -0.000   0.000   0.000   0.000   0.001
  0.000   0.000   0.000   0.000  -0.000  -0.000  -0.000  -0.000
  0.001   0.008   0.000  -0.000   0.003  -0.000  -0.002  -0.000
 -0.000  -0.000   0.008  -0.000   0.000   0.000   0.000  -0.002
  0.003  -0.000   0.000   0.008  -0.002  -0.001   0.000  -0.000
 -0.001  -0.006  -0.000   0.000  -0.002   0.000   0.001   0.000
  0.000   0.000  -0.006   0.000  -0.000  -0.000  -0.000   0.001
 -0.002   0.000  -0.000  -0.006   0.001   0.000  -0.000   0.000
 total augmentation occupancy for first ion, spin component:           1
  1.064   0.065   0.000  -0.002  -0.000  -0.148   0.081  -0.000  -0.000   0.000  -0.000  -0.000  -0.007   0.000  -0.001   0.001
  0.065   1.113   0.000  -0.000  -0.002   0.080  -0.081   0.000   0.000  -0.000   0.000  -0.000  -0.007   0.000   0.003   0.004
  0.000   0.000   1.036   0.000  -0.000  -0.000   0.000  -0.205   0.000   0.000  -0.016  -0.019  -0.000   0.003  -0.000   0.000
 -0.002  -0.000   0.000   1.113  -0.065  -0.000  -0.000   0.000  -0.081  -0.080   0.000   0.000  -0.003   0.000  -0.007  -0.000
 -0.000  -0.002  -0.000  -0.065   1.064  -0.000  -0.000   0.000  -0.081  -0.148   0.000   0.000  -0.001  -0.000   0.007   0.001
 -0.148   0.080  -0.000  -0.000  -0.000   0.220   0.144   0.000  -0.009  -0.000   0.000  -0.000  -0.015  -0.000  -0.007   0.001
  0.081  -0.081   0.000  -0.000  -0.000   0.144   0.359   0.000  -0.000  -0.009   0.000   0.000  -0.022  -0.000  -0.003   0.000
 -0.000   0.000  -0.205   0.000   0.000   0.000   0.000   0.160   0.000  -0.000   0.024  -0.004  -0.000  -0.001  -0.000   0.000
 -0.000   0.000   0.000  -0.081  -0.081  -0.009  -0.000   0.000   0.359  -0.144   0.000   0.000   0.003  -0.000  -0.022  -0.000
  0.000  -0.000   0.000  -0.080  -0.148  -0.000  -0.009  -0.000  -0.144   0.220  -0.000   0.000  -0.007   0.000   0.015  -0.000
 -0.000   0.000  -0.016   0.000   0.000   0.000   0.000   0.024   0.000  -0.000   0.940  -0.155   0.000  -0.026   0.000   0.000
 -0.000  -0.000  -0.019  -0.000   0.000  -0.000   0.000  -0.004   0.000   0.000  -0.155   0.074   0.000   0.005   0.000   0.000
 -0.007  -0.007  -0.000  -0.003  -0.001  -0.015  -0.022  -0.000   0.003  -0.007   0.000   0.000   0.127  -0.000  -0.000  -0.005
  0.000   0.000   0.003   0.000  -0.000  -0.000  -0.000  -0.001  -0.000   0.000  -0.026   0.005  -0.000   0.134   0.000   0.000
 -0.001   0.003  -0.000  -0.007   0.007  -0.007  -0.003  -0.000  -0.022   0.015   0.000   0.000  -0.000   0.000   0.127   0.000
  0.001   0.004   0.000  -0.000   0.001   0.001   0.000   0.000  -0.000  -0.000   0.000   0.000  -0.005   0.000   0.000   0.000
  0.000  -0.000   0.004   0.000  -0.000  -0.000   0.000  -0.001   0.000   0.000   0.002  -0.001   0.000  -0.005  -0.000  -0.000
  0.001   0.000   0.000   0.004  -0.001  -0.000   0.000  -0.000   0.000  -0.001   0.000  -0.000  -0.000  -0.000  -0.005  -0.000
 total augmentation occupancy for first ion, spin component:           2
  0.857  -0.124   0.000  -0.000  -0.000  -0.303  -0.057  -0.000   0.004   0.000  -0.000  -0.000   0.009   0.000   0.012  -0.000
 -0.124   0.754  -0.000  -0.000  -0.000  -0.056  -0.352  -0.000   0.000   0.004   0.000  -0.000   0.012   0.000   0.002   0.003
  0.000  -0.000   0.932  -0.000  -0.000  -0.000  -0.000  -0.291  -0.000   0.000  -0.017  -0.013   0.000   0.002   0.000  -0.000
 -0.000  -0.000  -0.000   0.754   0.124   0.004  -0.000  -0.000  -0.352   0.056  -0.000   0.000  -0.002   0.000   0.012   0.000
 -0.000  -0.000  -0.000   0.124   0.857  -0.000   0.004   0.000   0.057  -0.303   0.000   0.000   0.012  -0.000  -0.009   0.001
 -0.303  -0.056  -0.000   0.004  -0.000   0.091   0.033   0.000  -0.003  -0.000   0.000   0.000  -0.003  -0.000  -0.006  -0.000
 -0.057  -0.352  -0.000  -0.000   0.004   0.033   0.129   0.000  -0.000  -0.003   0.000   0.000  -0.006   0.000  -0.003  -0.002
 -0.000  -0.000  -0.291  -0.000   0.000   0.000   0.000   0.085   0.000  -0.000   0.010   0.006   0.000  -0.001  -0.000  -0.000
  0.004   0.000  -0.000  -0.352   0.057  -0.003  -0.000   0.000   0.129  -0.033   0.000   0.000   0.003   0.000  -0.006   0.000
  0.000   0.004   0.000   0.056  -0.303  -0.000  -0.003  -0.000  -0.033   0.091  -0.000  -0.000  -0.006   0.000   0.003  -0.000
 -0.000  -0.000  -0.017  -0.000   0.000   0.000   0.000   0.010   0.000  -0.000   0.163   0.100   0.000  -0.001   0.000  -0.000
 -0.000  -0.000  -0.013  -0.000   0.000   0.000   0.000   0.006   0.000  -0.000   0.100  -0.033   0.000  -0.003  -0.000   0.000
  0.009   0.012   0.000  -0.002   0.012  -0.003  -0.006   0.000   0.003  -0.006   0.000   0.000   0.015  -0.000  -0.000   0.000
  0.000   0.000   0.002   0.000  -0.000  -0.000   0.000  -0.001  -0.000   0.000  -0.001  -0.003  -0.000   0.014   0.000  -0.000
  0.012   0.002   0.000   0.012  -0.009  -0.006  -0.003  -0.000  -0.006   0.003   0.000   0.000  -0.000   0.000   0.015   0.000
 -0.000   0.003  -0.000   0.000   0.001  -0.000  -0.002  -0.000   0.000  -0.000   0.000   0.000   0.000  -0.000   0.000  -0.000
  0.000  -0.000   0.004   0.000  -0.000  -0.000   0.000  -0.001  -0.000   0.000   0.000   0.000   0.000   0.000   0.000   0.000
  0.001  -0.000   0.000   0.003   0.000  -0.000  -0.000  -0.000  -0.002   0.000   0.000   0.000  -0.000   0.000   0.000   0.000


------------------------ aborting loop because EDIFF is reached ----------------------------------------





 total charge     

# of ion       s       p       d       tot
------------------------------------------
    1        0.240   0.255   4.905   5.400
    2        0.240   0.255   4.904   5.400
    3        0.722   0.901   0.000   1.623
    4        1.003   1.436   0.000   2.439
    5        1.370   2.364   0.000   3.734
    6        1.358   2.333   0.000   3.691
    7        1.367   2.347   0.000   3.714
    8        1.361   2.383   0.000   3.743
    9        1.353   2.396   0.000   3.749
   10        1.358   2.386   0.000   3.745
--------------------------------------------------
tot         10.373  17.056   9.809  37.238



 magnetization (x)

# of ion       s       p       d       tot
------------------------------------------
    1        0.030   0.027   3.943   4.000
    2        0.030   0.027   3.941   3.998
    3        0.006   0.027   0.000   0.033
    4        0.002   0.021   0.000   0.023
    5        0.009   0.028   0.000   0.037
    6        0.008   0.017   0.000   0.024
    7        0.008   0.017   0.000   0.026
    8        0.010   0.006   0.000   0.016
    9        0.008   0.022   0.000   0.030
   10        0.009   0.012   0.000   0.021
--------------------------------------------------
tot          0.121   0.204   7.883   8.208

    CHARGE:  cpu time    2.0400: real time    2.0429
    FORLOC:  cpu time    0.0640: real time    0.0636
    FORNL :  cpu time    6.5840: real time    6.7043
    STRESS:  cpu time   19.7800: real time   19.9044
    FORCOR:  cpu time   51.8920: real time   51.9764
    FORHAR:  cpu time    0.3280: real time    0.3523
    MIXING:  cpu time    0.0800: real time    0.0785
    OFIELD:  cpu time    0.0000: real time    0.0000

  FORCE on cell =-STRESS in cart. coord.  units (eV):
  Direction    XX          YY          ZZ          XY          YZ          ZX
  --------------------------------------------------------------------------------------
  Alpha Z    28.74255    28.74255    28.74255
  Ewald   10639.08344 10639.08013-12463.30826    -0.00105    -0.00053    -0.00095
  Hartree 11060.74222 11060.74249-10811.86325     0.00002     0.00004     0.00007
  E(xc)    -229.78496  -229.78496  -229.46159     0.00001     0.00000     0.00001
  Local  -22614.46375-22614.46233 22321.95395     0.00061     0.00027     0.00049
  n-local   484.94507   487.21006   485.76110     1.06759    -0.01263     0.01048
  augment   -55.99354   -55.99353   -58.68150     0.00003     0.00003     0.00001
  Kinetic   689.48295   682.57610   727.24520    -4.48274    -1.08740    -0.56667
  Fock        0.00000     0.00000     0.00000     0.00000     0.00000     0.00000
  -------------------------------------------------------------------------------------
  Total       0.43224     0.43224     0.38820    -0.00000     0.00000     0.00000
  in kB       1.00087     1.00087     0.89890    -0.00000     0.00000     0.00000
  external pressure =        0.97 kB  Pullay stress =        0.00 kB


 VOLUME and BASIS-vectors are now :
 -----------------------------------------------------------------------------
  energy-cutoff  :      520.00
  volume of cell :      691.92
      direct lattice vectors                 reciprocal lattice vectors
     6.010337472  0.000000134  0.000000000     0.166380011 -0.096059534 -0.000000000
     3.005168330  5.205104791 -0.000000000    -0.000000004  0.192119093  0.000000000
     0.000000000 -0.000000000 22.117104997    -0.000000000  0.000000000  0.045213874

  length of vectors
     6.010337472  6.010337143 22.117104997     0.192119083  0.192119093  0.045213874


 FORCES acting on ions
    electron-ion (+dipol)            ewald-force                    non-local-force                 convergence-correction
 -----------------------------------------------------------------------------------------------
   -.107E-03 -.404E-04 0.551E+01   0.506E-03 0.293E-03 -.637E+01   0.686E-18 -.216E-18 0.906E+00   -.239E-06 0.240E-06 -.473E-01
   0.913E-04 0.721E-04 0.515E+01   -.527E-03 -.305E-03 -.600E+01   -.279E-17 -.715E-17 0.900E+00   -.255E-06 0.206E-06 -.455E-01
   -.489E-04 -.303E-05 0.237E+03   -.225E-03 -.126E-03 -.233E+03   -.286E-17 -.604E-17 -.378E+01   0.500E-08 0.424E-07 -.152E-01
   0.435E-04 0.231E-04 -.254E+03   0.265E-03 0.148E-03 0.245E+03   0.204E-16 0.488E-17 0.861E+01   0.287E-07 0.655E-08 0.546E-02
   0.341E+02 -.625E-01 -.492E+03   -.372E+02 0.659E-01 0.495E+03   0.301E+01 0.249E-04 -.335E+01   0.276E-02 -.361E-02 -.685E-02
   -.171E+02 -.295E+02 -.492E+03   0.186E+02 0.322E+02 0.495E+03   -.150E+01 -.260E+01 -.335E+01   -.451E-02 -.588E-03 -.685E-02
   -.170E+02 0.296E+02 -.492E+03   0.185E+02 -.322E+02 0.495E+03   -.150E+01 0.260E+01 -.335E+01   0.174E-02 0.420E-02 -.685E-02
   -.116E+02 -.378E-01 0.492E+03   0.138E+02 0.420E-01 -.495E+03   -.225E+01 0.218E-02 0.262E+01   0.961E-02 -.422E-02 -.148E-01
   0.575E+01 0.100E+02 0.492E+03   -.688E+01 -.120E+02 -.495E+03   0.113E+01 0.195E+01 0.262E+01   -.846E-02 -.622E-02 -.148E-01
   0.582E+01 -.999E+01 0.492E+03   -.695E+01 0.120E+02 -.495E+03   0.112E+01 -.195E+01 0.262E+01   -.115E-02 0.104E-01 -.148E-01
 -----------------------------------------------------------------------------------------------
   -.255E-04 0.520E-04 -.426E+01   -.533E-14 -.711E-14 -.114E-12   0.000E+00 -.222E-15 0.444E+01   -.632E-06 0.482E-06 -.167E+00


 POSITION                                       TOTAL-FORCE (eV/Angst)
 -----------------------------------------------------------------------------------
      3.00517      1.73503     11.03025        -0.000000     -0.000000      0.002731
      6.01034      3.47007     11.03128        -0.000000      0.000000      0.001089
      0.00000     -0.00000      9.91477        -0.000000      0.000000     -0.112312
      0.00000     -0.00000     12.12973        -0.000000     -0.000000      0.029209
      4.01249     -0.00021     12.68375        -0.023595      0.000660      0.016969
      0.99875      1.73030     12.68375         0.012369      0.020104      0.016969
      4.00428      3.47502     12.68375         0.011226     -0.020764      0.016969
      5.07623      5.20444      9.47608         0.024267      0.001174      0.009459
      7.97940      3.41184      9.47608        -0.011117     -0.021603      0.009459
      4.97537      1.79392      9.47608        -0.013150      0.020429      0.009459
 -----------------------------------------------------------------------------------
    total drift:                               -0.000026      0.000052      0.014834


--------------------------------------------------------------------------------------------------------



  FREE ENERGIE OF THE ION-ELECTRON SYSTEM (eV)
  ---------------------------------------------------
  free  energy   TOTEN  =       -54.32883244 eV

  energy  without entropy=      -54.32883244  energy(sigma->0) =      -54.32883244

 d Force =-0.2129961E-03[-0.534E-03, 0.108E-03]  d Energy = 0.4344162E-03-0.647E-03
 d Force = 0.3934859E+00[ 0.397E+00, 0.390E+00]  d Ewald  = 0.1114259E+02-0.107E+02


--------------------------------------------------------------------------------------------------------


    POTLOK:  cpu time   52.1400: real time   52.2481


--------------------------------------------------------------------------------------------------------




--------------------------------------------------------------------------------------------------------


  
 reached required accuracy - stopping structural energy minimisation
     LOOP+:  cpu time  397.8480: real time  400.1679
    4ORBIT:  cpu time    0.0000: real time    0.0000



 total charge     

# of ion       s       p       d       tot
------------------------------------------
    1        0.240   0.255   4.905   5.400
    2        0.240   0.255   4.904   5.400
    3        0.722   0.901   0.000   1.623
    4        1.003   1.436   0.000   2.439
    5        1.370   2.364   0.000   3.734
    6        1.358   2.333   0.000   3.691
    7        1.367   2.347   0.000   3.714
    8        1.361   2.383   0.000   3.743
    9        1.353   2.396   0.000   3.749
   10        1.358   2.386   0.000   3.745
--------------------------------------------------
tot         10.373  17.056   9.809  37.238



 magnetization (x)

# of ion       s       p       d       tot
------------------------------------------
    1        0.030   0.027   3.943   4.000
    2        0.030   0.027   3.941   3.998
    3        0.006   0.027   0.000   0.033
    4        0.002   0.021   0.000   0.023
    5        0.009   0.028   0.000   0.037
    6        0.008   0.017   0.000   0.024
    7        0.008   0.017   0.000   0.026
    8        0.010   0.006   0.000   0.016
    9        0.008   0.022   0.000   0.030
   10        0.009   0.012   0.000   0.021
--------------------------------------------------
tot          0.121   0.204   7.883   8.208

 BZINTS: Fermi energy: -2.731153; 59.000000 electrons
         Band energy:-497.101784;  BLOECHL correction: -0.002084

 total amount of memory used by VASP MPI-rank0   131296. kBytes
=======================================================================

   base      :      30000. kBytes
   nonlr-proj:       8811. kBytes
   fftplans  :      11247. kBytes
   grid      :      68332. kBytes
   one-center:        311. kBytes
   wavefun   :      12595. kBytes

  
  
 General timing and accounting informations for this job:
 ========================================================
  
                  Total CPU time used (sec):    21624.455
                            User time (sec):    21199.956
                          System time (sec):      424.500
                         Elapsed time (sec):    21771.839
  
                   Maximum memory used (kb):      387988.
                   Average memory used (kb):           0.
  
                          Minor page faults:     12345436
                          Major page faults:            7
                 Voluntary context switches:         1155
