 vasp.5.4.4.18Apr17-6-g9f103f2a35 (build May  1 2020 15:48:39) complex           
 executed on             LinuxGNU date 2020.07.04  18:50:37
 running on   16 total cores
 distrk:  each k-point on   16 cores,    1 groups
 distr:  one band on NCORES_PER_BAND=   1 cores,   16 groups


--------------------------------------------------------------------------------------------------------


 INCAR:
 POTCAR:   PAW_PBE Fe 06Sep2000                   
 POTCAR:   PAW_PBE Si 05Jan2001                   
 POTCAR:    PAW_PBE P 17Jan2003                   
 POTCAR:   PAW_PBE Te 08Apr2002                   

 ----------------------------------------------------------------------------- 
|                                                                             |
|           W    W    AA    RRRRR   N    N  II  N    N   GGGG   !!!           |
|           W    W   A  A   R    R  NN   N  II  NN   N  G    G  !!!           |
|           W    W  A    A  R    R  N N  N  II  N N  N  G       !!!           |
|           W WW W  AAAAAA  RRRRR   N  N N  II  N  N N  G  GGG   !            |
|           WW  WW  A    A  R   R   N   NN  II  N   NN  G    G                |
|           W    W  A    A  R    R  N    N  II  N    N   GGGG   !!!           |
|                                                                             |
|      For optimal performance we recommend to set                            |
|        NCORE= 4 - approx SQRT( number of cores)                             |
|      NCORE specifies how many cores store one orbital (NPAR=cpu/NCORE).     |
|      This setting can  greatly improve the performance of VASP for DFT.     |
|      The default,   NCORE=1            might be grossly inefficient         |
|      on modern multi-core architectures or massively parallel machines.     |
|      Do your own testing !!!!                                               |
|      Unfortunately you need to use the default for GW and RPA calculations. |
|      (for HF NCORE is supported but not extensively tested yet)             |
|                                                                             |
 ----------------------------------------------------------------------------- 


 ----------------------------------------------------------------------------- 
|                                                                             |
|  ADVICE TO THIS USER RUNNING 'VASP/VAMP'   (HEAR YOUR MASTER'S VOICE ...):  |
|                                                                             |
|      You have switched on vdW-DFT.                                          |
|      This routine was written and supplied by Jiri Klimes.                  |
|      We recommed that you carefully read and cite the following             |
|      publication                                                            |
|      J. Klimes, D.R. Bowler, A. Michelides                                  |
|        J. Phys.: Cond Matt. 22 022201 (2010)                                |
|      J. Klimes, D.R. Bowler, A. Michelides                                  |
|        Phys. Rev. B. 83, 195131 (2011)                                      |
|      and references therein.                                                |
|                                                                             |
 ----------------------------------------------------------------------------- 

 POTCAR:   PAW_PBE Fe 06Sep2000                   
   VRHFIN =Fe:  d7 s1                                                           
   LEXCH  = PE                                                                  
   EATOM  =   594.4687 eV,   43.6922 Ry                                         
                                                                                
   TITEL  = PAW_PBE Fe 06Sep2000                                                
   LULTRA =        F    use ultrasoft PP ?                                      
   IUNSCR =        1    unscreen: 0-lin 1-nonlin 2-no                           
   RPACOR =    2.000    partial core radius                                     
   POMASS =   55.847; ZVAL   =    8.000    mass and valenz                      
   RCORE  =    2.300    outmost cutoff radius                                   
   RWIGS  =    2.460; RWIGS  =    1.302    wigner-seitz radius (au A)           
   ENMAX  =  267.883; ENMIN  =  200.912 eV                                      
   RCLOC  =    1.701    cutoff for local pot                                    
   LCOR   =        T    correct aug charges                                     
   LPAW   =        T    paw PP                                                  
   EAUG   =  511.368                                                            
   DEXC   =    -.022                                                            
   RMAX   =    2.817    core radius for proj-oper                               
   RAUG   =    1.300    factor for augmentation sphere                          
   RDEP   =    2.442    radius for radial grids                                 
   QCUT   =   -4.437; QGAM   =    8.874    optimization parameters              
                                                                                
   Description                                                                  
     l     E      TYP  RCUT    TYP  RCUT                                        
     2   .000     23  2.300                                                     
     2   .000     23  2.300                                                     
     0   .000     23  2.300                                                     
     0   .000     23  2.300                                                     
     1  -.200     23  2.300                                                     
     1   .000     23  2.300                                                     
     3   .000      7   .000                                                     
  local pseudopotential read in
  partial core-charges read in
  atomic valenz-charges read in
  non local Contribution for L=           2  read in
    real space projection operators read in
  non local Contribution for L=           2  read in
    real space projection operators read in
  non local Contribution for L=           0  read in
    real space projection operators read in
  non local Contribution for L=           0  read in
    real space projection operators read in
  non local Contribution for L=           1  read in
    real space projection operators read in
  non local Contribution for L=           1  read in
    real space projection operators read in
    PAW grid and wavefunctions read in

   number of l-projection  operators is LMAX  =           6
   number of lm-projection operators is LMMAX =          18

 POTCAR:   PAW_PBE Si 05Jan2001                   
   VRHFIN =Si: s2p2                                                             
   LEXCH  = PE                                                                  
   EATOM  =   103.0669 eV,    7.5752 Ry                                         
                                                                                
   TITEL  = PAW_PBE Si 05Jan2001                                                
   LULTRA =        F    use ultrasoft PP ?                                      
   IUNSCR =        1    unscreen: 0-lin 1-nonlin 2-no                           
   RPACOR =    1.500    partial core radius                                     
   POMASS =   28.085; ZVAL   =    4.000    mass and valenz                      
   RCORE  =    1.900    outmost cutoff radius                                   
   RWIGS  =    2.480; RWIGS  =    1.312    wigner-seitz radius (au A)           
   ENMAX  =  245.345; ENMIN  =  184.009 eV                                      
   ICORE  =        2    local potential                                         
   LCOR   =        T    correct aug charges                                     
   LPAW   =        T    paw PP                                                  
   EAUG   =  322.069                                                            
   DEXC   =    -.007                                                            
   RMAX   =    2.944    core radius for proj-oper                               
   RAUG   =    1.300    factor for augmentation sphere                          
   RDEP   =    1.993    radius for radial grids                                 
   QCUT   =   -4.246; QGAM   =    8.493    optimization parameters              
                                                                                
   Description                                                                  
     l     E      TYP  RCUT    TYP  RCUT                                        
     0   .000     23  1.900                                                     
     0   .000     23  1.900                                                     
     1   .000     23  1.900                                                     
     1   .000     23  1.900                                                     
     2   .000      7  1.900                                                     
  local pseudopotential read in
  partial core-charges read in
  atomic valenz-charges read in
  non local Contribution for L=           0  read in
    real space projection operators read in
  non local Contribution for L=           0  read in
    real space projection operators read in
  non local Contribution for L=           1  read in
    real space projection operators read in
  non local Contribution for L=           1  read in
    real space projection operators read in
    PAW grid and wavefunctions read in

   number of l-projection  operators is LMAX  =           4
   number of lm-projection operators is LMMAX =           8

 POTCAR:    PAW_PBE P 17Jan2003                   
   VRHFIN =P : s2p3                                                             
   LEXCH  = PE                                                                  
   EATOM  =   176.0430 eV,   12.9388 Ry                                         
                                                                                
   TITEL  = PAW_PBE P 17Jan2003                                                 
   LULTRA =        F    use ultrasoft PP ?                                      
   IUNSCR =        1    unscreen: 0-lin 1-nonlin 2-no                           
   RPACOR =    1.500    partial core radius                                     
   POMASS =   30.974; ZVAL   =    5.000    mass and valenz                      
   RCORE  =    1.900    outmost cutoff radius                                   
   RWIGS  =    2.330; RWIGS  =    1.233    wigner-seitz radius (au A)           
   ENMAX  =  270.000; ENMIN  =  191.280 eV                                      
   ICORE  =        2    local potential                                         
   LCOR   =        T    correct aug charges                                     
   LPAW   =        T    paw PP                                                  
   EAUG   =  342.924                                                            
   DEXC   =    -.002                                                            
   RMAX   =    2.887    core radius for proj-oper                               
   RAUG   =    1.300    factor for augmentation sphere                          
   RDEP   =    1.931    radius for radial grids                                 
   QCUT   =   -4.330; QGAM   =    8.659    optimization parameters              
                                                                                
   Description                                                                  
     l     E      TYP  RCUT    TYP  RCUT                                        
     0   .000     23  1.900                                                     
     0   .000     23  1.900                                                     
     1   .000     23  1.900                                                     
     1   .000     23  1.900                                                     
     2   .000     23  1.900                                                     
  local pseudopotential read in
  partial core-charges read in
  atomic valenz-charges read in
  non local Contribution for L=           0  read in
    real space projection operators read in
  non local Contribution for L=           0  read in
    real space projection operators read in
  non local Contribution for L=           1  read in
    real space projection operators read in
  non local Contribution for L=           1  read in
    real space projection operators read in
    PAW grid and wavefunctions read in

   number of l-projection  operators is LMAX  =           4
   number of lm-projection operators is LMMAX =           8

 POTCAR:   PAW_PBE Te 08Apr2002                   
   VRHFIN =Te: s2p4                                                             
   LEXCH  = PE                                                                  
   EATOM  =   223.2721 eV,   16.4100 Ry                                         
                                                                                
   TITEL  = PAW_PBE Te 08Apr2002                                                
   LULTRA =        F    use ultrasoft PP ?                                      
   IUNSCR =        1    unscreen: 0-lin 1-nonlin 2-no                           
   RPACOR =    2.200    partial core radius                                     
   POMASS =  127.600; ZVAL   =    6.000    mass and valenz                      
   RCORE  =    2.300    outmost cutoff radius                                   
   RWIGS  =    2.900; RWIGS  =    1.535    wigner-seitz radius (au A)           
   ENMAX  =  174.982; ENMIN  =  131.236 eV                                      
   ICORE  =        3    local potential                                         
   LCOR   =        T    correct aug charges                                     
   LPAW   =        T    paw PP                                                  
   EAUG   =  368.792                                                            
   DEXC   =    -.169                                                            
   RMAX   =    3.486    core radius for proj-oper                               
   RAUG   =    1.300    factor for augmentation sphere                          
   RDEP   =    2.397    radius for radial grids                                 
   QCUT   =   -3.586; QGAM   =    7.172    optimization parameters              
                                                                                
   Description                                                                  
     l     E      TYP  RCUT    TYP  RCUT                                        
     0   .000     23  2.300                                                     
     0   .000     23  2.300                                                     
     1   .000     23  2.300                                                     
     1   .000     23  2.300                                                     
     2   .000     23  2.300                                                     
     3  -.100     23  2.300                                                     
  local pseudopotential read in
  partial core-charges read in
  atomic valenz-charges read in
  non local Contribution for L=           0  read in
    real space projection operators read in
  non local Contribution for L=           0  read in
    real space projection operators read in
  non local Contribution for L=           1  read in
    real space projection operators read in
  non local Contribution for L=           1  read in
    real space projection operators read in
  non local Contribution for L=           2  read in
    real space projection operators read in
    PAW grid and wavefunctions read in

   number of l-projection  operators is LMAX  =           5
   number of lm-projection operators is LMMAX =          13

 Optimization of the real space projectors (new method)

 maximal supplied QI-value         = 16.25
 optimisation between [QCUT,QGAM] = [ 11.54, 23.24] = [ 37.28,151.24] Ry 
 Optimized for a Real-space Cutoff    1.53 Angstroem

   l    n(q)    QCUT    max X(q) W(low)/X(q) W(high)/X(q)  e(spline) 
   2     10    11.539     4.378    0.86E-05    0.15E-04    0.46E-07
   2     10    11.539    23.237    0.11E-03    0.14E-03    0.22E-06
   0     11    11.539    17.641    0.19E-04    0.14E-05    0.18E-07
   0     11    11.539    50.908    0.43E-04    0.16E-04    0.30E-06
   1     10    11.539     6.148    0.11E-04    0.38E-05    0.26E-07
   1     10    11.539     8.345    0.44E-04    0.25E-04    0.11E-06
 Optimization of the real space projectors (new method)

 maximal supplied QI-value         = 19.84
 optimisation between [QCUT,QGAM] = [ 11.51, 23.22] = [ 37.09,150.92] Ry 
 Optimized for a Real-space Cutoff    1.21 Angstroem

   l    n(q)    QCUT    max X(q) W(low)/X(q) W(high)/X(q)  e(spline) 
   0      8    11.508     8.708    0.18E-04    0.44E-05    0.47E-08
   0      8    11.508   106.241    0.70E-04    0.15E-03    0.51E-07
   1      8    11.508     5.901    0.63E-05    0.23E-04    0.21E-07
   1      8    11.508    73.241    0.15E-03    0.36E-04    0.79E-07
 Optimization of the real space projectors (new method)

 maximal supplied QI-value         = 19.84
 optimisation between [QCUT,QGAM] = [ 11.51, 23.22] = [ 37.09,150.92] Ry 
 Optimized for a Real-space Cutoff    1.21 Angstroem

   l    n(q)    QCUT    max X(q) W(low)/X(q) W(high)/X(q)  e(spline) 
   0      8    11.508     6.651    0.19E-04    0.31E-05    0.49E-08
   0      8    11.508    90.285    0.95E-04    0.17E-03    0.51E-07
   1      8    11.508     4.328    0.14E-04    0.32E-04    0.22E-07
   1      8    11.508    54.583    0.16E-03    0.71E-04    0.89E-07
 Optimization of the real space projectors (new method)

 maximal supplied QI-value         = 16.25
 optimisation between [QCUT,QGAM] = [ 11.54, 23.24] = [ 37.28,151.24] Ry 
 Optimized for a Real-space Cutoff    1.36 Angstroem

   l    n(q)    QCUT    max X(q) W(low)/X(q) W(high)/X(q)  e(spline) 
   0      9    11.539     7.090    0.13E-04    0.25E-05    0.51E-08
   0      9    11.539   101.654    0.53E-04    0.69E-04    0.12E-06
   1      9    11.539     5.276    0.20E-04    0.98E-05    0.24E-07
   1      9    11.539    81.891    0.24E-03    0.13E-04    0.15E-06
   2      9    11.539     5.599    0.30E-04    0.97E-04    0.54E-07

 ----------------------------------------------------------------------------- 
|                                                                             |
|  ADVICE TO THIS USER RUNNING 'VASP/VAMP'   (HEAR YOUR MASTER'S VOICE ...):  |
|                                                                             |
|      You enforced a specific xc-type in the INCAR file,                     |
|      a different type was found on the POTCAR file                          |
|          I HOPE YOU KNOW, WHAT YOU ARE  DOING                               |
|                                                                             |
 ----------------------------------------------------------------------------- 

 PAW_PBE Fe 06Sep2000                   :
 energy of atom  1       EATOM= -594.4687
 kinetic energy error for atom=    0.0026 (will be added to EATOM!!)
 PAW_PBE Si 05Jan2001                   :
 energy of atom  2       EATOM= -103.0669
 kinetic energy error for atom=    0.0005 (will be added to EATOM!!)
  PAW_PBE P 17Jan2003                   :
 energy of atom  3       EATOM= -176.0430
 kinetic energy error for atom=    0.0011 (will be added to EATOM!!)
 PAW_PBE Te 08Apr2002                   :
 energy of atom  4       EATOM= -223.2721
 kinetic energy error for atom=    0.0007 (will be added to EATOM!!)


 POSCAR: Fe2 Si P Te6                            
  positions in direct lattice
  velocities in cartesian coordinates
  No initial velocities read in
 exchange correlation table for  LEXCH =       42
   RHO(1)=    0.500       N(1)  =     2000
   RHO(2)=  100.500       N(2)  =     4000



--------------------------------------------------------------------------------------------------------


 ion  position               nearest neighbor table
   1  0.333  0.333  0.500-   6 2.78   5 2.78   7 2.78   8 2.78  10 2.78   9 2.78
   2  0.667  0.667  0.500-   9 2.78   8 2.78  10 2.78   5 2.78   7 2.78   6 2.78
   3  0.000  0.000  0.448-   4 2.43   8 2.63  10 2.63   9 2.63
   4  0.000  0.000  0.552-   3 2.43   5 2.63   7 2.63   6 2.63
   5  0.626  0.000  0.574-   4 2.63   1 2.78   2 2.78
   6  0.000  0.373  0.574-   4 2.63   1 2.78   2 2.78
   7  0.373  0.626  0.574-   4 2.63   1 2.78   2 2.78
   8  0.374  1.000  0.426-   3 2.63   2 2.78   1 2.78
   9  1.000  0.627  0.426-   3 2.63   2 2.78   1 2.78
  10  0.627  0.374  0.426-   3 2.63   2 2.78   1 2.78

  LATTYP: Found a hexagonal cell.
 ALAT       =     6.9077769333
 C/A-ratio  =     3.3939410937
  
  Lattice vectors:
  
 A1 = (   3.4538890000,  -5.9823100000,   0.0000000000)
 A2 = (  -6.9077770000,   0.0000000000,   0.0000000000)
 A3 = (   0.0000000000,   0.0000000000, -23.4445880000)


Analysis of symmetry for initial positions (statically):
=====================================================================
 Subroutine PRICEL returns:
 Original cell was already a primitive cell.
 

 Routine SETGRP: Setting up the symmetry group for a 
 hexagonal supercell.


 Subroutine GETGRP returns: Found  3 space group operations
 (whereof  3 operations were pure point group operations)
 out of a pool of 24 trial point group operations.


The static configuration has the point symmetry C_3 .


Analysis of symmetry for dynamics (positions and initial velocities):
=====================================================================
 Subroutine PRICEL returns:
 Original cell was already a primitive cell.
 

 Routine SETGRP: Setting up the symmetry group for a 
 hexagonal supercell.


 Subroutine GETGRP returns: Found  3 space group operations
 (whereof  3 operations were pure point group operations)
 out of a pool of 24 trial point group operations.


The dynamic configuration has the point symmetry C_3 .


Analysis of constrained symmetry for selective dynamics:
=====================================================================
 Subroutine PRICEL returns:
 Original cell was already a primitive cell.
 

 Routine SETGRP: Setting up the symmetry group for a 
 hexagonal supercell.


 Subroutine GETGRP returns: Found  3 space group operations
 (whereof  3 operations were pure point group operations)
 out of a pool of 24 trial point group operations.


The constrained configuration has the point symmetry C_3 .


Analysis of structural, dynamic, and magnetic symmetry:
=====================================================================
 Subroutine PRICEL returns:
 Original cell was already a primitive cell.
 

 Routine SETGRP: Setting up the symmetry group for a 
 hexagonal supercell.


 Subroutine GETGRP returns: Found  3 space group operations
 (whereof  3 operations were pure point group operations)
 out of a pool of 24 trial point group operations.


The magnetic configuration has the point symmetry C_3 .


 Subroutine INISYM returns: Found  3 space group operations
 (whereof  3 operations are pure point group operations),
 and found     1 'primitive' translations



 KPOINTS: Kpoints from vasprun.xml                

Automatic generation of k-mesh.
Space group operators:
 irot       det(A)        alpha          n_x          n_y          n_z        tau_x        tau_y        tau_z
    1     1.000000     0.000000     1.000000     0.000000     0.000000     0.000000     0.000000     0.000000
    2     1.000000   120.000000     0.000000     0.000000     1.000000     0.000000     0.000000     0.000000
    3     1.000000   120.000000     0.000000     0.000000    -1.000000     0.000000     0.000000     0.000000
 
 Subroutine IBZKPT returns following result:
 ===========================================
 
 Found      5 irreducible k-points:
 
 Following reciprocal coordinates:
            Coordinates               Weight
  0.000000  0.000000  0.000000      1.000000
  0.200000  0.000000  0.000000      6.000000
  0.400000  0.000000  0.000000      6.000000
  0.400000  0.200000  0.000000      6.000000
 -0.400000  0.200000  0.000000      6.000000
 
 Following cartesian coordinates:
            Coordinates               Weight
  0.000000  0.000000  0.000000      1.000000
  0.028953 -0.016716  0.000000      6.000000
  0.057906 -0.033432  0.000000      6.000000
  0.057906  0.000000  0.000000      6.000000
 -0.057906  0.066864  0.000000      6.000000
 
 TETIRR: Found     15 inequivalent tetrahedra from      150


--------------------------------------------------------------------------------------------------------




 Dimension of arrays:
   k-points           NKPTS =      5   k-points in BZ     NKDIM =      5   number of bands    NBANDS=     48
   number of dos      NEDOS =    301   number of ions     NIONS =     10
   non local maximal  LDIM  =      6   non local SUM 2l+1 LMDIM =     18
   total plane-waves  NPLWV = 524880
   max r-space proj   IRMAX =   8238   max aug-charges    IRDMAX=  31706
   dimension x,y,z NGX =    54 NGY =   54 NGZ =  180
   dimension x,y,z NGXF=   108 NGYF=  108 NGZF=  360
   support grid    NGXF=   108 NGYF=  108 NGZF=  360
   ions per type =               2   1   1   6
   NGX,Y,Z   is equivalent  to a cutoff of  13.00, 13.00, 12.76 a.u.
   NGXF,Y,Z  is equivalent  to a cutoff of  25.99, 25.99, 25.53 a.u.

 SYSTEM =  unknown system                          
 POSCAR =  Fe2 Si P Te6                            

 Startparameter for this run:
   NWRITE =      2    write-flag & timer
   PREC   = accura    normal or accurate (medium, high low for compatibility)
   ISTART =      0    job   : 0-new  1-cont  2-samecut
   ICHARG =      2    charge: 1-file 2-atom 10-const
   ISPIN  =      2    spin polarized calculation?
   LNONCOLLINEAR =      F non collinear calculations
   LSORBIT =      F    spin-orbit coupling
   INIWAV =      1    electr: 0-lowe 1-rand  2-diag
   LASPH  =      F    aspherical Exc in radial PAW
   METAGGA=      F    non-selfconsistent MetaGGA calc.

 Electronic Relaxation 1
   ENCUT  =  520.0 eV  38.22 Ry    6.18 a.u.  12.84 12.84 43.59*2*pi/ulx,y,z
   ENINI  =  520.0     initial cutoff
   ENAUG  =  511.4 eV  augmentation charge cutoff
   NELM   =    400;   NELMIN=  2; NELMDL=  0     # of ELM steps 
   EDIFF  = 0.1E-03   stopping-criterion for ELM
   LREAL  =      T    real-space projection
   NLSPLINE    = F    spline interpolate recip. space projectors
   LCOMPAT=      F    compatible to vasp.4.4
   GGA_COMPAT  = T    GGA compatible to vasp.4.4-vasp.4.6
   LMAXPAW     = -100 max onsite density
   LMAXMIX     =    2 max onsite mixed and CHGCAR
   VOSKOWN=      0    Vosko Wilk Nusair interpolation
   ROPT   =   -0.00025  -0.00025  -0.00025  -0.00025
 Ionic relaxation
   EDIFFG = 0.1E-02   stopping-criterion for IOM
   NSW    =     99    number of steps for IOM
   NBLOCK =      1;   KBLOCK =     99    inner block; outer block 
   IBRION =      2    ionic relax: 0-MD 1-quasi-New 2-CG
   NFREE  =      1    steps in history (QN), initial steepest desc. (CG)
   ISIF   =      3    stress and relaxation
   IWAVPR =     11    prediction:  0-non 1-charg 2-wave 3-comb
   ISYM   =      2    0-nonsym 1-usesym 2-fastsym
   LCORR  =      T    Harris-Foulkes like correction to forces

   POTIM  = 0.5000    time-step for ionic-motion
   TEIN   =    0.0    initial temperature
   TEBEG  =    0.0;   TEEND  =   0.0 temperature during run
   SMASS  =  -3.00    Nose mass-parameter (am)
   estimated Nose-frequenzy (Omega)   =  0.10E-29 period in steps =****** mass=  -0.109E-26a.u.
   SCALEE = 1.0000    scale energy and forces
   NPACO  =    256;   APACO  = 16.0  distance and # of slots for P.C.
   PSTRESS=    0.0 pullay stress

  Mass of Ions in am
   POMASS =  55.85 28.09 30.97127.60
  Ionic Valenz
   ZVAL   =   8.00  4.00  5.00  6.00
  Atomic Wigner-Seitz radii
   RWIGS  =  -1.00 -1.00 -1.00 -1.00
  virtual crystal weights 
   VCA    =   1.00  1.00  1.00  1.00
   NELECT =      61.0000    total number of electrons
   NUPDOWN=      -1.0000    fix difference up-down

 DOS related values:
   EMIN   =  10.00;   EMAX   =-10.00  energy-range for DOS
   EFERMI =   0.00
   ISMEAR =    -5;   SIGMA  =   0.05  broadening in eV -4-tet -1-fermi 0-gaus

 Electronic relaxation 2 (details)
   IALGO  =     38    algorithm
   LDIAG  =      T    sub-space diagonalisation (order eigenvalues)
   LSUBROT=      F    optimize rotation matrix (better conditioning)
   TURBO    =      0    0=normal 1=particle mesh
   IRESTART =      0    0=no restart 2=restart with 2 vectors
   NREBOOT  =      0    no. of reboots
   NMIN     =      0    reboot dimension
   EREF     =   0.00    reference energy to select bands
   IMIX   =      4    mixing-type and parameters
     AMIX     =   0.40;   BMIX     =  1.00
     AMIX_MAG =   1.60;   BMIX_MAG =  1.00
     AMIN     =   0.01
     WC   =   100.;   INIMIX=   1;  MIXPRE=   1;  MAXMIX= -45

 Intra band minimization:
   WEIMIN = 0.0010     energy-eigenvalue tresh-hold
   EBREAK =  0.52E-06  absolut break condition
   DEPER  =   0.30     relativ break condition  

   TIME   =   0.40     timestep for ELM

  volume/ion in A,a.u.               =      96.88       653.80
  Fermi-wavevector in a.u.,A,eV,Ry     =   0.651281  1.230742  5.771135  0.424166
  Thomas-Fermi vector in A             =   1.720830

 Write flags
   LWAVE        =      F    write WAVECAR
   LDOWNSAMPLE  =      F    k-point downsampling of WAVECAR
   LCHARG       =      T    write CHGCAR
   LVTOT        =      F    write LOCPOT, total local potential
   LVHAR        =      F    write LOCPOT, Hartree potential only
   LELF         =      F    write electronic localiz. function (ELF)
   LORBIT       =     11    0 simple, 1 ext, 2 COOP (PROOUT), +10 PAW based schemes


 Dipole corrections
   LMONO  =      F    monopole corrections only (constant potential shift)
   LDIPOL =      F    correct potential (dipole corrections)
   IDIPOL =      0    1-x, 2-y, 3-z, 4-all directions 
   EPSILON=  1.0000000 bulk dielectric constant

 Exchange correlation treatment:
   GGA     =    BO    GGA type
   LEXCH   =    42    internal setting for exchange type
   VOSKOWN=      0    Vosko Wilk Nusair interpolation
   LHFCALC =     F    Hartree Fock is set to
   LHFONE  =     F    Hartree Fock one center treatment
   AEXX    =    0.0000 exact exchange contribution

 vdW DFT:
   LUSE_VDW   =     T    switch on vdW DFT
   Zab_VDW    =-.8491    correlation parameter
   PARAM1     =0.1833
   PARAM2     =0.2200
   PARAM3     =0.0000
   -- rVV10 --
   BPARAM     = 6.3000
   CPARAM     = 0.0093

 Linear response parameters
   LEPSILON=     F    determine dielectric tensor
   LRPA    =     F    only Hartree local field effects (RPA)
   LNABLA  =     F    use nabla operator in PAW spheres
   LVEL    =     F    velocity operator in full k-point grid
   LINTERFAST=   F  fast interpolation
   KINTER  =     0    interpolate to denser k-point grid
   CSHIFT  =0.1000    complex shift for real part using Kramers Kronig
   OMEGAMAX=  -1.0    maximum frequency
   DEG_THRESHOLD= 0.2000000E-02 threshold for treating states as degnerate
   RTIME   =   -0.100 relaxation time in fs
  (WPLASMAI=    0.000 imaginary part of plasma frequency in eV, 0.658/RTIME)
   DFIELD  = 0.0000000 0.0000000 0.0000000 field for delta impulse in time

 Orbital magnetization related:
   ORBITALMAG=     F  switch on orbital magnetization
   LCHIMAG   =     F  perturbation theory with respect to B field
   DQ        =  0.001000  dq finite difference perturbation B field
   LLRAUG    =     F  two centre corrections for induced B field



--------------------------------------------------------------------------------------------------------


 conjugate gradient relaxation of ions
   using selective dynamics as specified on POSCAR
 charge density and potential will be updated during run
 spin polarized calculation
 Variant of blocked Davidson
 Davidson routine will perform the subspace rotation
 perform sub-space diagonalisation
    after iterative eigenvector-optimisation
 modified Broyden-mixing scheme, WC =      100.0
 initial mixing is a Kerker type mixing with AMIX =  0.4000 and BMIX =      1.0000
 Hartree-type preconditioning will be used
 using additional bands           17
 real space projection scheme for non local part
 use partial core corrections
 calculate Harris-corrections to forces   (improved forces if not selfconsistent)
 use gradient corrections 
 use of overlap-Matrix (Vanderbilt PP)
 Fermi weights with tetrahedron method with Bloechl corrections


--------------------------------------------------------------------------------------------------------


  energy-cutoff  :      520.00
  volume of cell :      968.84
      direct lattice vectors                 reciprocal lattice vectors
     6.907777000 -0.000000000  0.000000000     0.144764372 -0.083579742  0.000000000
     3.453888000  5.982310000  0.000000000     0.000000000  0.167159509 -0.000000000
     0.000000000  0.000000000 23.444588000    -0.000000000  0.000000000  0.042653767

  length of vectors
     6.907777000  6.907776433 23.444588000     0.167159495  0.167159509  0.042653767



 k-points in units of 2pi/SCALE and weight: Kpoints from vasprun.xml                
   0.00000000  0.00000000  0.00000000       0.040
   0.02895287 -0.01671595  0.00000000       0.240
   0.05790575 -0.03343190  0.00000000       0.240
   0.05790575  0.00000000  0.00000000       0.240
  -0.05790575  0.06686380  0.00000000       0.240

 k-points in reciprocal lattice and weights: Kpoints from vasprun.xml                
   0.00000000  0.00000000  0.00000000       0.040
   0.20000000  0.00000000  0.00000000       0.240
   0.40000000  0.00000000  0.00000000       0.240
   0.40000000  0.20000000  0.00000000       0.240
  -0.40000000  0.20000000  0.00000000       0.240

 position of ions in fractional coordinates (direct lattice) 
   0.33333300  0.33333300  0.49992500
   0.66666700  0.66666700  0.50007500
   0.00000000  0.00000000  0.44821600
   0.00000000  0.00000000  0.55178400
   0.62635700  0.00042000  0.57375200
   0.00042000  0.37322400  0.57375200
   0.37322400  0.62635700  0.57375200
   0.37364300  0.99958000  0.42624800
   0.99958000  0.62677600  0.42624800
   0.62677600  0.37364300  0.42624800

 position of ions in cartesian coordinates  (Angst):
   3.45388488  1.99410134 11.72053566
   6.90778012  3.98820866 11.72405234
   0.00000000  0.00000000 10.50823946
   0.00000000  0.00000000 12.93634854
   4.32818511  0.00251257 13.45137925
   1.29197516  2.23274167 13.45137925
   4.74151509  3.74706174 13.45137925
   6.03347989  5.97979743  9.99320875
   9.06968984  3.74956833  9.99320875
   5.62014991  2.23524826  9.99320875



--------------------------------------------------------------------------------------------------------


 k-point  1 :   0.0000 0.0000 0.0000  plane waves:   26073
 k-point  2 :   0.2000 0.0000 0.0000  plane waves:   26070
 k-point  3 :   0.4000 0.0000 0.0000  plane waves:   26086
 k-point  4 :   0.4000 0.2000 0.0000  plane waves:   26085
 k-point  5 :  -0.4000 0.2000 0.0000  plane waves:   26115

 maximum and minimum number of plane-waves per node :     26115    26070

 maximum number of plane-waves:     26115
 maximum index in each direction: 
   IXMAX=   13   IYMAX=   12   IZMAX=   43
   IXMIN=  -13   IYMIN=  -13   IZMIN=  -43


 serial   3D FFT for wavefunctions
 parallel 3D FFT for charge:
    minimum data exchange during FFTs selected (reduces bandwidth)


 total amount of memory used by VASP MPI-rank0   130781. kBytes
=======================================================================

   base      :      30000. kBytes
   nonlr-proj:       8281. kBytes
   fftplans  :      11247. kBytes
   grid      :      68332. kBytes
   one-center:        311. kBytes
   wavefun   :      12610. kBytes

     INWAV:  cpu time    0.0000: real time    0.0004
 Broyden mixing: mesh for mixing (old mesh)
   NGX = 25   NGY = 25   NGZ = 87
  (NGX  =108   NGY  =108   NGZ  =360)
  gives a total of  54375 points

 initial charge density was supplied:
 charge density of overlapping atoms calculated
 number of electron      61.0000000 magnetization      12.0600000
 keeping initial charge density in first step


--------------------------------------------------------------------------------------------------------


 Maximum index for non-local projection operator         7925
 Maximum index for augmentation-charges         2278 (set IRDMAX)


--------------------------------------------------------------------------------------------------------


 First call to EWALD:  gamma=   0.179
 Maximum number of real-space cells 4x 4x 1
 Maximum number of reciprocal cells 2x 2x 6

    FEWALD:  cpu time    0.0000: real time    0.0015


--------------------------------------- Iteration      1(   1)  ---------------------------------------


vdW kernel read from vdw_kernel.bindat
  0.0000  0.2424  0.5071  0.7962  1.1119  1.4567  1.8333  2.2446  2.6937  3.1842
  3.7199  4.3049  4.9438  5.6415  6.4036  7.2358  8.1446  9.1372 10.2212 11.4050
 12.6979 14.1099 15.6519 17.3360 19.1751 21.1837 23.3773 25.7729 28.3892 31.2465
 34.3669 37.7748 41.4965 45.5611 50.0000

    POTLOK:  cpu time   52.4480: real time   52.7592
    SETDIJ:  cpu time    0.0520: real time    0.0537
     EDDAV:  cpu time   22.9480: real time   23.2916
 BZINTS: Fermi energy:  6.038074; 61.000000 electrons
         Band energy:  28.252482;  BLOECHL correction: -0.032268
       DOS:  cpu time    0.0040: real time    0.0067
    --------------------------------------------
      LOOP:  cpu time   75.4520: real time   76.1112

 eigenvalue-minimisations  :   960
 total energy-change (2. order) : 0.3944475E+03  (-0.1805845E+04)
 number of electron      61.0000000 magnetization      12.0600000
 augmentation part       61.0000000 magnetization      12.0600000

 Free energy of the ion-electron system (eV)
  ---------------------------------------------------
  alpha Z        PSCENC =        14.30261306
  Ewald energy   TEWEN  =      7259.79945079
  -Hartree energ DENC   =     -9808.17198303
  -exchange      EXHF   =         0.00000000
  -V(xc)+E(xc)   XCENC  =      -174.06358531
  PAW double counting   =      1664.63706918    -1410.86460359
  entropy T*S    EENTRO =         0.00000000
  eigenvalues    EBANDS =        28.25248226
  atomic energy  EATOM  =      2820.55608801
  Solvation  Ediel_sol  =         0.00000000
  ---------------------------------------------------
  free energy    TOTEN  =       394.44753137 eV

  energy without entropy =      394.44753137  energy(sigma->0) =      394.44753137


--------------------------------------------------------------------------------------------------------




--------------------------------------- Iteration      1(   2)  ---------------------------------------


     EDDAV:  cpu time   28.6640: real time   29.0404
 BZINTS: Fermi energy: -0.409689; 61.000000 electrons
         Band energy:-357.654565;  BLOECHL correction: -0.083760
       DOS:  cpu time    0.0040: real time    0.0047
    --------------------------------------------
      LOOP:  cpu time   28.6680: real time   29.0451

 eigenvalue-minimisations  :  1232
 total energy-change (2. order) :-0.3859070E+03  (-0.3647649E+03)
 number of electron      61.0000000 magnetization      12.0600000
 augmentation part       61.0000000 magnetization      12.0600000

 Free energy of the ion-electron system (eV)
  ---------------------------------------------------
  alpha Z        PSCENC =        14.30261306
  Ewald energy   TEWEN  =      7259.79945079
  -Hartree energ DENC   =     -9808.17198303
  -exchange      EXHF   =         0.00000000
  -V(xc)+E(xc)   XCENC  =      -174.06358531
  PAW double counting   =      1664.63706918    -1410.86460359
  entropy T*S    EENTRO =         0.00000000
  eigenvalues    EBANDS =      -357.65456511
  atomic energy  EATOM  =      2820.55608801
  Solvation  Ediel_sol  =         0.00000000
  ---------------------------------------------------
  free energy    TOTEN  =         8.54048400 eV

  energy without entropy =        8.54048400  energy(sigma->0) =        8.54048400


--------------------------------------------------------------------------------------------------------




--------------------------------------- Iteration      1(   3)  ---------------------------------------


     EDDAV:  cpu time   29.8320: real time   30.1260
 BZINTS: Fermi energy: -1.334223; 61.000000 electrons
         Band energy:-405.684446;  BLOECHL correction: -0.030579
       DOS:  cpu time    0.0080: real time    0.0063
    --------------------------------------------
      LOOP:  cpu time   29.8400: real time   30.1323

 eigenvalue-minimisations  :  1280
 total energy-change (2. order) :-0.4802988E+02  (-0.4667784E+02)
 number of electron      61.0000000 magnetization      12.0600000
 augmentation part       61.0000000 magnetization      12.0600000

 Free energy of the ion-electron system (eV)
  ---------------------------------------------------
  alpha Z        PSCENC =        14.30261306
  Ewald energy   TEWEN  =      7259.79945079
  -Hartree energ DENC   =     -9808.17198303
  -exchange      EXHF   =         0.00000000
  -V(xc)+E(xc)   XCENC  =      -174.06358531
  PAW double counting   =      1664.63706918    -1410.86460359
  entropy T*S    EENTRO =         0.00000000
  eigenvalues    EBANDS =      -405.68444559
  atomic energy  EATOM  =      2820.55608801
  Solvation  Ediel_sol  =         0.00000000
  ---------------------------------------------------
  free energy    TOTEN  =       -39.48939648 eV

  energy without entropy =      -39.48939648  energy(sigma->0) =      -39.48939648


--------------------------------------------------------------------------------------------------------




--------------------------------------- Iteration      1(   4)  ---------------------------------------


     EDDAV:  cpu time   29.3280: real time   29.9003
 BZINTS: Fermi energy: -1.397907; 61.000000 electrons
         Band energy:-407.773819;  BLOECHL correction: -0.015124
       DOS:  cpu time    0.0040: real time    0.0041
    --------------------------------------------
      LOOP:  cpu time   29.3320: real time   29.9044

 eigenvalue-minimisations  :  1280
 total energy-change (2. order) :-0.2089373E+01  (-0.2090057E+01)
 number of electron      61.0000000 magnetization      12.0600000
 augmentation part       61.0000000 magnetization      12.0600000

 Free energy of the ion-electron system (eV)
  ---------------------------------------------------
  alpha Z        PSCENC =        14.30261306
  Ewald energy   TEWEN  =      7259.79945079
  -Hartree energ DENC   =     -9808.17198303
  -exchange      EXHF   =         0.00000000
  -V(xc)+E(xc)   XCENC  =      -174.06358531
  PAW double counting   =      1664.63706918    -1410.86460359
  entropy T*S    EENTRO =         0.00000000
  eigenvalues    EBANDS =      -407.77381863
  atomic energy  EATOM  =      2820.55608801
  Solvation  Ediel_sol  =         0.00000000
  ---------------------------------------------------
  free energy    TOTEN  =       -41.57876952 eV

  energy without entropy =      -41.57876952  energy(sigma->0) =      -41.57876952


--------------------------------------------------------------------------------------------------------




--------------------------------------- Iteration      1(   5)  ---------------------------------------


     EDDAV:  cpu time   33.7680: real time   34.1021
 BZINTS: Fermi energy: -1.400814; 61.000000 electrons
         Band energy:-407.825616;  BLOECHL correction: -0.015062
       DOS:  cpu time    0.0040: real time    0.0046
    CHARGE:  cpu time    1.9720: real time    2.0972
    MIXING:  cpu time    0.0400: real time    0.0403
    --------------------------------------------
      LOOP:  cpu time   35.7840: real time   36.2442

 eigenvalue-minimisations  :  1472
 total energy-change (2. order) :-0.5179705E-01  (-0.5183966E-01)
 number of electron      61.0000008 magnetization      11.7099793
 augmentation part       -2.0523486 magnetization       8.0371160

 Broyden mixing:
  rms(total) = 0.20055E+01    rms(broyden)= 0.20055E+01
  rms(prec ) = 0.21695E+01
  weight for this iteration     100.00

 Free energy of the ion-electron system (eV)
  ---------------------------------------------------
  alpha Z        PSCENC =        14.30261306
  Ewald energy   TEWEN  =      7259.79945079
  -Hartree energ DENC   =     -9808.17198303
  -exchange      EXHF   =         0.00000000
  -V(xc)+E(xc)   XCENC  =      -174.06358531
  PAW double counting   =      1664.63706918    -1410.86460359
  entropy T*S    EENTRO =         0.00000000
  eigenvalues    EBANDS =      -407.82561567
  atomic energy  EATOM  =      2820.55608801
  Solvation  Ediel_sol  =         0.00000000
  ---------------------------------------------------
  free energy    TOTEN  =       -41.63056656 eV

  energy without entropy =      -41.63056656  energy(sigma->0) =      -41.63056656


--------------------------------------------------------------------------------------------------------




--------------------------------------- Iteration      1(   6)  ---------------------------------------


    POTLOK:  cpu time   52.2160: real time   52.5751
    SETDIJ:  cpu time    0.0400: real time    0.0478
     EDDAV:  cpu time   27.1880: real time   27.8047
 BZINTS: Fermi energy: -3.400802; 61.000000 electrons
         Band energy:-530.866792;  BLOECHL correction: -0.041657
       DOS:  cpu time    0.0040: real time    0.0052
    CHARGE:  cpu time    2.0440: real time    2.0811
    MIXING:  cpu time    0.0440: real time    0.0459
    --------------------------------------------
      LOOP:  cpu time   81.5360: real time   82.5600

 eigenvalue-minimisations  :  1168
 total energy-change (2. order) :-0.3207032E+02  (-0.2478214E+02)
 number of electron      61.0000015 magnetization      11.4197419
 augmentation part        6.9858798 magnetization      10.7887491

 Broyden mixing:
  rms(total) = 0.58416E+01    rms(broyden)= 0.58415E+01
  rms(prec ) = 0.62158E+01
  weight for this iteration     100.00

 eigenvalues of (default mixing * dielectric matrix)
  average eigenvalue GAMMA=   0.2189
  0.2189

 Free energy of the ion-electron system (eV)
  ---------------------------------------------------
  alpha Z        PSCENC =        14.30261306
  Ewald energy   TEWEN  =      7259.79945079
  -Hartree energ DENC   =     -9726.68788532
  -exchange      EXHF   =         0.00000000
  -V(xc)+E(xc)   XCENC  =      -173.12456356
  PAW double counting   =      1547.25066612    -1284.93046653
  entropy T*S    EENTRO =         0.00000000
  eigenvalues    EBANDS =      -530.86679178
  atomic energy  EATOM  =      2820.55608801
  Solvation  Ediel_sol  =         0.00000000
  ---------------------------------------------------
  free energy    TOTEN  =       -73.70088921 eV

  energy without entropy =      -73.70088921  energy(sigma->0) =      -73.70088921


--------------------------------------------------------------------------------------------------------




--------------------------------------- Iteration      1(   7)  ---------------------------------------


    POTLOK:  cpu time   52.1760: real time   52.9145
    SETDIJ:  cpu time    0.0360: real time    0.0388
     EDDAV:  cpu time   25.5800: real time   26.3421
 BZINTS: Fermi energy: -2.715254; 61.000000 electrons
         Band energy:-430.180220;  BLOECHL correction: -0.026364
       DOS:  cpu time    0.0080: real time    0.0092
    CHARGE:  cpu time    1.9920: real time    2.0620
    MIXING:  cpu time    0.0480: real time    0.0451
    --------------------------------------------
      LOOP:  cpu time   79.8400: real time   81.4117

 eigenvalue-minimisations  :  1104
 total energy-change (2. order) : 0.3513055E+02  (-0.4724221E+01)
 number of electron      61.0000013 magnetization      11.1423903
 augmentation part        2.6237862 magnetization      10.6316286

 Broyden mixing:
  rms(total) = 0.17823E+01    rms(broyden)= 0.17821E+01
  rms(prec ) = 0.19097E+01
  weight for this iteration     100.00

 eigenvalues of (default mixing * dielectric matrix)
  average eigenvalue GAMMA=   0.3554
  0.3554  0.3554

 Free energy of the ion-electron system (eV)
  ---------------------------------------------------
  alpha Z        PSCENC =        14.30261306
  Ewald energy   TEWEN  =      7259.79945079
  -Hartree energ DENC   =     -9782.08252369
  -exchange      EXHF   =         0.00000000
  -V(xc)+E(xc)   XCENC  =      -174.73027686
  PAW double counting   =      1649.54828282    -1395.78375346
  entropy T*S    EENTRO =         0.00000000
  eigenvalues    EBANDS =      -430.18021966
  atomic energy  EATOM  =      2820.55608801
  Solvation  Ediel_sol  =         0.00000000
  ---------------------------------------------------
  free energy    TOTEN  =       -38.57033900 eV

  energy without entropy =      -38.57033900  energy(sigma->0) =      -38.57033900


--------------------------------------------------------------------------------------------------------




--------------------------------------- Iteration      1(   8)  ---------------------------------------


    POTLOK:  cpu time   51.9000: real time   52.3129
    SETDIJ:  cpu time    0.0520: real time    0.0524
     EDDAV:  cpu time   30.5760: real time   30.8886
 BZINTS: Fermi energy: -2.365739; 61.000000 electrons
         Band energy:-420.554238;  BLOECHL correction: -0.017960
       DOS:  cpu time    0.0040: real time    0.0067
    CHARGE:  cpu time    2.0720: real time    2.0739
    MIXING:  cpu time    0.0440: real time    0.0424
    --------------------------------------------
      LOOP:  cpu time   84.6480: real time   85.3768

 eigenvalue-minimisations  :  1344
 total energy-change (2. order) : 0.6807119E+00  (-0.6843388E+00)
 number of electron      61.0000011 magnetization      11.0226752
 augmentation part        0.9791585 magnetization       9.4517301

 Broyden mixing:
  rms(total) = 0.77416E+00    rms(broyden)= 0.77397E+00
  rms(prec ) = 0.82579E+00
  weight for this iteration     100.00

 eigenvalues of (default mixing * dielectric matrix)
  average eigenvalue GAMMA=   0.3116
  0.3640  0.3640  0.2067

 Free energy of the ion-electron system (eV)
  ---------------------------------------------------
  alpha Z        PSCENC =        14.30261306
  Ewald energy   TEWEN  =      7259.79945079
  -Hartree energ DENC   =     -9790.50455740
  -exchange      EXHF   =         0.00000000
  -V(xc)+E(xc)   XCENC  =      -174.84192929
  PAW double counting   =      1669.60071966    -1416.24777389
  entropy T*S    EENTRO =         0.00000000
  eigenvalues    EBANDS =      -420.55423803
  atomic energy  EATOM  =      2820.55608801
  Solvation  Ediel_sol  =         0.00000000
  ---------------------------------------------------
  free energy    TOTEN  =       -37.88962708 eV

  energy without entropy =      -37.88962708  energy(sigma->0) =      -37.88962708


--------------------------------------------------------------------------------------------------------




--------------------------------------- Iteration      1(   9)  ---------------------------------------


    POTLOK:  cpu time   50.9240: real time   51.0850
    SETDIJ:  cpu time    0.0480: real time    0.0468
     EDDAV:  cpu time   33.3360: real time   33.7836
 BZINTS: Fermi energy: -2.289852; 61.000000 electrons
         Band energy:-420.515534;  BLOECHL correction: -0.010248
       DOS:  cpu time    0.0040: real time    0.0067
    CHARGE:  cpu time    2.0880: real time    2.0876
    MIXING:  cpu time    0.0400: real time    0.0418
    --------------------------------------------
      LOOP:  cpu time   86.4400: real time   87.0515

 eigenvalue-minimisations  :  1488
 total energy-change (2. order) :-0.8191183E+00  (-0.1027540E+01)
 number of electron      61.0000011 magnetization      10.5608062
 augmentation part        0.8620748 magnetization       8.9070918

 Broyden mixing:
  rms(total) = 0.19271E+01    rms(broyden)= 0.19268E+01
  rms(prec ) = 0.20793E+01
  weight for this iteration     100.00

 eigenvalues of (default mixing * dielectric matrix)
  average eigenvalue GAMMA=   0.4051
  0.7804  0.3862  0.3862  0.0677

 Free energy of the ion-electron system (eV)
  ---------------------------------------------------
  alpha Z        PSCENC =        14.30261306
  Ewald energy   TEWEN  =      7259.79945079
  -Hartree energ DENC   =     -9791.27123659
  -exchange      EXHF   =         0.00000000
  -V(xc)+E(xc)   XCENC  =      -174.78162347
  PAW double counting   =      1673.22370698    -1420.02221034
  entropy T*S    EENTRO =         0.00000000
  eigenvalues    EBANDS =      -420.51553380
  atomic energy  EATOM  =      2820.55608801
  Solvation  Ediel_sol  =         0.00000000
  ---------------------------------------------------
  free energy    TOTEN  =       -38.70874536 eV

  energy without entropy =      -38.70874536  energy(sigma->0) =      -38.70874536


--------------------------------------------------------------------------------------------------------




--------------------------------------- Iteration      1(  10)  ---------------------------------------


    POTLOK:  cpu time   51.2240: real time   51.3432
    SETDIJ:  cpu time    0.0480: real time    0.0482
     EDDAV:  cpu time   30.1040: real time   30.5173
 BZINTS: Fermi energy: -2.346444; 61.000000 electrons
         Band energy:-419.597081;  BLOECHL correction: -0.018938
       DOS:  cpu time    0.0040: real time    0.0066
    CHARGE:  cpu time    2.0080: real time    2.0474
    MIXING:  cpu time    0.0400: real time    0.0426
    --------------------------------------------
      LOOP:  cpu time   83.4280: real time   84.0055

 eigenvalue-minimisations  :  1328
 total energy-change (2. order) : 0.6240481E+00  (-0.6241735E+00)
 number of electron      61.0000011 magnetization       9.5998519
 augmentation part        1.0409736 magnetization       8.0453534

 Broyden mixing:
  rms(total) = 0.73801E+00    rms(broyden)= 0.73746E+00
  rms(prec ) = 0.78282E+00
  weight for this iteration     100.00

 eigenvalues of (default mixing * dielectric matrix)
  average eigenvalue GAMMA=   0.5884
  1.2206  0.8823  0.3888  0.3888  0.0612

 Free energy of the ion-electron system (eV)
  ---------------------------------------------------
  alpha Z        PSCENC =        14.30261306
  Ewald energy   TEWEN  =      7259.79945079
  -Hartree energ DENC   =     -9791.19126498
  -exchange      EXHF   =         0.00000000
  -V(xc)+E(xc)   XCENC  =      -174.57908603
  PAW double counting   =      1681.55012567    -1428.92554288
  entropy T*S    EENTRO =         0.00000000
  eigenvalues    EBANDS =      -419.59708091
  atomic energy  EATOM  =      2820.55608801
  Solvation  Ediel_sol  =         0.00000000
  ---------------------------------------------------
  free energy    TOTEN  =       -38.08469727 eV

  energy without entropy =      -38.08469727  energy(sigma->0) =      -38.08469727


--------------------------------------------------------------------------------------------------------




--------------------------------------- Iteration      1(  11)  ---------------------------------------


    POTLOK:  cpu time   50.9480: real time   51.2991
    SETDIJ:  cpu time    0.0680: real time    0.0675
     EDDAV:  cpu time   32.3360: real time   32.5746
 BZINTS: Fermi energy: -2.274187; 61.000000 electrons
         Band energy:-415.861004;  BLOECHL correction: -0.018956
       DOS:  cpu time    0.0080: real time    0.0068
    CHARGE:  cpu time    2.0440: real time    2.0711
    MIXING:  cpu time    0.0440: real time    0.0430
    --------------------------------------------
      LOOP:  cpu time   85.4480: real time   86.0620

 eigenvalue-minimisations  :  1424
 total energy-change (2. order) :-0.4087424E+00  (-0.8484202E-01)
 number of electron      61.0000011 magnetization       9.1870476
 augmentation part        1.0444194 magnetization       7.7343785

 Broyden mixing:
  rms(total) = 0.10815E+01    rms(broyden)= 0.10814E+01
  rms(prec ) = 0.11672E+01
  weight for this iteration     100.00

 eigenvalues of (default mixing * dielectric matrix)
  average eigenvalue GAMMA=   0.6291
  1.6730  0.6223  0.6223  0.3975  0.3975  0.0617

 Free energy of the ion-electron system (eV)
  ---------------------------------------------------
  alpha Z        PSCENC =        14.30261306
  Ewald energy   TEWEN  =      7259.79945079
  -Hartree energ DENC   =     -9794.76345926
  -exchange      EXHF   =         0.00000000
  -V(xc)+E(xc)   XCENC  =      -174.37606292
  PAW double counting   =      1697.65951218    -1445.81057761
  entropy T*S    EENTRO =         0.00000000
  eigenvalues    EBANDS =      -415.86100388
  atomic energy  EATOM  =      2820.55608801
  Solvation  Ediel_sol  =         0.00000000
  ---------------------------------------------------
  free energy    TOTEN  =       -38.49343963 eV

  energy without entropy =      -38.49343963  energy(sigma->0) =      -38.49343963


--------------------------------------------------------------------------------------------------------




--------------------------------------- Iteration      1(  12)  ---------------------------------------


    POTLOK:  cpu time   51.1560: real time   51.9086
    SETDIJ:  cpu time    0.0480: real time    0.0468
     EDDAV:  cpu time   30.4920: real time   30.8759
 BZINTS: Fermi energy: -2.184917; 61.000000 electrons
         Band energy:-412.428699;  BLOECHL correction: -0.021498
       DOS:  cpu time    0.0040: real time    0.0074
    CHARGE:  cpu time    2.0560: real time    2.0841
    MIXING:  cpu time    0.0440: real time    0.0438
    --------------------------------------------
      LOOP:  cpu time   83.8000: real time   84.9666

 eigenvalue-minimisations  :  1344
 total energy-change (2. order) : 0.2413002E+00  (-0.1092730E+00)
 number of electron      61.0000010 magnetization       8.8860470
 augmentation part        0.7664140 magnetization       7.3807811

 Broyden mixing:
  rms(total) = 0.34262E+00    rms(broyden)= 0.34244E+00
  rms(prec ) = 0.35206E+00
  weight for this iteration     100.00

 eigenvalues of (default mixing * dielectric matrix)
  average eigenvalue GAMMA=   0.6471
  1.8847  0.8199  0.4471  0.4471  0.4346  0.4346  0.0616

 Free energy of the ion-electron system (eV)
  ---------------------------------------------------
  alpha Z        PSCENC =        14.30261306
  Ewald energy   TEWEN  =      7259.79945079
  -Hartree energ DENC   =     -9797.71163862
  -exchange      EXHF   =         0.00000000
  -V(xc)+E(xc)   XCENC  =      -174.43787506
  PAW double counting   =      1705.02527108    -1453.35734965
  entropy T*S    EENTRO =         0.00000000
  eigenvalues    EBANDS =      -412.42869906
  atomic energy  EATOM  =      2820.55608801
  Solvation  Ediel_sol  =         0.00000000
  ---------------------------------------------------
  free energy    TOTEN  =       -38.25213945 eV

  energy without entropy =      -38.25213945  energy(sigma->0) =      -38.25213945


--------------------------------------------------------------------------------------------------------




--------------------------------------- Iteration      1(  13)  ---------------------------------------


    POTLOK:  cpu time   50.4880: real time   51.2393
    SETDIJ:  cpu time    0.0480: real time    0.0475
     EDDAV:  cpu time   29.5400: real time   29.7968
 BZINTS: Fermi energy: -2.223363; 61.000000 electrons
         Band energy:-414.474263;  BLOECHL correction: -0.017418
       DOS:  cpu time    0.0080: real time    0.0068
    CHARGE:  cpu time    2.0680: real time    2.1087
    MIXING:  cpu time    0.0440: real time    0.0453
    --------------------------------------------
      LOOP:  cpu time   82.1960: real time   83.2443

 eigenvalue-minimisations  :  1296
 total energy-change (2. order) :-0.2831543E+00  (-0.7643533E-01)
 number of electron      61.0000011 magnetization       8.6056030
 augmentation part        1.0356426 magnetization       7.1495392

 Broyden mixing:
  rms(total) = 0.78861E+00    rms(broyden)= 0.78853E+00
  rms(prec ) = 0.83576E+00
  weight for this iteration     100.00

 eigenvalues of (default mixing * dielectric matrix)
  average eigenvalue GAMMA=   0.6471
  1.8039  0.9788  0.5223  0.5223  0.5254  0.3811  0.3811  0.0616

 Free energy of the ion-electron system (eV)
  ---------------------------------------------------
  alpha Z        PSCENC =        14.30261306
  Ewald energy   TEWEN  =      7259.79945079
  -Hartree energ DENC   =     -9796.04133397
  -exchange      EXHF   =         0.00000000
  -V(xc)+E(xc)   XCENC  =      -174.35322051
  PAW double counting   =      1701.02882166    -1449.35345018
  entropy T*S    EENTRO =         0.00000000
  eigenvalues    EBANDS =      -414.47426258
  atomic energy  EATOM  =      2820.55608801
  Solvation  Ediel_sol  =         0.00000000
  ---------------------------------------------------
  free energy    TOTEN  =       -38.53529372 eV

  energy without entropy =      -38.53529372  energy(sigma->0) =      -38.53529372


--------------------------------------------------------------------------------------------------------




--------------------------------------- Iteration      1(  14)  ---------------------------------------


    POTLOK:  cpu time   50.6600: real time   51.0943
    SETDIJ:  cpu time    0.0480: real time    0.0495
     EDDAV:  cpu time   26.3280: real time   26.5987
 BZINTS: Fermi energy: -2.221667; 61.000000 electrons
         Band energy:-414.146506;  BLOECHL correction: -0.018189
       DOS:  cpu time    0.0080: real time    0.0054
    CHARGE:  cpu time    2.0720: real time    2.0757
    MIXING:  cpu time    0.0480: real time    0.0508
    --------------------------------------------
      LOOP:  cpu time   79.1640: real time   79.8744

 eigenvalue-minimisations  :  1136
 total energy-change (2. order) :-0.5740417E-01  (-0.1585787E-01)
 number of electron      61.0000011 magnetization       7.8276099
 augmentation part        1.0634183 magnetization       6.3953129

 Broyden mixing:
  rms(total) = 0.65306E+00    rms(broyden)= 0.65305E+00
  rms(prec ) = 0.69049E+00
  weight for this iteration     100.00

 eigenvalues of (default mixing * dielectric matrix)
  average eigenvalue GAMMA=   0.8197
  2.7217  0.9012  0.9012  0.8731  0.3987  0.3987  0.5606  0.5606  0.0616

 Free energy of the ion-electron system (eV)
  ---------------------------------------------------
  alpha Z        PSCENC =        14.30261306
  Ewald energy   TEWEN  =      7259.79945079
  -Hartree energ DENC   =     -9796.45627026
  -exchange      EXHF   =         0.00000000
  -V(xc)+E(xc)   XCENC  =      -174.26935762
  PAW double counting   =      1700.65616865    -1449.03488419
  entropy T*S    EENTRO =         0.00000000
  eigenvalues    EBANDS =      -414.14650633
  atomic energy  EATOM  =      2820.55608801
  Solvation  Ediel_sol  =         0.00000000
  ---------------------------------------------------
  free energy    TOTEN  =       -38.59269788 eV

  energy without entropy =      -38.59269788  energy(sigma->0) =      -38.59269788


--------------------------------------------------------------------------------------------------------




--------------------------------------- Iteration      1(  15)  ---------------------------------------


    POTLOK:  cpu time   50.6080: real time   51.0333
    SETDIJ:  cpu time    0.0480: real time    0.0489
     EDDAV:  cpu time   31.0160: real time   31.2783
 BZINTS: Fermi energy: -2.176894; 61.000000 electrons
         Band energy:-411.740234;  BLOECHL correction: -0.018764
       DOS:  cpu time    0.0040: real time    0.0068
    CHARGE:  cpu time    2.0640: real time    2.0616
    MIXING:  cpu time    0.0480: real time    0.0496
    --------------------------------------------
      LOOP:  cpu time   83.7880: real time   84.4784

 eigenvalue-minimisations  :  1360
 total energy-change (2. order) :-0.2317956E-01  (-0.6049222E-01)
 number of electron      61.0000010 magnetization       7.3935446
 augmentation part        0.9463253 magnetization       6.0514176

 Broyden mixing:
  rms(total) = 0.43769E+00    rms(broyden)= 0.43764E+00
  rms(prec ) = 0.46051E+00
  weight for this iteration     100.00

 eigenvalues of (default mixing * dielectric matrix)
  average eigenvalue GAMMA=   0.8695
  3.0406  1.0497  1.0497  0.9121  0.6368  0.6368  0.3954  0.3954  0.5169  0.0616

 Free energy of the ion-electron system (eV)
  ---------------------------------------------------
  alpha Z        PSCENC =        14.30261306
  Ewald energy   TEWEN  =      7259.79945079
  -Hartree energ DENC   =     -9798.87364540
  -exchange      EXHF   =         0.00000000
  -V(xc)+E(xc)   XCENC  =      -174.13522651
  PAW double counting   =      1704.06911242    -1452.59403607
  entropy T*S    EENTRO =         0.00000000
  eigenvalues    EBANDS =      -411.74023374
  atomic energy  EATOM  =      2820.55608801
  Solvation  Ediel_sol  =         0.00000000
  ---------------------------------------------------
  free energy    TOTEN  =       -38.61587744 eV

  energy without entropy =      -38.61587744  energy(sigma->0) =      -38.61587744


--------------------------------------------------------------------------------------------------------




--------------------------------------- Iteration      1(  16)  ---------------------------------------


    POTLOK:  cpu time   50.8000: real time   51.0962
    SETDIJ:  cpu time    0.0480: real time    0.0487
     EDDAV:  cpu time   34.2000: real time   34.5096
 BZINTS: Fermi energy: -2.257475; 61.000000 electrons
         Band energy:-460.603942;  BLOECHL correction: -0.016768
       DOS:  cpu time    0.0040: real time    0.0074
    CHARGE:  cpu time    2.0280: real time    2.0647
    MIXING:  cpu time    0.0480: real time    0.0475
    --------------------------------------------
      LOOP:  cpu time   87.1280: real time   87.7742

 eigenvalue-minimisations  :  1504
 total energy-change (2. order) :-0.4972121E+02  (-0.4738935E+02)
 number of electron      61.0000010 magnetization       7.3944352
 augmentation part        0.6438817 magnetization       7.4735689

 Broyden mixing:
  rms(total) = 0.21344E+01    rms(broyden)= 0.20903E+01
  rms(prec ) = 0.21310E+01
  weight for this iteration     100.00

 eigenvalues of (default mixing * dielectric matrix)
  average eigenvalue GAMMA=   0.7905
  3.0406  1.0497  1.0497  0.9121  0.6368  0.6368  0.3954  0.3954  0.5169  0.0616
  0.0000

 Free energy of the ion-electron system (eV)
  ---------------------------------------------------
  alpha Z        PSCENC =        14.30261306
  Ewald energy   TEWEN  =      7259.79945079
  -Hartree energ DENC   =     -9799.74766049
  -exchange      EXHF   =         0.00000000
  -V(xc)+E(xc)   XCENC  =      -174.17270722
  PAW double counting   =      1704.09348727    -1452.56442033
  entropy T*S    EENTRO =         0.00000000
  eigenvalues    EBANDS =      -460.60394175
  atomic energy  EATOM  =      2820.55608801
  Solvation  Ediel_sol  =         0.00000000
  ---------------------------------------------------
  free energy    TOTEN  =       -88.33709065 eV

  energy without entropy =      -88.33709065  energy(sigma->0) =      -88.33709065


--------------------------------------------------------------------------------------------------------




--------------------------------------- Iteration      1(  17)  ---------------------------------------


    POTLOK:  cpu time   50.7360: real time   50.8289
    SETDIJ:  cpu time    0.0480: real time    0.0482
     EDDAV:  cpu time   25.0960: real time   25.2597
 BZINTS: Fermi energy: -2.141730; 61.000000 electrons
         Band energy:-410.719421;  BLOECHL correction: -0.018478
       DOS:  cpu time    0.0040: real time    0.0065
    CHARGE:  cpu time    2.0160: real time    2.0612
    MIXING:  cpu time    0.0520: real time    0.0521
    --------------------------------------------
      LOOP:  cpu time   77.9520: real time   78.2566

 eigenvalue-minimisations  :  1072
 total energy-change (2. order) : 0.5046649E+02  (-0.1290392E+03)
 number of electron      61.0000010 magnetization       6.5860665
 augmentation part        0.9021531 magnetization       5.2544818

 Broyden mixing:
  rms(total) = 0.51090E+00    rms(broyden)= 0.37652E+00
  rms(prec ) = 0.39493E+00
  weight for this iteration     100.00
  WARNING: grid for Broyden might be to small

 eigenvalues of (default mixing * dielectric matrix)
  average eigenvalue GAMMA=   0.9048
  4.1535  1.0681  1.0681  1.0232  0.7697  0.7697  0.3967  0.3967  0.5747  0.5747
  0.0616  0.0012

 Free energy of the ion-electron system (eV)
  ---------------------------------------------------
  alpha Z        PSCENC =        14.30261306
  Ewald energy   TEWEN  =      7259.79945079
  -Hartree energ DENC   =     -9799.79280357
  -exchange      EXHF   =         0.00000000
  -V(xc)+E(xc)   XCENC  =      -173.54449386
  PAW double counting   =      1704.11473538    -1452.58677379
  entropy T*S    EENTRO =         0.00000000
  eigenvalues    EBANDS =      -410.71942082
  atomic energy  EATOM  =      2820.55608801
  Solvation  Ediel_sol  =         0.00000000
  ---------------------------------------------------
  free energy    TOTEN  =       -37.87060480 eV

  energy without entropy =      -37.87060480  energy(sigma->0) =      -37.87060480


--------------------------------------------------------------------------------------------------------




--------------------------------------- Iteration      1(  18)  ---------------------------------------


    POTLOK:  cpu time   50.7480: real time   51.0483
    SETDIJ:  cpu time    0.0480: real time    0.0485
     EDDAV:  cpu time   24.8280: real time   25.1939
 BZINTS: Fermi energy: -2.089257; 61.000000 electrons
         Band energy:-408.673316;  BLOECHL correction: -0.018507
       DOS:  cpu time    0.0040: real time    0.0057
    CHARGE:  cpu time    2.0800: real time    2.1160
    MIXING:  cpu time    0.0480: real time    0.0493
    --------------------------------------------
      LOOP:  cpu time   77.7560: real time   78.4617

 eigenvalue-minimisations  :  1072
 total energy-change (2. order) :-0.6306435E+00  (-0.1041663E+00)
 number of electron      61.0000010 magnetization       5.7295217
 augmentation part        0.7318415 magnetization       4.4534136

 Broyden mixing:
  rms(total) = 0.25952E+00    rms(broyden)= 0.25015E+00
  rms(prec ) = 0.25836E+00
  weight for this iteration     100.00

 eigenvalues of (default mixing * dielectric matrix)
  average eigenvalue GAMMA=   1.0845
  6.0014  1.8057  0.8974  0.8974  1.0158  0.6789  0.6789  0.3964  0.3964  0.6983
  0.5696  0.0616  0.0012

 Free energy of the ion-electron system (eV)
  ---------------------------------------------------
  alpha Z        PSCENC =        14.30261306
  Ewald energy   TEWEN  =      7259.79945079
  -Hartree energ DENC   =     -9801.98775254
  -exchange      EXHF   =         0.00000000
  -V(xc)+E(xc)   XCENC  =      -174.13895921
  PAW double counting   =      1704.14753255    -1452.50690488
  entropy T*S    EENTRO =         0.00000000
  eigenvalues    EBANDS =      -408.67331609
  atomic energy  EATOM  =      2820.55608801
  Solvation  Ediel_sol  =         0.00000000
  ---------------------------------------------------
  free energy    TOTEN  =       -38.50124830 eV

  energy without entropy =      -38.50124830  energy(sigma->0) =      -38.50124830


--------------------------------------------------------------------------------------------------------




--------------------------------------- Iteration      1(  19)  ---------------------------------------


    POTLOK:  cpu time   50.8080: real time   51.0709
    SETDIJ:  cpu time    0.0520: real time    0.0522
     EDDAV:  cpu time   29.3880: real time   29.5608
 BZINTS: Fermi energy: -2.039249; 61.000000 electrons
         Band energy:-407.235515;  BLOECHL correction: -0.018341
       DOS:  cpu time    0.0040: real time    0.0065
    CHARGE:  cpu time    2.0560: real time    2.0759
    MIXING:  cpu time    0.0520: real time    0.0505
    --------------------------------------------
      LOOP:  cpu time   82.3600: real time   82.8168

 eigenvalue-minimisations  :  1280
 total energy-change (2. order) :-0.1491291E+00  (-0.1600932E-01)
 number of electron      61.0000010 magnetization       5.4524572
 augmentation part        0.6284680 magnetization       4.1958988

 Broyden mixing:
  rms(total) = 0.18706E+00    rms(broyden)= 0.18654E+00
  rms(prec ) = 0.19032E+00
  weight for this iteration     100.00

 eigenvalues of (default mixing * dielectric matrix)
  average eigenvalue GAMMA=   1.1570
  6.9081  2.0424  0.9966  0.9966  0.8833  0.8833  0.7323  0.7323  0.3964  0.3964
  0.5840  0.5840  0.0616  0.0012

 Free energy of the ion-electron system (eV)
  ---------------------------------------------------
  alpha Z        PSCENC =        14.30261306
  Ewald energy   TEWEN  =      7259.79945079
  -Hartree energ DENC   =     -9803.56891688
  -exchange      EXHF   =         0.00000000
  -V(xc)+E(xc)   XCENC  =      -174.34065960
  PAW double counting   =      1703.18434524    -1451.34778342
  entropy T*S    EENTRO =         0.00000000
  eigenvalues    EBANDS =      -407.23551465
  atomic energy  EATOM  =      2820.55608801
  Solvation  Ediel_sol  =         0.00000000
  ---------------------------------------------------
  free energy    TOTEN  =       -38.65037745 eV

  energy without entropy =      -38.65037745  energy(sigma->0) =      -38.65037745


--------------------------------------------------------------------------------------------------------




--------------------------------------- Iteration      1(  20)  ---------------------------------------


    POTLOK:  cpu time   50.7000: real time   50.9786
    SETDIJ:  cpu time    0.0480: real time    0.0481
     EDDAV:  cpu time   30.4640: real time   30.8817
 BZINTS: Fermi energy: -2.010986; 61.000000 electrons
         Band energy:-406.427966;  BLOECHL correction: -0.018936
       DOS:  cpu time    0.0080: real time    0.0060
    CHARGE:  cpu time    2.1000: real time    2.1003
    MIXING:  cpu time    0.0560: real time    0.0581
    --------------------------------------------
      LOOP:  cpu time   83.3760: real time   84.0728

 eigenvalue-minimisations  :  1344
 total energy-change (2. order) :-0.6822074E-01  (-0.1021262E-01)
 number of electron      61.0000010 magnetization       5.3057029
 augmentation part        0.5711930 magnetization       4.0522671

 Broyden mixing:
  rms(total) = 0.17751E+00    rms(broyden)= 0.17748E+00
  rms(prec ) = 0.18256E+00
  weight for this iteration     100.00

 eigenvalues of (default mixing * dielectric matrix)
  average eigenvalue GAMMA=   1.2031
  7.3267  1.8236  1.4445  1.4445  0.8257  0.8257  0.7594  0.7594  0.3964  0.3964
  0.7196  0.6306  0.6306  0.0616  0.0012

 Free energy of the ion-electron system (eV)
  ---------------------------------------------------
  alpha Z        PSCENC =        14.30261306
  Ewald energy   TEWEN  =      7259.79945079
  -Hartree energ DENC   =     -9804.33211591
  -exchange      EXHF   =         0.00000000
  -V(xc)+E(xc)   XCENC  =      -174.47785691
  PAW double counting   =      1703.87792563    -1452.01673677
  entropy T*S    EENTRO =         0.00000000
  eigenvalues    EBANDS =      -406.42796609
  atomic energy  EATOM  =      2820.55608801
  Solvation  Ediel_sol  =         0.00000000
  ---------------------------------------------------
  free energy    TOTEN  =       -38.71859819 eV

  energy without entropy =      -38.71859819  energy(sigma->0) =      -38.71859819


--------------------------------------------------------------------------------------------------------




--------------------------------------- Iteration      1(  21)  ---------------------------------------


    POTLOK:  cpu time   50.4920: real time   51.0004
    SETDIJ:  cpu time    0.0480: real time    0.0484
     EDDAV:  cpu time   28.1080: real time   28.5710
 BZINTS: Fermi energy: -1.999600; 61.000000 electrons
         Band energy:-405.979627;  BLOECHL correction: -0.019217
       DOS:  cpu time    0.0040: real time    0.0067
    CHARGE:  cpu time    2.0840: real time    2.0858
    MIXING:  cpu time    0.0520: real time    0.0533
    --------------------------------------------
      LOOP:  cpu time   80.7880: real time   81.7657

 eigenvalue-minimisations  :  1232
 total energy-change (2. order) :-0.1744445E-01  (-0.1089609E-01)
 number of electron      61.0000010 magnetization       5.0467042
 augmentation part        0.5734868 magnetization       3.8098239

 Broyden mixing:
  rms(total) = 0.12683E+00    rms(broyden)= 0.12682E+00
  rms(prec ) = 0.13141E+00
  weight for this iteration     100.00

 eigenvalues of (default mixing * dielectric matrix)
  average eigenvalue GAMMA=   1.2898
  8.0460  2.2723  2.2723  0.8591  0.8591  1.0333  1.0333  0.7288  0.7288  0.7721
  0.3964  0.3964  0.5881  0.5881  0.0616  0.0012

 Free energy of the ion-electron system (eV)
  ---------------------------------------------------
  alpha Z        PSCENC =        14.30261306
  Ewald energy   TEWEN  =      7259.79945079
  -Hartree energ DENC   =     -9804.63427606
  -exchange      EXHF   =         0.00000000
  -V(xc)+E(xc)   XCENC  =      -174.64961694
  PAW double counting   =      1704.70103259    -1452.83170671
  entropy T*S    EENTRO =         0.00000000
  eigenvalues    EBANDS =      -405.97962738
  atomic energy  EATOM  =      2820.55608801
  Solvation  Ediel_sol  =         0.00000000
  ---------------------------------------------------
  free energy    TOTEN  =       -38.73604264 eV

  energy without entropy =      -38.73604264  energy(sigma->0) =      -38.73604264


--------------------------------------------------------------------------------------------------------




--------------------------------------- Iteration      1(  22)  ---------------------------------------


    POTLOK:  cpu time   50.6520: real time   51.1186
    SETDIJ:  cpu time    0.0480: real time    0.0498
     EDDAV:  cpu time   27.6360: real time   27.9047
 BZINTS: Fermi energy: -1.975730; 61.000000 electrons
         Band energy:-405.003740;  BLOECHL correction: -0.019121
       DOS:  cpu time    0.0040: real time    0.0065
    CHARGE:  cpu time    2.0320: real time    2.0812
    MIXING:  cpu time    0.0560: real time    0.0547
    --------------------------------------------
      LOOP:  cpu time   80.4280: real time   81.2154

 eigenvalue-minimisations  :  1200
 total energy-change (2. order) :-0.1656403E-01  (-0.1936024E-02)
 number of electron      61.0000010 magnetization       4.7902015
 augmentation part        0.5558228 magnetization       3.5783182

 Broyden mixing:
  rms(total) = 0.84552E-01    rms(broyden)= 0.84542E-01
  rms(prec ) = 0.88438E-01
  weight for this iteration     100.00

 eigenvalues of (default mixing * dielectric matrix)
  average eigenvalue GAMMA=   1.4550
  9.8311  2.8754  2.8754  1.2720  0.8652  0.8652  0.9183  0.9183  0.7704  0.7704
  0.0616  0.3964  0.3964  0.7387  0.5897  0.5897  0.0012

 Free energy of the ion-electron system (eV)
  ---------------------------------------------------
  alpha Z        PSCENC =        14.30261306
  Ewald energy   TEWEN  =      7259.79945079
  -Hartree energ DENC   =     -9805.48247578
  -exchange      EXHF   =         0.00000000
  -V(xc)+E(xc)   XCENC  =      -174.80443494
  PAW double counting   =      1705.79909349    -1453.91920111
  entropy T*S    EENTRO =         0.00000000
  eigenvalues    EBANDS =      -405.00374018
  atomic energy  EATOM  =      2820.55608801
[...]
     34      -0.0162      0.00000
     35       0.0190      0.00000
     36       0.0889      0.00000
     37       0.6986      0.00000
     38       1.1137      0.00000
     39       1.1964      0.00000
     40       1.9836      0.00000
     41       2.1226      0.00000
     42       2.2164      0.00000
     43       2.7745      0.00000
     44       3.1027      0.00000
     45       3.1206      0.00000
     46       3.6183      0.00000
     47       3.7369      0.00000
     48       4.1458      0.00000

 k-point     5 :      -0.4000    0.2000    0.0000
  band No.  band energies     occupation 
      1     -14.7334      1.00000
      2     -13.6038      1.00000
      3     -13.2430      1.00000
      4     -12.9962      1.00000
      5     -12.6829      1.00000
      6     -12.5368      1.00000
      7     -10.7850      1.00000
      8      -8.5155      1.00000
      9      -6.7801      1.00000
     10      -6.3321      1.00000
     11      -6.0709      1.00000
     12      -5.4770      1.00000
     13      -5.4344      1.00000
     14      -4.9257      1.00000
     15      -4.6882      1.00000
     16      -4.4656      1.00000
     17      -4.4343      1.00000
     18      -4.0298      1.00000
     19      -3.9231      1.00000
     20      -3.7189      1.00000
     21      -3.6860      1.00000
     22      -3.3313      1.00000
     23      -2.9036      1.00000
     24      -2.7368      1.00000
     25      -2.4850      1.00000
     26      -2.3380      1.00000
     27      -1.8610      1.00000
     28      -1.8323      1.00000
     29      -1.6190      1.00000
     30      -1.4958      1.06319
     31      -1.4609      0.00000
     32      -0.8274      0.00000
     33      -0.3691      0.00000
     34      -0.3019      0.00000
     35       0.0555      0.00000
     36       0.2788      0.00000
     37       0.5700      0.00000
     38       0.6096      0.00000
     39       1.1875      0.00000
     40       1.6435      0.00000
     41       1.9759      0.00000
     42       2.1375      0.00000
     43       3.1905      0.00000
     44       3.3068      0.00000
     45       3.3501      0.00000
     46       3.4502      0.00000
     47       3.5090      0.00000
     48       4.0498      0.00000


--------------------------------------------------------------------------------------------------------


 soft charge-density along one line, spin component           1
         0         1         2         3         4         5         6         7         8         9
 total charge-density along one line

 soft charge-density along one line, spin component           2
         0         1         2         3         4         5         6         7         8         9
 total charge-density along one line

 pseudopotential strength for first ion, spin component:           1
 -9.421  -0.068   0.000   0.003   0.000   0.452   0.020  -0.000
 -0.068  -9.537   0.000   0.000   0.003   0.020   0.486  -0.000
  0.000   0.000  -9.697   0.000   0.000  -0.000  -0.000   0.531
  0.003   0.000   0.000  -9.537   0.068  -0.001  -0.000  -0.000
  0.000   0.003   0.000   0.068  -9.421  -0.000  -0.001  -0.000
  0.452   0.020  -0.000  -0.001  -0.000   0.606  -0.007  -0.000
  0.020   0.486  -0.000  -0.000  -0.001  -0.007   0.595   0.000
 -0.000  -0.000   0.531  -0.000  -0.000  -0.000   0.000   0.583
 -0.001  -0.000  -0.000   0.486  -0.020   0.000   0.000   0.000
 -0.000  -0.001  -0.000  -0.020   0.452   0.000   0.000   0.000
 -0.000  -0.000   0.033  -0.000   0.000  -0.000  -0.000  -0.008
  0.000   0.000  -0.003   0.000  -0.000  -0.000  -0.000   0.001
  0.000   0.004   0.000  -0.000   0.001   0.000  -0.001  -0.000
 -0.000  -0.000   0.003  -0.000   0.000  -0.000   0.000  -0.001
  0.001  -0.000   0.000   0.004  -0.000   0.000  -0.000  -0.000
 -0.000  -0.002  -0.000   0.000  -0.002   0.000   0.000   0.000
  0.000   0.000  -0.002   0.000  -0.000  -0.000  -0.000   0.000
 -0.002   0.000  -0.000  -0.002   0.000   0.000  -0.000   0.000
 pseudopotential strength for first ion, spin component:           2
 -9.061  -0.047  -0.000  -0.000   0.000   0.344   0.014   0.000
 -0.047  -9.220   0.000   0.000  -0.000   0.014   0.389  -0.000
 -0.000   0.000  -9.010   0.000   0.000   0.000  -0.000   0.329
 -0.000   0.000   0.000  -9.220   0.047   0.000  -0.000  -0.000
  0.000  -0.000   0.000   0.047  -9.061  -0.000   0.000  -0.000
  0.344   0.014   0.000   0.000  -0.000   0.638  -0.005  -0.000
  0.014   0.389  -0.000  -0.000   0.000  -0.005   0.625   0.000
  0.000  -0.000   0.329  -0.000  -0.000  -0.000   0.000   0.642
  0.000  -0.000  -0.000   0.389  -0.014   0.000   0.000   0.000
 -0.000   0.000  -0.000  -0.014   0.344   0.000   0.000   0.000
 -0.000  -0.000   0.003  -0.000   0.000  -0.000  -0.000  -0.002
  0.000   0.000  -0.001   0.000  -0.000  -0.000  -0.000   0.000
  0.000   0.004   0.000  -0.000   0.003   0.000  -0.001  -0.000
 -0.000  -0.000   0.004  -0.000   0.000  -0.000   0.000  -0.001
  0.003  -0.000   0.000   0.004  -0.000  -0.000  -0.000  -0.000
 -0.000  -0.002  -0.000   0.000  -0.002   0.000   0.000   0.000
  0.000   0.000  -0.002   0.000  -0.000  -0.000  -0.000   0.001
 -0.002   0.000  -0.000  -0.002   0.000   0.000  -0.000   0.000
 total augmentation occupancy for first ion, spin component:           1
  1.514  -0.315   0.000   0.014  -0.000   0.151   0.145   0.000   0.001   0.000  -0.000   0.000  -0.001   0.000   0.015  -0.000
 -0.315   1.320  -0.000  -0.000   0.014   0.131   0.256   0.000   0.000   0.002   0.000   0.000   0.007   0.000   0.005   0.000
  0.000  -0.000   1.513  -0.000  -0.000   0.000   0.000   0.001   0.000  -0.000  -0.007   0.026  -0.000   0.003   0.000  -0.000
  0.014  -0.000  -0.000   1.320   0.315   0.002  -0.000   0.000   0.256  -0.131  -0.000   0.000  -0.005  -0.000   0.007   0.000
 -0.000   0.014  -0.000   0.315   1.514  -0.000   0.001  -0.000  -0.145   0.151   0.000  -0.000   0.015  -0.000   0.001   0.001
  0.151   0.131   0.000   0.002  -0.000   0.093   0.057   0.000   0.000  -0.000   0.000  -0.000   0.005  -0.000   0.012  -0.000
  0.145   0.256   0.000  -0.000   0.001   0.057   0.143   0.000  -0.000   0.000   0.000   0.000   0.008  -0.000  -0.002  -0.001
  0.000   0.000   0.001   0.000  -0.000   0.000   0.000   0.072   0.000  -0.000   0.017  -0.007  -0.000  -0.002   0.000   0.000
  0.001   0.000   0.000   0.256  -0.145   0.000  -0.000   0.000   0.143  -0.057   0.000   0.000   0.002   0.000   0.008  -0.000
  0.000   0.002  -0.000  -0.131   0.151  -0.000   0.000  -0.000  -0.057   0.093  -0.000   0.000   0.012   0.000  -0.005  -0.002
 -0.000   0.000  -0.007  -0.000   0.000   0.000   0.000   0.017   0.000  -0.000   1.063  -0.253   0.000   0.011  -0.000   0.000
  0.000   0.000   0.026   0.000  -0.000  -0.000   0.000  -0.007   0.000   0.000  -0.253   0.106   0.000  -0.004  -0.000   0.000
 -0.001   0.007  -0.000  -0.005   0.015   0.005   0.008  -0.000   0.002   0.012   0.000   0.000   0.175   0.000  -0.000  -0.010
  0.000   0.000   0.003  -0.000  -0.000  -0.000   0.000  -0.002   0.000   0.000   0.011  -0.004   0.000   0.177  -0.000  -0.000
  0.015   0.005   0.000   0.007   0.001   0.012  -0.002   0.000   0.008  -0.005  -0.000  -0.000  -0.000  -0.000   0.175   0.000
 -0.000   0.000  -0.000   0.000   0.001  -0.000  -0.001   0.000  -0.000  -0.002   0.000  -0.000  -0.010  -0.000   0.000   0.001
  0.000  -0.000   0.001   0.000  -0.000  -0.000   0.000  -0.000  -0.000   0.000  -0.001   0.001   0.000  -0.011   0.000   0.000
  0.001  -0.000   0.000   0.000   0.000  -0.002   0.000  -0.000  -0.001   0.000  -0.000   0.000  -0.000   0.000  -0.010  -0.000
 total augmentation occupancy for first ion, spin component:           2
  0.078   0.013   0.000  -0.003  -0.000  -0.032   0.004  -0.000   0.000  -0.000   0.000   0.000   0.001   0.000   0.006   0.000
  0.013   0.047   0.000  -0.000  -0.003   0.009  -0.023   0.000  -0.000  -0.000   0.000   0.000  -0.001   0.000  -0.002   0.000
  0.000   0.000   0.396   0.000  -0.000  -0.000   0.000  -0.080   0.000   0.000   0.015   0.025  -0.000   0.005   0.000  -0.000
 -0.003  -0.000   0.000   0.047  -0.013  -0.000   0.000   0.000  -0.023  -0.009   0.000  -0.000   0.002   0.000  -0.001  -0.000
 -0.000  -0.003  -0.000  -0.013   0.078   0.000   0.000   0.000  -0.004  -0.032  -0.000  -0.000   0.006  -0.000  -0.001   0.000
 -0.032   0.009  -0.000  -0.000   0.000  -0.007  -0.007  -0.000  -0.000   0.000   0.000  -0.000   0.000  -0.000  -0.001   0.000
  0.004  -0.023   0.000   0.000   0.000  -0.007  -0.012  -0.000   0.000  -0.000  -0.000   0.000   0.000  -0.000   0.000   0.000
 -0.000   0.000  -0.080   0.000   0.000  -0.000  -0.000   0.007  -0.000   0.000   0.003  -0.003   0.000  -0.001  -0.000   0.000
  0.000  -0.000   0.000  -0.023  -0.004  -0.000   0.000  -0.000  -0.012   0.007   0.000   0.000  -0.000   0.000   0.000  -0.000
 -0.000  -0.000   0.000  -0.009  -0.032   0.000  -0.000   0.000   0.007  -0.007  -0.000   0.000  -0.001   0.000  -0.000   0.000
  0.000   0.000   0.015   0.000  -0.000   0.000   0.000   0.003  -0.000  -0.000   0.021   0.016   0.000   0.000  -0.000   0.000
  0.000   0.000   0.025  -0.000  -0.000  -0.000   0.000  -0.003   0.000   0.000   0.016  -0.008   0.000   0.000   0.000   0.000
  0.001  -0.001  -0.000   0.002   0.006   0.000   0.000   0.000  -0.000  -0.001   0.000   0.000   0.004   0.000  -0.000   0.000
  0.000  -0.000   0.005   0.000  -0.000  -0.000   0.000  -0.001   0.000   0.000   0.000   0.000  -0.000   0.004   0.000   0.000
  0.006  -0.002   0.000  -0.001  -0.001  -0.001   0.000  -0.000   0.000  -0.000   0.000  -0.000  -0.000   0.000   0.004   0.000
  0.000   0.000  -0.000  -0.000   0.000   0.000   0.000   0.000  -0.000   0.000   0.000   0.000   0.000   0.000   0.000  -0.000
  0.000   0.000   0.000  -0.000  -0.000  -0.000   0.000  -0.000   0.000   0.000   0.000  -0.000   0.000   0.000  -0.000  -0.000
  0.000   0.000   0.000   0.000  -0.000   0.000   0.000   0.000   0.000  -0.000   0.000   0.000  -0.000  -0.000   0.000   0.000


------------------------ aborting loop because EDIFF is reached ----------------------------------------





 total charge     

# of ion       s       p       d       tot
------------------------------------------
    1        0.363   0.427   6.405   7.195
    2        0.362   0.425   6.427   7.214
    3        0.779   0.845   0.000   1.624
    4        1.063   1.421   0.000   2.484
    5        1.402   1.913   0.056   3.370
    6        1.393   1.909   0.059   3.360
    7        1.400   1.911   0.056   3.368
    8        1.391   1.951   0.048   3.390
    9        1.385   1.962   0.049   3.397
   10        1.390   1.954   0.049   3.393
--------------------------------------------------
tot         10.929  14.718  13.149  38.795



 magnetization (x)

# of ion       s       p       d       tot
------------------------------------------
    1        0.004   0.008   0.636   0.648
    2        0.004   0.008   0.545   0.557
    3       -0.001   0.001   0.000  -0.000
    4       -0.004  -0.007   0.000  -0.011
    5       -0.001  -0.023  -0.001  -0.025
    6       -0.002  -0.015  -0.001  -0.018
    7       -0.001  -0.021  -0.001  -0.023
    8       -0.001  -0.022  -0.000  -0.023
    9       -0.001  -0.014  -0.001  -0.016
   10       -0.001  -0.021  -0.001  -0.022
--------------------------------------------------
tot         -0.003  -0.107   1.176   1.067

    CHARGE:  cpu time    2.0800: real time    2.0802
    FORLOC:  cpu time    0.0640: real time    0.0671
    FORNL :  cpu time    6.7080: real time    6.7477
    STRESS:  cpu time   19.7000: real time   20.1338
    FORCOR:  cpu time   50.9400: real time   51.3157
    FORHAR:  cpu time    0.3280: real time    0.3289
    MIXING:  cpu time    0.0440: real time    0.0429
    OFIELD:  cpu time    0.0000: real time    0.0001

  FORCE on cell =-STRESS in cart. coord.  units (eV):
  Direction    XX          YY          ZZ          XY          YZ          ZX
  --------------------------------------------------------------------------------------
  Alpha Z    16.80800    16.80800    16.80800
  Ewald    8385.92396  8385.92133-10184.55401    -0.00170    -0.00055    -0.00100
  Hartree  8853.25566  8853.25639 -8536.53485    -0.00014     0.00008     0.00013
  E(xc)    -252.67859  -252.67857  -252.34397     0.00002     0.00001     0.00002
  Local  -18132.08519-18132.08420 17794.66137     0.00153     0.00036     0.00067
  n-local   696.57224   695.08539   711.73515    -0.74160     0.51666     0.85454
  augment   -97.16099   -97.16085  -107.57288    -0.00004     0.00004     0.00004
  Kinetic   530.96265   528.85278   557.47094    -1.71029     1.11566     1.26221
  Fock        0.00000     0.00000     0.00000     0.00000     0.00000     0.00000
  -------------------------------------------------------------------------------------
  Total      -0.20100    -0.20100    -0.33026     0.00000    -0.00000     0.00000
  in kB      -0.39062    -0.39062    -0.64183     0.00000    -0.00000     0.00000
  external pressure =       -0.47 kB  Pullay stress =        0.00 kB


 VOLUME and BASIS-vectors are now :
 -----------------------------------------------------------------------------
  energy-cutoff  :      520.00
  volume of cell :      824.42
      direct lattice vectors                 reciprocal lattice vectors
     6.724977514 -0.000000224 -0.000000000     0.148699379 -0.085851626  0.000000000
     3.362488495  5.824000922 -0.000000000     0.000000006  0.171703266 -0.000000000
    -0.000000000  0.000000000 21.049267626     0.000000000 -0.000000000  0.047507591

  length of vectors
     6.724977514  6.724976997 21.049267626     0.171703253  0.171703266  0.047507591


 FORCES acting on ions
    electron-ion (+dipol)            ewald-force                    non-local-force                 convergence-correction
 -----------------------------------------------------------------------------------------------
   0.632E-04 0.254E-04 0.518E+01   0.560E-03 0.334E-03 -.548E+01   -.931E-18 0.290E-19 0.319E+00   0.977E-06 -.148E-06 -.230E-03
   -.624E-04 -.196E-04 0.199E+01   -.534E-03 -.320E-03 -.225E+01   -.179E-17 0.349E-17 0.263E+00   0.445E-06 0.489E-06 -.640E-03
   -.257E-04 -.361E-04 0.201E+03   -.148E-03 -.822E-04 -.199E+03   -.656E-17 -.173E-18 -.190E+01   0.729E-07 0.243E-07 0.162E-02
   0.303E-04 0.333E-04 -.235E+03   0.189E-03 0.105E-03 0.233E+03   -.215E-17 0.106E-16 0.207E+01   0.834E-07 0.455E-07 -.171E-02
   -.155E+02 -.187E+00 -.394E+03   0.113E+02 0.699E-01 0.398E+03   0.381E+01 -.126E-01 -.465E+01   -.113E-02 0.106E+00 -.422E-02
   0.757E+01 0.135E+02 -.394E+03   -.557E+01 -.979E+01 0.398E+03   -.191E+01 -.329E+01 -.465E+01   0.922E-01 -.519E-01 -.422E-02
   0.789E+01 -.133E+02 -.394E+03   -.569E+01 0.972E+01 0.398E+03   -.189E+01 0.330E+01 -.465E+01   -.911E-01 -.539E-01 -.422E-02
   0.201E+02 -.688E-01 0.402E+03   -.160E+02 -.630E-01 -.407E+03   -.398E+01 0.225E-01 0.493E+01   0.857E-03 0.996E-01 0.439E-02
   -.101E+02 -.174E+02 0.402E+03   0.792E+01 0.138E+02 -.407E+03   0.201E+01 0.344E+01 0.493E+01   0.858E-01 -.505E-01 0.439E-02
   -.999E+01 0.174E+02 0.402E+03   0.803E+01 -.138E+02 -.407E+03   0.197E+01 -.346E+01 0.493E+01   -.867E-01 -.491E-01 0.439E-02
 -----------------------------------------------------------------------------------------------
   -.852E-04 -.651E-04 -.157E+01   -.266E-13 -.355E-14 0.171E-12   -.222E-15 0.444E-15 0.157E+01   0.180E-05 0.555E-06 -.460E-03


 POSITION                                       TOTAL-FORCE (eV/Angst)
 -----------------------------------------------------------------------------------
      3.36249      1.94133     10.55608         0.000000     -0.000000      0.019011
      6.72498      3.88267     10.56456         0.000000     -0.000000      0.000239
     -0.00000      0.00000      9.42259         0.000000     -0.000000      0.040919
     -0.00000      0.00000     11.66241         0.000000     -0.000000      0.027609
      4.21365      0.00245     12.07706        -0.397985     -0.023702     -0.044449
      1.25779      2.17366     12.07706         0.178466      0.356516     -0.044449
      4.61604      3.64790     12.07706         0.219519     -0.332814     -0.044449
      5.87382      5.82155      8.97221         0.173954     -0.010196      0.015189
      8.82968      3.65034      8.97221        -0.095807     -0.145551      0.015189
      5.47142      2.17610      8.97221        -0.078147      0.155747      0.015189
 -----------------------------------------------------------------------------------
    total drift:                               -0.000083     -0.000065      0.004301


--------------------------------------------------------------------------------------------------------



  FREE ENERGIE OF THE ION-ELECTRON SYSTEM (eV)
  ---------------------------------------------------
  free  energy   TOTEN  =       -39.75671246 eV

  energy  without entropy=      -39.75671246  energy(sigma->0) =      -39.75671246

 d Force = 0.4425786E-05[-0.769E-04, 0.857E-04]  d Energy = 0.3437076E-03-0.339E-03
 d Force = 0.6985141E+00[ 0.699E+00, 0.698E+00]  d Ewald  =-0.1191277E+02 0.126E+02


--------------------------------------------------------------------------------------------------------


    POTLOK:  cpu time   51.0800: real time   51.5605


--------------------------------------------------------------------------------------------------------




--------------------------------------------------------------------------------------------------------


  
 reached required accuracy - stopping structural energy minimisation
     LOOP+:  cpu time  676.1160: real time  682.2068
    4ORBIT:  cpu time    0.0000: real time    0.0000



 total charge     

# of ion       s       p       d       tot
------------------------------------------
    1        0.363   0.427   6.405   7.195
    2        0.362   0.425   6.427   7.214
    3        0.779   0.845   0.000   1.624
    4        1.063   1.421   0.000   2.484
    5        1.402   1.913   0.056   3.370
    6        1.393   1.909   0.059   3.360
    7        1.400   1.911   0.056   3.368
    8        1.391   1.951   0.048   3.390
    9        1.385   1.962   0.049   3.397
   10        1.390   1.954   0.049   3.393
--------------------------------------------------
tot         10.929  14.718  13.149  38.795



 magnetization (x)

# of ion       s       p       d       tot
------------------------------------------
    1        0.004   0.008   0.636   0.648
    2        0.004   0.008   0.545   0.557
    3       -0.001   0.001   0.000  -0.000
    4       -0.004  -0.007   0.000  -0.011
    5       -0.001  -0.023  -0.001  -0.025
    6       -0.002  -0.015  -0.001  -0.018
    7       -0.001  -0.021  -0.001  -0.023
    8       -0.001  -0.022  -0.000  -0.023
    9       -0.001  -0.014  -0.001  -0.016
   10       -0.001  -0.021  -0.001  -0.022
--------------------------------------------------
tot         -0.003  -0.107   1.176   1.067

 BZINTS: Fermi energy: -1.489106; 61.000000 electrons
         Band energy:-372.291797;  BLOECHL correction: -0.002807

 total amount of memory used by VASP MPI-rank0   131792. kBytes
=======================================================================

   base      :      30000. kBytes
   nonlr-proj:       9292. kBytes
   fftplans  :      11247. kBytes
   grid      :      68332. kBytes
   one-center:        311. kBytes
   wavefun   :      12610. kBytes

  
  
 General timing and accounting informations for this job:
 ========================================================
  
                  Total CPU time used (sec):    38135.727
                            User time (sec):    37239.116
                          System time (sec):      896.612
                         Elapsed time (sec):    38452.299
  
                   Maximum memory used (kb):      402452.
                   Average memory used (kb):           0.
  
                          Minor page faults:     25421987
                          Major page faults:            7
                 Voluntary context switches:         1251
