  10  10   1   0
  0.9688350E+02  0.6907777E-09  0.6907777E-09  0.2344459E-08  0.5000000E-15
   1.0000000000000000E-004
  CAR 
 unknown system                          
      5.35934592    -19.85161271  301     -1.58202646      1.00000000
    -19.852  0.0000E+00  0.0000E+00  0.0000E+00  0.0000E+00
    -19.768  0.0000E+00  0.0000E+00  0.0000E+00  0.0000E+00
    -19.684  0.0000E+00  0.0000E+00  0.0000E+00  0.0000E+00
    -19.600  0.0000E+00  0.0000E+00  0.0000E+00  0.0000E+00
    -19.515  0.0000E+00  0.0000E+00  0.0000E+00  0.0000E+00
    -19.431  0.0000E+00  0.0000E+00  0.0000E+00  0.0000E+00
    -19.347  0.0000E+00  0.0000E+00  0.0000E+00  0.0000E+00
    -19.263  0.0000E+00  0.0000E+00  0.0000E+00  0.0000E+00
    -19.179  0.0000E+00  0.0000E+00  0.0000E+00  0.0000E+00
    -19.095  0.0000E+00  0.0000E+00  0.0000E+00  0.0000E+00
    -19.011  0.0000E+00  0.0000E+00  0.0000E+00  0.0000E+00
    -18.927  0.0000E+00  0.0000E+00  0.0000E+00  0.0000E+00
    -18.843  0.0000E+00  0.0000E+00  0.0000E+00  0.0000E+00
    -18.759  0.0000E+00  0.0000E+00  0.0000E+00  0.0000E+00
    -18.675  0.9954E-02  0.0000E+00  0.1521E-03  0.0000E+00
    -18.591  0.2095E-01  0.2076E-01  0.1773E-02  0.6372E-03
    -18.507  0.2775E-01  0.2415E-01  0.3819E-02  0.2524E-02
    -18.423  0.6297E-01  0.4621E-01  0.8496E-02  0.4982E-02
    -18.339  0.0000E+00  0.0000E+00  0.1010E-01  0.1010E-01
    -18.255  0.0000E+00  0.0000E+00  0.1010E-01  0.1010E-01
    -18.171  0.0000E+00  0.0000E+00  0.1010E-01  0.1010E-01
    -18.087  0.0000E+00  0.0000E+00  0.1010E-01  0.1010E-01
    -18.003  0.0000E+00  0.0000E+00  0.1010E-01  0.1010E-01
    -17.919  0.0000E+00  0.0000E+00  0.1010E-01  0.1010E-01
    -17.835  0.0000E+00  0.0000E+00  0.1010E-01  0.1010E-01
    -17.751  0.0000E+00  0.0000E+00  0.1010E-01  0.1010E-01
    -17.667  0.0000E+00  0.0000E+00  0.1010E-01  0.1010E-01
    -17.583  0.0000E+00  0.0000E+00  0.1010E-01  0.1010E-01
    -17.499  0.0000E+00  0.0000E+00  0.1010E-01  0.1010E-01
    -17.415  0.0000E+00  0.0000E+00  0.1010E-01  0.1010E-01
    -17.331  0.2093E-01  0.2587E-02  0.1053E-01  0.1011E-01
    -17.246  0.3062E-01  0.2516E-01  0.1283E-01  0.1177E-01
    -17.162  0.1136E+00  0.3537E-01  0.1704E-01  0.1431E-01
    -17.078  0.0000E+00  0.0000E+00  0.2020E-01  0.2020E-01
    -16.994  0.0000E+00  0.0000E+00  0.2020E-01  0.2020E-01
    -16.910  0.0000E+00  0.0000E+00  0.2020E-01  0.2020E-01
    -16.826  0.0000E+00  0.0000E+00  0.2020E-01  0.2020E-01
    -16.742  0.0000E+00  0.0000E+00  0.2020E-01  0.2020E-01
    -16.658  0.0000E+00  0.0000E+00  0.2020E-01  0.2020E-01
    -16.574  0.0000E+00  0.0000E+00  0.2020E-01  0.2020E-01
    -16.490  0.0000E+00  0.0000E+00  0.2020E-01  0.2020E-01
    -16.406  0.0000E+00  0.0000E+00  0.2020E-01  0.2020E-01
    -16.322  0.4472E-01  0.0000E+00  0.2298E-01  0.2020E-01
    -16.238  0.2145E-01  0.2967E-01  0.2576E-01  0.2507E-01
    -16.154  0.1159E-01  0.1219E-01  0.2692E-01  0.2663E-01
    -16.070  0.1072E-01  0.1127E-01  0.2786E-01  0.2761E-01
    -15.986  0.3165E-01  0.3229E-01  0.3029E-01  0.2978E-01
    -15.902  0.3556E-01  0.3620E-01  0.3309E-01  0.3268E-01
    -15.818  0.4812E-01  0.4912E-01  0.3661E-01  0.3626E-01
    -15.734  0.1029E+00  0.1063E+00  0.4214E-01  0.4194E-01
    -15.650  0.1412E+00  0.1536E+00  0.5030E-01  0.4867E-01
    -15.566  0.5721E-01  0.5992E-01  0.5708E-01  0.5684E-01
    -15.482  0.1194E-01  0.1269E-01  0.6051E-01  0.6051E-01
    -15.398  0.0000E+00  0.0000E+00  0.6061E-01  0.6061E-01
    -15.314  0.0000E+00  0.0000E+00  0.6061E-01  0.6061E-01
    -15.230  0.0000E+00  0.0000E+00  0.6061E-01  0.6061E-01
    -15.146  0.0000E+00  0.0000E+00  0.6061E-01  0.6061E-01
    -15.062  0.0000E+00  0.0000E+00  0.6061E-01  0.6061E-01
    -14.977  0.0000E+00  0.0000E+00  0.6061E-01  0.6061E-01
    -14.893  0.0000E+00  0.0000E+00  0.6061E-01  0.6061E-01
    -14.809  0.0000E+00  0.0000E+00  0.6061E-01  0.6061E-01
    -14.725  0.0000E+00  0.0000E+00  0.6061E-01  0.6061E-01
    -14.641  0.0000E+00  0.0000E+00  0.6061E-01  0.6061E-01
    -14.557  0.0000E+00  0.0000E+00  0.6061E-01  0.6061E-01
    -14.473  0.0000E+00  0.0000E+00  0.6061E-01  0.6061E-01
    -14.389  0.0000E+00  0.0000E+00  0.6061E-01  0.6061E-01
    -14.305  0.0000E+00  0.0000E+00  0.6061E-01  0.6061E-01
    -14.221  0.0000E+00  0.0000E+00  0.6061E-01  0.6061E-01
    -14.137  0.0000E+00  0.0000E+00  0.6061E-01  0.6061E-01
    -14.053  0.0000E+00  0.0000E+00  0.6061E-01  0.6061E-01
    -13.969  0.0000E+00  0.0000E+00  0.6061E-01  0.6061E-01
    -13.885  0.0000E+00  0.0000E+00  0.6061E-01  0.6061E-01
    -13.801  0.0000E+00  0.0000E+00  0.6061E-01  0.6061E-01
    -13.717  0.0000E+00  0.0000E+00  0.6061E-01  0.6061E-01
    -13.633  0.0000E+00  0.0000E+00  0.6061E-01  0.6061E-01
    -13.549  0.0000E+00  0.0000E+00  0.6061E-01  0.6061E-01
    -13.465  0.0000E+00  0.0000E+00  0.6061E-01  0.6061E-01
    -13.381  0.0000E+00  0.0000E+00  0.6061E-01  0.6061E-01
    -13.297  0.7784E-03  0.0000E+00  0.6062E-01  0.6061E-01
    -13.213  0.3443E-02  0.2030E-02  0.6079E-01  0.6066E-01
    -13.129  0.6108E-02  0.5023E-02  0.6119E-01  0.6096E-01
    -13.045  0.7009E-02  0.8017E-02  0.6182E-01  0.6151E-01
    -12.961  0.8300E-02  0.8238E-02  0.6246E-01  0.6220E-01
    -12.877  0.9591E-02  0.9665E-02  0.6321E-01  0.6295E-01
    -12.793  0.1088E-01  0.1109E-01  0.6407E-01  0.6382E-01
    -12.709  0.1217E-01  0.1252E-01  0.6504E-01  0.6481E-01
    -12.624  0.3407E-01  0.3919E-01  0.6701E-01  0.6649E-01
    -12.540  0.2082E-01  0.2378E-01  0.6931E-01  0.6913E-01
    -12.456  0.0000E+00  0.0000E+00  0.7071E-01  0.7071E-01
    -12.372  0.0000E+00  0.0000E+00  0.7071E-01  0.7071E-01
    -12.288  0.0000E+00  0.0000E+00  0.7071E-01  0.7071E-01
    -12.204  0.0000E+00  0.0000E+00  0.7071E-01  0.7071E-01
    -12.120  0.0000E+00  0.0000E+00  0.7071E-01  0.7071E-01
    -12.036  0.0000E+00  0.0000E+00  0.7071E-01  0.7071E-01
    -11.952  0.0000E+00  0.0000E+00  0.7071E-01  0.7071E-01
    -11.868  0.0000E+00  0.0000E+00  0.7071E-01  0.7071E-01
    -11.784  0.0000E+00  0.0000E+00  0.7071E-01  0.7071E-01
    -11.700  0.0000E+00  0.0000E+00  0.7071E-01  0.7071E-01
    -11.616  0.0000E+00  0.0000E+00  0.7071E-01  0.7071E-01
    -11.532  0.0000E+00  0.0000E+00  0.7071E-01  0.7071E-01
    -11.448  0.0000E+00  0.0000E+00  0.7071E-01  0.7071E-01
    -11.364  0.0000E+00  0.0000E+00  0.7071E-01  0.7071E-01
    -11.280  0.5290E-01  0.0000E+00  0.7334E-01  0.7071E-01
    -11.196  0.5599E-01  0.5423E-01  0.7985E-01  0.7421E-01
    -11.112  0.0000E+00  0.4167E-01  0.8081E-01  0.8020E-01
    -11.028  0.0000E+00  0.0000E+00  0.8081E-01  0.8081E-01
    -10.944  0.0000E+00  0.0000E+00  0.8081E-01  0.8081E-01
    -10.860  0.0000E+00  0.0000E+00  0.8081E-01  0.8081E-01
    -10.776  0.0000E+00  0.0000E+00  0.8081E-01  0.8081E-01
    -10.692  0.0000E+00  0.0000E+00  0.8081E-01  0.8081E-01
    -10.608  0.0000E+00  0.0000E+00  0.8081E-01  0.8081E-01
    -10.524  0.0000E+00  0.0000E+00  0.8081E-01  0.8081E-01
    -10.440  0.0000E+00  0.0000E+00  0.8081E-01  0.8081E-01
    -10.355  0.0000E+00  0.0000E+00  0.8081E-01  0.8081E-01
    -10.271  0.0000E+00  0.0000E+00  0.8081E-01  0.8081E-01
    -10.187  0.0000E+00  0.0000E+00  0.8081E-01  0.8081E-01
    -10.103  0.0000E+00  0.0000E+00  0.8081E-01  0.8081E-01
    -10.019  0.0000E+00  0.0000E+00  0.8081E-01  0.8081E-01
     -9.935  0.0000E+00  0.0000E+00  0.8081E-01  0.8081E-01
     -9.851  0.0000E+00  0.0000E+00  0.8081E-01  0.8081E-01
     -9.767  0.0000E+00  0.0000E+00  0.8081E-01  0.8081E-01
     -9.683  0.0000E+00  0.0000E+00  0.8081E-01  0.8081E-01
     -9.599  0.0000E+00  0.0000E+00  0.8081E-01  0.8081E-01
     -9.515  0.0000E+00  0.0000E+00  0.8081E-01  0.8081E-01
     -9.431  0.0000E+00  0.0000E+00  0.8081E-01  0.8081E-01
     -9.347  0.0000E+00  0.0000E+00  0.8081E-01  0.8081E-01
     -9.263  0.0000E+00  0.0000E+00  0.8081E-01  0.8081E-01
     -9.179  0.0000E+00  0.0000E+00  0.8081E-01  0.8081E-01
     -9.095  0.0000E+00  0.0000E+00  0.8081E-01  0.8081E-01
     -9.011  0.1518E-01  0.0000E+00  0.8125E-01  0.8081E-01
     -8.927  0.7906E-01  0.0000E+00  0.8554E-01  0.8081E-01
     -8.843  0.3339E-01  0.2278E-01  0.9257E-01  0.8159E-01
     -8.759  0.4078E-01  0.1618E+00  0.9575E-01  0.8927E-01
     -8.675  0.4314E-01  0.3808E-01  0.9909E-01  0.9453E-01
     -8.591  0.3273E-01  0.4501E-01  0.1023E+00  0.9821E-01
     -8.507  0.5289E-01  0.3485E-01  0.1052E+00  0.1016E+00
     -8.423  0.1298E-01  0.1479E-01  0.1136E+00  0.1043E+00
     -8.339  0.1396E-01  0.1186E+00  0.1147E+00  0.1112E+00
     -8.255  0.2184E-01  0.1437E-01  0.1162E+00  0.1144E+00
     -8.171  0.2972E-01  0.2078E-01  0.1184E+00  0.1159E+00
     -8.086  0.6322E-02  0.2783E-01  0.1223E+00  0.1179E+00
     -8.002  0.5474E-02  0.9799E-01  0.1228E+00  0.1215E+00
     -7.918  0.5996E-02  0.5423E-02  0.1232E+00  0.1227E+00
     -7.834  0.6518E-02  0.5983E-02  0.1238E+00  0.1232E+00
     -7.750  0.7041E-02  0.6542E-02  0.1243E+00  0.1237E+00
     -7.666  0.7563E-02  0.7102E-02  0.1249E+00  0.1243E+00
     -7.582  0.3679E-01  0.7662E-02  0.1284E+00  0.1249E+00
     -7.498  0.1993E-01  0.4022E-01  0.1307E+00  0.1282E+00
     -7.414  0.0000E+00  0.2036E-01  0.1313E+00  0.1308E+00
     -7.330  0.0000E+00  0.0000E+00  0.1313E+00  0.1313E+00
     -7.246  0.5237E-03  0.0000E+00  0.1313E+00  0.1313E+00
     -7.162  0.1185E-02  0.0000E+00  0.1314E+00  0.1313E+00
     -7.078  0.1846E-02  0.0000E+00  0.1315E+00  0.1313E+00
     -6.994  0.2507E-02  0.3435E-05  0.1317E+00  0.1313E+00
     -6.910  0.3169E-02  0.7941E-03  0.1320E+00  0.1313E+00
     -6.826  0.5676E-01  0.1585E-02  0.1334E+00  0.1314E+00
     -6.742  0.4811E-01  0.2375E-02  0.1374E+00  0.1316E+00
     -6.658  0.2391E-01  0.3166E-02  0.1404E+00  0.1318E+00
     -6.574  0.0000E+00  0.3151E-01  0.1414E+00  0.1346E+00
     -6.490  0.0000E+00  0.3808E-01  0.1414E+00  0.1375E+00
     -6.406  0.5624E-01  0.2339E-01  0.1424E+00  0.1406E+00
     -6.322  0.3900E-01  0.0000E+00  0.1538E+00  0.1414E+00
     -6.238  0.3222E-01  0.0000E+00  0.1568E+00  0.1414E+00
     -6.154  0.1103E+00  0.6423E-01  0.1615E+00  0.1435E+00
     -6.070  0.3208E+00  0.8726E-01  0.1696E+00  0.1497E+00
     -5.986  0.3034E-01  0.3025E-01  0.1759E+00  0.1562E+00
     -5.902  0.4236E-01  0.1359E-01  0.1795E+00  0.1597E+00
     -5.818  0.3706E-01  0.2062E+00  0.1828E+00  0.1620E+00
     -5.733  0.3434E-01  0.9136E-01  0.1858E+00  0.1747E+00
     -5.649  0.7469E-01  0.4297E-01  0.1925E+00  0.1797E+00
     -5.565  0.3330E-01  0.3768E-01  0.1963E+00  0.1831E+00
     -5.481  0.1302E+00  0.2346E-01  0.2004E+00  0.1856E+00
     -5.397  0.4810E-01  0.5674E-01  0.2048E+00  0.1893E+00
     -5.313  0.3432E-01  0.5882E-01  0.2084E+00  0.1945E+00
     -5.229  0.3835E-01  0.2642E-01  0.2124E+00  0.1975E+00
     -5.145  0.3596E-01  0.1194E-01  0.2153E+00  0.2004E+00
     -5.061  0.3525E-01  0.6822E-01  0.2184E+00  0.2043E+00
     -4.977  0.3839E-01  0.6619E-01  0.2213E+00  0.2118E+00
     -4.893  0.5565E-01  0.3999E-01  0.2253E+00  0.2160E+00
     -4.809  0.2388E-01  0.4217E-01  0.2289E+00  0.2195E+00
     -4.725  0.3519E-01  0.7192E-01  0.2321E+00  0.2243E+00
     -4.641  0.7255E-01  0.2915E-01  0.2356E+00  0.2281E+00
     -4.557  0.8628E-01  0.1881E-01  0.2451E+00  0.2300E+00
     -4.473  0.6397E-02  0.6914E-01  0.2518E+00  0.2343E+00
     -4.389  0.4154E-02  0.6211E-01  0.2522E+00  0.2392E+00
     -4.305  0.1910E-02  0.2162E+00  0.2525E+00  0.2484E+00
     -4.221  0.0000E+00  0.6381E-02  0.2525E+00  0.2521E+00
     -4.137  0.0000E+00  0.1929E-02  0.2525E+00  0.2525E+00
     -4.053  0.0000E+00  0.0000E+00  0.2525E+00  0.2525E+00
     -3.969  0.0000E+00  0.0000E+00  0.2525E+00  0.2525E+00
     -3.885  0.0000E+00  0.0000E+00  0.2525E+00  0.2525E+00
     -3.801  0.5243E-01  0.0000E+00  0.2557E+00  0.2525E+00
     -3.717  0.1393E-01  0.0000E+00  0.2585E+00  0.2525E+00
     -3.633  0.1191E-01  0.0000E+00  0.2596E+00  0.2525E+00
     -3.549  0.3231E-01  0.0000E+00  0.2610E+00  0.2525E+00
     -3.464  0.8780E-01  0.0000E+00  0.2667E+00  0.2525E+00
     -3.380  0.5326E-01  0.0000E+00  0.2769E+00  0.2525E+00
     -3.296  0.2945E-01  0.0000E+00  0.2805E+00  0.2525E+00
     -3.212  0.1180E-01  0.0000E+00  0.2821E+00  0.2525E+00
     -3.128  0.3247E-02  0.0000E+00  0.2828E+00  0.2525E+00
     -3.044  0.2043E-01  0.0000E+00  0.2830E+00  0.2525E+00
     -2.960  0.1061E+00  0.0000E+00  0.2886E+00  0.2525E+00
     -2.876  0.2247E+00  0.0000E+00  0.2972E+00  0.2525E+00
     -2.792  0.2106E+00  0.0000E+00  0.3112E+00  0.2525E+00
     -2.708  0.0000E+00  0.0000E+00  0.3131E+00  0.2525E+00
     -2.624  0.0000E+00  0.0000E+00  0.3131E+00  0.2525E+00
     -2.540  0.0000E+00  0.0000E+00  0.3131E+00  0.2525E+00
     -2.456  0.0000E+00  0.6809E-02  0.3131E+00  0.2530E+00
     -2.372  0.0000E+00  0.9589E-02  0.3131E+00  0.2537E+00
     -2.288  0.0000E+00  0.1237E-01  0.3131E+00  0.2546E+00
     -2.204  0.0000E+00  0.1515E-01  0.3131E+00  0.2558E+00
     -2.120  0.0000E+00  0.1793E-01  0.3131E+00  0.2572E+00
     -2.036  0.1084E-01  0.6488E-02  0.3132E+00  0.2581E+00
     -1.952  0.4423E-01  0.6096E-02  0.3170E+00  0.2586E+00
     -1.868  0.1740E-01  0.5703E-02  0.3204E+00  0.2591E+00
     -1.784  0.1107E-01  0.5311E-02  0.3216E+00  0.2596E+00
     -1.700  0.1938E-01  0.4918E-02  0.3228E+00  0.2600E+00
     -1.616  0.2168E-01  0.4526E-02  0.3245E+00  0.2604E+00
     -1.532  0.3415E-01  0.4133E-02  0.3270E+00  0.2608E+00
     -1.448  0.5648E-01  0.2321E-01  0.3301E+00  0.2638E+00
     -1.364  0.1436E-01  0.2533E-01  0.3331E+00  0.2657E+00
     -1.280  0.1367E-02  0.2149E-01  0.3333E+00  0.2677E+00
     -1.196  0.5782E-01  0.1765E-01  0.3358E+00  0.2693E+00
     -1.111  0.4704E-01  0.6191E-01  0.3414E+00  0.2747E+00
     -1.027  0.6175E-01  0.3611E-01  0.3441E+00  0.2784E+00
     -0.943  0.7548E-01  0.4780E-01  0.3485E+00  0.2819E+00
     -0.859  0.0000E+00  0.6412E-01  0.3535E+00  0.2866E+00
     -0.775  0.1027E-01  0.2939E-01  0.3543E+00  0.2902E+00
     -0.691  0.1327E-01  0.8914E-02  0.3553E+00  0.2917E+00
     -0.607  0.1628E-01  0.5585E-02  0.3565E+00  0.2928E+00
     -0.523  0.2373E-01  0.4660E-01  0.3580E+00  0.2961E+00
     -0.439  0.4856E-01  0.6464E-01  0.3611E+00  0.3024E+00
     -0.355  0.3069E-02  0.9853E-01  0.3639E+00  0.3090E+00
     -0.271  0.4499E-02  0.4461E-01  0.3642E+00  0.3213E+00
     -0.187  0.5928E-02  0.4654E-01  0.3647E+00  0.3261E+00
     -0.103  0.7307E-01  0.3229E-01  0.3720E+00  0.3302E+00
     -0.019  0.0000E+00  0.1341E+00  0.3737E+00  0.3354E+00
      0.065  0.0000E+00  0.2168E-01  0.3737E+00  0.3400E+00
      0.149  0.0000E+00  0.4214E-01  0.3737E+00  0.3427E+00
      0.233  0.0000E+00  0.3431E-01  0.3737E+00  0.3491E+00
      0.317  0.0000E+00  0.2366E-01  0.3737E+00  0.3520E+00
      0.401  0.2732E-01  0.3491E-01  0.3748E+00  0.3548E+00
      0.485  0.2109E-01  0.3098E-01  0.3773E+00  0.3578E+00
      0.569  0.2318E-01  0.7542E-01  0.3792E+00  0.3636E+00
      0.653  0.4070E-01  0.4276E-01  0.3831E+00  0.3690E+00
      0.737  0.1760E-01  0.1417E+00  0.3847E+00  0.3733E+00
      0.821  0.2010E+00  0.2255E-01  0.3938E+00  0.3767E+00
      0.905  0.1504E-01  0.4773E-01  0.3970E+00  0.3798E+00
      0.989  0.2484E-01  0.9078E-02  0.4003E+00  0.3845E+00
      1.073  0.1942E-01  0.7344E-01  0.4021E+00  0.3872E+00
      1.158  0.1400E-01  0.2770E-01  0.4035E+00  0.3911E+00
      1.242  0.1439E-01  0.3105E-01  0.4047E+00  0.3936E+00
      1.326  0.1697E-01  0.2971E-01  0.4070E+00  0.3961E+00
      1.410  0.1438E-01  0.3636E-01  0.4083E+00  0.3987E+00
      1.494  0.1179E-01  0.3921E-01  0.4094E+00  0.4025E+00
      1.578  0.9193E-02  0.0000E+00  0.4103E+00  0.4040E+00
      1.662  0.2338E-01  0.0000E+00  0.4122E+00  0.4040E+00
      1.746  0.2352E-01  0.0000E+00  0.4142E+00  0.4040E+00
      1.830  0.2859E-01  0.5515E-01  0.4164E+00  0.4050E+00
      1.914  0.5203E-01  0.2749E-01  0.4201E+00  0.4086E+00
      1.998  0.2247E-01  0.3172E-01  0.4226E+00  0.4109E+00
      2.082  0.6211E-02  0.4127E-01  0.4244E+00  0.4138E+00
      2.166  0.1966E-01  0.3188E-01  0.4254E+00  0.4182E+00
      2.250  0.1109E-01  0.7293E-01  0.4262E+00  0.4227E+00
      2.334  0.1658E-01  0.2206E-01  0.4273E+00  0.4253E+00
      2.418  0.1556E-01  0.1924E-01  0.4289E+00  0.4269E+00
      2.502  0.1734E-01  0.1607E-01  0.4302E+00  0.4284E+00
      2.586  0.1979E-01  0.1721E-01  0.4318E+00  0.4298E+00
      2.670  0.2947E-01  0.1844E-01  0.4337E+00  0.4313E+00
      2.754  0.2634E-01  0.1980E-01  0.4360E+00  0.4329E+00
      2.838  0.3181E-01  0.2760E-01  0.4382E+00  0.4348E+00
      2.922  0.2402E-01  0.2348E-01  0.4406E+00  0.4370E+00
      3.006  0.3086E-01  0.1932E-01  0.4430E+00  0.4388E+00
      3.090  0.4842E-01  0.1847E-01  0.4463E+00  0.4406E+00
      3.174  0.3028E-01  0.1072E-01  0.4512E+00  0.4420E+00
      3.258  0.1709E-01  0.2282E-01  0.4532E+00  0.4435E+00
      3.342  0.0000E+00  0.2878E-01  0.4545E+00  0.4456E+00
      3.427  0.3197E-01  0.3879E-01  0.4575E+00  0.4485E+00
      3.511  0.9738E-01  0.1012E+00  0.4628E+00  0.4539E+00
      3.595  0.5664E-01  0.2916E-01  0.4697E+00  0.4575E+00
      3.679  0.4364E-04  0.7164E-01  0.4747E+00  0.4641E+00
      3.763  0.1117E-01  0.3036E-01  0.4752E+00  0.4684E+00
      3.847  0.2171E-01  0.1771E-01  0.4768E+00  0.4701E+00
      3.931  0.2704E-01  0.1419E-01  0.4806E+00  0.4715E+00
      4.015  0.2040E-01  0.4659E-01  0.4826E+00  0.4746E+00
      4.099  0.1376E-01  0.8461E-01  0.4840E+00  0.4801E+00
      4.183  0.0000E+00  0.2186E-01  0.4848E+00  0.4844E+00
      4.267  0.0000E+00  0.0000E+00  0.4848E+00  0.4848E+00
      4.351  0.0000E+00  0.0000E+00  0.4848E+00  0.4848E+00
      4.435  0.0000E+00  0.0000E+00  0.4848E+00  0.4848E+00
      4.519  0.0000E+00  0.0000E+00  0.4848E+00  0.4848E+00
      4.603  0.0000E+00  0.0000E+00  0.4848E+00  0.4848E+00
      4.687  0.0000E+00  0.0000E+00  0.4848E+00  0.4848E+00
      4.771  0.0000E+00  0.0000E+00  0.4848E+00  0.4848E+00
      4.855  0.0000E+00  0.0000E+00  0.4848E+00  0.4848E+00
      4.939  0.0000E+00  0.0000E+00  0.4848E+00  0.4848E+00
      5.023  0.0000E+00  0.0000E+00  0.4848E+00  0.4848E+00
      5.107  0.0000E+00  0.0000E+00  0.4848E+00  0.4848E+00
      5.191  0.0000E+00  0.0000E+00  0.4848E+00  0.4848E+00
      5.275  0.0000E+00  0.0000E+00  0.4848E+00  0.4848E+00
      5.359  0.0000E+00  0.0000E+00  0.4848E+00  0.4848E+00
      5.35934592    -19.85161271  301     -1.58202646      1.00000000
    -19.852  0.0000E+00  0.0000E+00  0.0000E+00  0.0000E+00  0.0000E+00  0.0000E+00  0.0000E+00  0.0000E+00  0.0000E+00  0.0000E+00  0.0000E+00  0.0000E+00  0.0000E+00  0.0000E+00  0.0000E+00  0.0000E+00  0.0000E+00  0.0000E+00
    -19.768  0.0000E+00  0.0000E+00  0.0000E+00  0.0000E+00  0.0000E+00  0.0000E+00  0.0000E+00  0.0000E+00  0.0000E+00  0.0000E+00  0.0000E+00  0.0000E+00  0.0000E+00  0.0000E+00  0.0000E+00  0.0000E+00  0.0000E+00  0.0000E+00
    -19.684  0.0000E+00  0.0000E+00  0.0000E+00  0.0000E+00  0.0000E+00  0.0000E+00  0.0000E+00  0.0000E+00  0.0000E+00  0.0000E+00  0.0000E+00  0.0000E+00  0.0000E+00  0.0000E+00  0.0000E+00  0.0000E+00  0.0000E+00  0.0000E+00
    -19.600  0.0000E+00  0.0000E+00  0.0000E+00  0.0000E+00  0.0000E+00  0.0000E+00  0.0000E+00  0.0000E+00  0.0000E+00  0.0000E+00  0.0000E+00  0.0000E+00  0.0000E+00  0.0000E+00  0.0000E+00  0.0000E+00  0.0000E+00  0.0000E+00
    -19.515  0.0000E+00  0.0000E+00  0.0000E+00  0.0000E+00  0.0000E+00  0.0000E+00  0.0000E+00  0.0000E+00  0.0000E+00  0.0000E+00  0.0000E+00  0.0000E+00  0.0000E+00  0.0000E+00  0.0000E+00  0.0000E+00  0.0000E+00  0.0000E+00
    -19.431  0.0000E+00  0.0000E+00  0.0000E+00  0.0000E+00  0.0000E+00  0.0000E+00  0.0000E+00  0.0000E+00  0.0000E+00  0.0000E+00  0.0000E+00  0.0000E+00  0.0000E+00  0.0000E+00  0.0000E+00  0.0000E+00  0.0000E+00  0.0000E+00
    -19.347  0.0000E+00  0.0000E+00  0.0000E+00  0.0000E+00  0.0000E+00  0.0000E+00  0.0000E+00  0.0000E+00  0.0000E+00  0.0000E+00  0.0000E+00  0.0000E+00  0.0000E+00  0.0000E+00  0.0000E+00  0.0000E+00  0.0000E+00  0.0000E+00
    -19.263  0.0000E+00  0.0000E+00  0.0000E+00  0.0000E+00  0.0000E+00  0.0000E+00  0.0000E+00  0.0000E+00  0.0000E+00  0.0000E+00  0.0000E+00  0.0000E+00  0.0000E+00  0.0000E+00  0.0000E+00  0.0000E+00  0.0000E+00  0.0000E+00
    -19.179  0.0000E+00  0.0000E+00  0.0000E+00  0.0000E+00  0.0000E+00  0.0000E+00  0.0000E+00  0.0000E+00  0.0000E+00  0.0000E+00  0.0000E+00  0.0000E+00  0.0000E+00  0.0000E+00  0.0000E+00  0.0000E+00  0.0000E+00  0.0000E+00
    -19.095  0.0000E+00  0.0000E+00  0.0000E+00  0.0000E+00  0.0000E+00  0.0000E+00  0.0000E+00  0.0000E+00  0.0000E+00  0.0000E+00  0.0000E+00  0.0000E+00  0.0000E+00  0.0000E+00  0.0000E+00  0.0000E+00  0.0000E+00  0.0000E+00
    -19.011  0.0000E+00  0.0000E+00  0.0000E+00  0.0000E+00  0.0000E+00  0.0000E+00  0.0000E+00  0.0000E+00  0.0000E+00  0.0000E+00  0.0000E+00  0.0000E+00  0.0000E+00  0.0000E+00  0.0000E+00  0.0000E+00  0.0000E+00  0.0000E+00
    -18.927  0.0000E+00  0.0000E+00  0.0000E+00  0.0000E+00  0.0000E+00  0.0000E+00  0.0000E+00  0.0000E+00  0.0000E+00  0.0000E+00  0.0000E+00  0.0000E+00  0.0000E+00  0.0000E+00  0.0000E+00  0.0000E+00  0.0000E+00  0.0000E+00
    -18.843  0.0000E+00  0.0000E+00  0.0000E+00  0.0000E+00  0.0000E+00  0.0000E+00  0.0000E+00  0.0000E+00  0.0000E+00  0.0000E+00  0.0000E+00  0.0000E+00  0.0000E+00  0.0000E+00  0.0000E+00  0.0000E+00  0.0000E+00  0.0000E+00
    -18.759  0.0000E+00  0.0000E+00  0.0000E+00  0.0000E+00  0.0000E+00  0.0000E+00  0.0000E+00  0.0000E+00  0.0000E+00  0.0000E+00  0.0000E+00  0.0000E+00  0.0000E+00  0.0000E+00  0.0000E+00  0.0000E+00  0.0000E+00  0.0000E+00
    -18.675  0.8378E-02  0.0000E+00  0.1147E-03  0.0000E+00  0.1069E-09  0.0000E+00  0.3448E-03  0.0000E+00  0.4350E-04  0.0000E+00  0.2338E-04  0.0000E+00  0.2269E-04  0.0000E+00  0.7872E-05  0.0000E+00  0.1470E-04  0.0000E+00
    -18.591  0.1245E-01  0.1544E-01  0.4973E-03  0.2570E-03  0.4435E-08  0.2564E-09  0.2173E-02  0.7730E-03  0.2981E-03  0.9083E-04  0.1645E-03  0.5348E-04  0.3137E-04  0.3425E-04  0.4670E-04  0.1802E-04  0.8571E-04  0.3071E-04
    -18.507  0.1260E-01  0.1165E-01  0.9102E-03  0.6190E-03  0.7196E-08  0.6237E-08  0.3853E-02  0.2674E-02  0.5543E-03  0.3483E-03  0.3088E-03  0.2113E-03  0.3053E-04  0.2390E-04  0.8965E-04  0.6026E-04  0.1625E-03  0.1004E-03
    -18.423  0.1111E-01  0.1226E-01  0.4608E-02  0.2207E-02  0.1894E-07  0.1703E-07  0.1142E-01  0.7253E-02  0.1833E-02  0.1019E-02  0.1037E-02  0.6264E-03  0.2406E-04  0.2322E-04  0.4809E-03  0.2326E-03  0.8520E-03  0.3799E-03
    -18.339  0.0000E+00  0.0000E+00  0.0000E+00  0.0000E+00  0.0000E+00  0.0000E+00  0.0000E+00  0.0000E+00  0.0000E+00  0.0000E+00  0.0000E+00  0.0000E+00  0.0000E+00  0.0000E+00  0.0000E+00  0.0000E+00  0.0000E+00  0.0000E+00
    -18.255  0.0000E+00  0.0000E+00  0.0000E+00  0.0000E+00  0.0000E+00  0.0000E+00  0.0000E+00  0.0000E+00  0.0000E+00  0.0000E+00  0.0000E+00  0.0000E+00  0.0000E+00  0.0000E+00  0.0000E+00  0.0000E+00  0.0000E+00  0.0000E+00
    -18.171  0.0000E+00  0.0000E+00  0.0000E+00  0.0000E+00  0.0000E+00  0.0000E+00  0.0000E+00  0.0000E+00  0.0000E+00  0.0000E+00  0.0000E+00  0.0000E+00  0.0000E+00  0.0000E+00  0.0000E+00  0.0000E+00  0.0000E+00  0.0000E+00
    -18.087  0.0000E+00  0.0000E+00  0.0000E+00  0.0000E+00  0.0000E+00  0.0000E+00  0.0000E+00  0.0000E+00  0.0000E+00  0.0000E+00  0.0000E+00  0.0000E+00  0.0000E+00  0.0000E+00  0.0000E+00  0.0000E+00  0.0000E+00  0.0000E+00
    -18.003  0.0000E+00  0.0000E+00  0.0000E+00  0.0000E+00  0.0000E+00  0.0000E+00  0.0000E+00  0.0000E+00  0.0000E+00  0.0000E+00  0.0000E+00  0.0000E+00  0.0000E+00  0.0000E+00  0.0000E+00  0.0000E+00  0.0000E+00  0.0000E+00
    -17.919  0.0000E+00  0.0000E+00  0.0000E+00  0.0000E+00  0.0000E+00  0.0000E+00  0.0000E+00  0.0000E+00  0.0000E+00  0.0000E+00  0.0000E+00  0.0000E+00  0.0000E+00  0.0000E+00  0.0000E+00  0.0000E+00  0.0000E+00  0.0000E+00
    -17.835  0.0000E+00  0.0000E+00  0.0000E+00  0.0000E+00  0.0000E+00  0.0000E+00  0.0000E+00  0.0000E+00  0.0000E+00  0.0000E+00  0.0000E+00  0.0000E+00  0.0000E+00  0.0000E+00  0.0000E+00  0.0000E+00  0.0000E+00  0.0000E+00
    -17.751  0.0000E+00  0.0000E+00  0.0000E+00  0.0000E+00  0.0000E+00  0.0000E+00  0.0000E+00  0.0000E+00  0.0000E+00  0.0000E+00  0.0000E+00  0.0000E+00  0.0000E+00  0.0000E+00  0.0000E+00  0.0000E+00  0.0000E+00  0.0000E+00
    -17.667  0.0000E+00  0.0000E+00  0.0000E+00  0.0000E+00  0.0000E+00  0.0000E+00  0.0000E+00  0.0000E+00  0.0000E+00  0.0000E+00  0.0000E+00  0.0000E+00  0.0000E+00  0.0000E+00  0.0000E+00  0.0000E+00  0.0000E+00  0.0000E+00
    -17.583  0.0000E+00  0.0000E+00  0.0000E+00  0.0000E+00  0.0000E+00  0.0000E+00  0.0000E+00  0.0000E+00  0.0000E+00  0.0000E+00  0.0000E+00  0.0000E+00  0.0000E+00  0.0000E+00  0.0000E+00  0.0000E+00  0.0000E+00  0.0000E+00
    -17.499  0.0000E+00  0.0000E+00  0.0000E+00  0.0000E+00  0.0000E+00  0.0000E+00  0.0000E+00  0.0000E+00  0.0000E+00  0.0000E+00  0.0000E+00  0.0000E+00  0.0000E+00  0.0000E+00  0.0000E+00  0.0000E+00  0.0000E+00  0.0000E+00
    -17.415  0.0000E+00  0.0000E+00  0.0000E+00  0.0000E+00  0.0000E+00  0.0000E+00  0.0000E+00  0.0000E+00  0.0000E+00  0.0000E+00  0.0000E+00  0.0000E+00  0.0000E+00  0.0000E+00  0.0000E+00  0.0000E+00  0.0000E+00  0.0000E+00
    -17.331  0.3415E-07  0.4109E-08  0.1456E-03  0.1345E-04  0.9421E-02  0.1129E-02  0.4967E-04  0.4589E-05  0.9412E-04  0.8354E-05  0.3031E-03  0.2637E-04  0.2027E-07  0.2170E-08  0.9106E-03  0.7923E-04  0.2837E-03  0.2518E-04
    -17.246  0.3351E-06  0.2830E-06  0.7773E-03  0.4780E-03  0.8698E-02  0.7806E-02  0.2153E-03  0.1308E-03  0.3278E-03  0.1938E-03  0.1036E-02  0.6035E-03  0.1902E-07  0.1515E-07  0.4382E-02  0.2603E-02  0.1387E-02  0.8372E-03
    -17.162  0.1273E-05  0.4909E-06  0.4727E-02  0.1017E-02  0.1256E-01  0.7951E-02  0.1982E-02  0.2880E-03  0.2997E-02  0.4111E-03  0.9340E-02  0.1269E-02  0.2829E-07  0.1556E-07  0.2437E-01  0.5248E-02  0.7803E-02  0.1699E-02
    -17.078  0.0000E+00  0.0000E+00  0.0000E+00  0.0000E+00  0.0000E+00  0.0000E+00  0.0000E+00  0.0000E+00  0.0000E+00  0.0000E+00  0.0000E+00  0.0000E+00  0.0000E+00  0.0000E+00  0.0000E+00  0.0000E+00  0.0000E+00  0.0000E+00
    -16.994  0.0000E+00  0.0000E+00  0.0000E+00  0.0000E+00  0.0000E+00  0.0000E+00  0.0000E+00  0.0000E+00  0.0000E+00  0.0000E+00  0.0000E+00  0.0000E+00  0.0000E+00  0.0000E+00  0.0000E+00  0.0000E+00  0.0000E+00  0.0000E+00
    -16.910  0.0000E+00  0.0000E+00  0.0000E+00  0.0000E+00  0.0000E+00  0.0000E+00  0.0000E+00  0.0000E+00  0.0000E+00  0.0000E+00  0.0000E+00  0.0000E+00  0.0000E+00  0.0000E+00  0.0000E+00  0.0000E+00  0.0000E+00  0.0000E+00
    -16.826  0.0000E+00  0.0000E+00  0.0000E+00  0.0000E+00  0.0000E+00  0.0000E+00  0.0000E+00  0.0000E+00  0.0000E+00  0.0000E+00  0.0000E+00  0.0000E+00  0.0000E+00  0.0000E+00  0.0000E+00  0.0000E+00  0.0000E+00  0.0000E+00
    -16.742  0.0000E+00  0.0000E+00  0.0000E+00  0.0000E+00  0.0000E+00  0.0000E+00  0.0000E+00  0.0000E+00  0.0000E+00  0.0000E+00  0.0000E+00  0.0000E+00  0.0000E+00  0.0000E+00  0.0000E+00  0.0000E+00  0.0000E+00  0.0000E+00
    -16.658  0.0000E+00  0.0000E+00  0.0000E+00  0.0000E+00  0.0000E+00  0.0000E+00  0.0000E+00  0.0000E+00  0.0000E+00  0.0000E+00  0.0000E+00  0.0000E+00  0.0000E+00  0.0000E+00  0.0000E+00  0.0000E+00  0.0000E+00  0.0000E+00
    -16.574  0.0000E+00  0.0000E+00  0.0000E+00  0.0000E+00  0.0000E+00  0.0000E+00  0.0000E+00  0.0000E+00  0.0000E+00  0.0000E+00  0.0000E+00  0.0000E+00  0.0000E+00  0.0000E+00  0.0000E+00  0.0000E+00  0.0000E+00  0.0000E+00
    -16.490  0.0000E+00  0.0000E+00  0.0000E+00  0.0000E+00  0.0000E+00  0.0000E+00  0.0000E+00  0.0000E+00  0.0000E+00  0.0000E+00  0.0000E+00  0.0000E+00  0.0000E+00  0.0000E+00  0.0000E+00  0.0000E+00  0.0000E+00  0.0000E+00
    -16.406  0.0000E+00  0.0000E+00  0.0000E+00  0.0000E+00  0.0000E+00  0.0000E+00  0.0000E+00  0.0000E+00  0.0000E+00  0.0000E+00  0.0000E+00  0.0000E+00  0.0000E+00  0.0000E+00  0.0000E+00  0.0000E+00  0.0000E+00  0.0000E+00
    -16.322  0.6839E-01  0.0000E+00  0.6684E-02  0.0000E+00  0.1713E-03  0.0000E+00  0.6170E-02  0.0000E+00  0.2704E-02  0.0000E+00  0.3282E-02  0.0000E+00  0.1886E-04  0.0000E+00  0.4498E-03  0.0000E+00  0.4065E-03  0.0000E+00
    -16.238  0.2976E-01  0.3789E-01  0.3383E-02  0.4351E-02  0.6693E-04  0.1096E-03  0.2569E-02  0.3360E-02  0.1910E-02  0.1905E-02  0.2452E-02  0.2517E-02  0.9913E-05  0.1173E-04  0.3702E-03  0.3413E-03  0.2901E-03  0.2690E-03
    -16.154  0.1350E-01  0.1286E-01  0.1629E-02  0.1601E-02  0.2128E-04  0.2438E-04  0.1534E-02  0.1470E-02  0.1426E-02  0.1200E-02  0.1926E-02  0.1687E-02  0.5955E-05  0.5319E-05  0.4136E-03  0.3511E-03  0.2982E-03  0.2439E-03
    -16.070  0.1119E-01  0.1066E-01  0.1458E-02  0.1443E-02  0.1810E-04  0.2105E-04  0.1525E-02  0.1456E-02  0.1478E-02  0.1250E-02  0.2039E-02  0.1796E-02  0.5826E-05  0.5141E-05  0.4852E-03  0.4159E-03  0.3424E-03  0.2822E-03
    -15.986  0.2196E-01  0.2064E-01  0.9281E-02  0.8535E-02  0.1466E-02  0.1314E-02  0.7846E-02  0.7235E-02  0.1909E-02  0.1608E-02  0.2675E-02  0.2337E-02  0.1644E-04  0.1375E-04  0.1172E-02  0.9733E-03  0.7670E-03  0.6145E-03
    -15.902  0.1450E-01  0.1381E-01  0.1182E-01  0.1081E-01  0.2610E-02  0.2412E-02  0.9580E-02  0.8929E-02  0.2203E-02  0.1928E-02  0.3393E-02  0.3071E-02  0.1267E-04  0.1074E-04  0.1751E-02  0.1300E-02  0.1080E-02  0.7785E-03
    -15.818  0.1016E-01  0.9568E-02  0.1823E-01  0.1692E-01  0.4309E-02  0.4071E-02  0.1175E-01  0.1107E-01  0.2237E-02  0.1935E-02  0.3542E-02  0.3161E-02  0.9613E-05  0.7977E-05  0.5000E-02  0.4086E-02  0.2990E-02  0.2365E-02
    -15.734  0.3732E-02  0.3865E-02  0.1398E-01  0.1344E-01  0.5266E-01  0.4861E-01  0.4458E-02  0.4642E-02  0.6335E-02  0.5605E-02  0.1553E-01  0.1367E-01  0.9118E-05  0.7598E-05  0.1567E-01  0.1386E-01  0.6597E-02  0.5817E-02
    -15.650  0.3220E-01  0.3509E-01  0.9796E-02  0.9213E-02  0.3198E-01  0.3021E-01  0.7211E-02  0.7334E-02  0.2032E-01  0.2041E-01  0.4500E-01  0.4562E-01  0.1030E-03  0.9290E-04  0.3513E-01  0.2904E-01  0.1528E-01  0.1257E-01