       N       E                     dE             d eps       ncg     rms          rms(c)
DAV:   1     0.424200689467E+03    0.42420E+03   -0.17123E+04   960   0.850E+02
DAV:   2     0.410543038070E+02   -0.38315E+03   -0.35316E+03  1152   0.169E+02
DAV:   3    -0.499005664788E+02   -0.90955E+02   -0.86144E+02  1424   0.845E+01
DAV:   4    -0.548318248081E+02   -0.49313E+01   -0.47244E+01  1328   0.263E+01
DAV:   5    -0.549587539123E+02   -0.12693E+00   -0.12640E+00  1408   0.429E+00    0.300E+01
DAV:   6    -0.127271992162E+03   -0.72313E+02   -0.13820E+02  1360   0.812E+01    0.635E+01
DAV:   7    -0.432555673690E+02    0.84016E+02   -0.15234E+02  1168   0.104E+02    0.174E+01
DAV:   8    -0.443574831435E+02   -0.11019E+01   -0.22548E+01  1248   0.239E+01    0.106E+01
DAV:   9    -0.464092070339E+02   -0.20517E+01   -0.22194E+00  1440   0.840E+00    0.519E+00
DAV:  10    -0.469607882119E+02   -0.55158E+00   -0.61620E-01  1456   0.565E+00    0.334E+00
DAV:  11    -0.471662535356E+02   -0.20547E+00   -0.23956E-01  1392   0.400E+00    0.353E+00
DAV:  12    -0.474218783167E+02   -0.25562E+00   -0.46826E-02  1424   0.159E+00    0.286E+00
DAV:  13    -0.476936820000E+02   -0.27180E+00   -0.10202E-01  1440   0.184E+00    0.850E-01
DAV:  14    -0.477632491744E+02   -0.69567E-01   -0.45212E-02  1232   0.109E+00    0.794E-01
DAV:  15    -0.477786058228E+02   -0.15357E-01   -0.16539E-02  1296   0.890E-01    0.262E-01
DAV:  16    -0.477808089681E+02   -0.22031E-02   -0.33438E-03  1184   0.344E-01    0.917E-02
DAV:  17    -0.477811753306E+02   -0.36636E-03   -0.10072E-03  1136   0.157E-01    0.653E-02
DAV:  18    -0.477812051817E+02   -0.29851E-04   -0.13397E-04   864   0.621E-02
   1 F= -.47781205E+02 E0= -.47781205E+02  d E =-.477812E+02  mag=     6.0047
       N       E                     dE             d eps       ncg     rms          rms(c)
DAV:   1    -0.789714988988E+02   -0.31190E+02   -0.76810E+02  1248   0.146E+02    0.304E+01
DAV:   2    -0.610939331119E+02    0.17878E+02   -0.63214E+01  1424   0.481E+01    0.161E+01
DAV:   3    -0.631961738194E+02   -0.21022E+01   -0.61761E+01  1536   0.804E+01    0.247E+01
DAV:   4    -0.537816071976E+02    0.94146E+01   -0.25294E+01  1440   0.340E+01    0.661E+00
DAV:   5    -0.541104723455E+02   -0.32887E+00   -0.29326E+00  1520   0.769E+00    0.460E+00
DAV:   6    -0.543787820567E+02   -0.26831E+00   -0.35851E-01  1472   0.424E+00    0.190E+00
DAV:   7    -0.543652944001E+02    0.13488E-01   -0.16770E-01  1488   0.306E+00    0.130E+00
DAV:   8    -0.543877681139E+02   -0.22474E-01   -0.26902E-02  1376   0.815E-01    0.469E-01
DAV:   9    -0.543874369265E+02    0.33119E-03   -0.92482E-03  1296   0.496E-01    0.260E-01
DAV:  10    -0.543856571584E+02    0.17798E-02   -0.43597E-03  1152   0.385E-01    0.178E-01
DAV:  11    -0.543837543592E+02    0.19028E-02   -0.31474E-03  1088   0.267E-01    0.186E-01
DAV:  12    -0.543807073433E+02    0.30470E-02   -0.36077E-03   992   0.206E-01    0.894E-02
DAV:  13    -0.543745231184E+02    0.61842E-02   -0.43056E-03  1024   0.221E-01    0.803E-02
DAV:  14    -0.543717462788E+02    0.27768E-02   -0.56635E-04  1104   0.952E-02    0.105E-01
DAV:  15    -0.543688478072E+02    0.28985E-02   -0.20128E-04   976   0.680E-02    0.592E-02
DAV:  16    -0.543656109870E+02    0.32368E-02   -0.15834E-04   896   0.685E-02    0.776E-02
DAV:  17    -0.543629212286E+02    0.26898E-02   -0.35134E-04   896   0.807E-02    0.402E-02
DAV:  18    -0.543618564899E+02    0.10647E-02   -0.45047E-04   960   0.729E-02    0.220E-02
DAV:  19    -0.543622537162E+02   -0.39723E-03   -0.20488E-04   896   0.638E-02    0.101E-02
DAV:  20    -0.543628078331E+02   -0.55412E-03   -0.64969E-05   864   0.455E-02    0.957E-03
DAV:  21    -0.543632391629E+02   -0.43133E-03   -0.48223E-05   784   0.307E-02    0.390E-03
DAV:  22    -0.543635393962E+02   -0.30023E-03   -0.21260E-05   800   0.164E-02    0.350E-03
DAV:  23    -0.543636384960E+02   -0.99100E-04   -0.82900E-06   736   0.902E-03
   2 F= -.54363638E+02 E0= -.54363638E+02  d E =-.658243E+01  mag=     5.8041
       N       E                     dE             d eps       ncg     rms          rms(c)
DAV:   1    -0.544278956493E+02   -0.64356E-01   -0.17094E+00  1232   0.714E+00    0.132E+00
DAV:   2    -0.543871930874E+02    0.40703E-01   -0.99388E-02  1280   0.206E+00    0.669E-01
DAV:   3    -0.543842075554E+02    0.29855E-02   -0.45014E-02  1472   0.202E+00    0.706E-01
DAV:   4    -0.543747779147E+02    0.94296E-02   -0.29661E-02  1408   0.185E+00    0.200E-01
DAV:   5    -0.543741670193E+02    0.61090E-03   -0.29882E-03  1264   0.530E-01    0.533E-02
DAV:   6    -0.543741644965E+02    0.25229E-05   -0.30032E-04   944   0.722E-02
   3 F= -.54374164E+02 E0= -.54374164E+02  d E =-.659296E+01  mag=     5.7955
       N       E                     dE             d eps       ncg     rms          rms(c)
DAV:   1    -0.544316990860E+02   -0.57532E-01   -0.10754E+01   976   0.107E+01    0.863E-01
DAV:   2    -0.545233092439E+02   -0.91610E-01   -0.87451E-01  1328   0.462E+00    0.790E-01
DAV:   3    -0.545080662810E+02    0.15243E-01   -0.49762E-02  1440   0.213E+00    0.508E-01
DAV:   4    -0.545041312486E+02    0.39350E-02   -0.98140E-03  1376   0.918E-01    0.242E-01
DAV:   5    -0.545032864628E+02    0.84479E-03   -0.77455E-03  1200   0.313E-01    0.805E-02
DAV:   6    -0.545032545166E+02    0.31946E-04   -0.12532E-03  1152   0.202E-01    0.492E-02
DAV:   7    -0.545031675653E+02    0.86951E-04   -0.14174E-04   752   0.491E-02
   4 F= -.54503168E+02 E0= -.54503168E+02  d E =-.129003E+00  mag=     5.7839
       N       E                     dE             d eps       ncg     rms          rms(c)
DAV:   1    -0.545030546627E+02    0.19985E-03   -0.46515E-03  1056   0.225E-01    0.217E-02
DAV:   2    -0.545030991249E+02   -0.44462E-04   -0.33733E-04  1088   0.792E-02
   5 F= -.54503099E+02 E0= -.54503099E+02  d E =-.128935E+00  mag=     5.7831
       N       E                     dE             d eps       ncg     rms          rms(c)
DAV:   1    -0.545406855145E+02   -0.37631E-01   -0.28055E+00   960   0.559E+00    0.560E-01
DAV:   2    -0.545587405478E+02   -0.18055E-01   -0.22527E-01  1280   0.209E+00    0.309E-01
DAV:   3    -0.545568530034E+02    0.18875E-02   -0.54618E-03  1392   0.429E-01    0.215E-01
DAV:   4    -0.545568848413E+02   -0.31838E-04   -0.61490E-03  1344   0.719E-01    0.202E-01
DAV:   5    -0.545561344714E+02    0.75037E-03   -0.22190E-03  1392   0.443E-01    0.374E-02
DAV:   6    -0.545561446269E+02   -0.10156E-04   -0.19474E-04   832   0.810E-02
   6 F= -.54556145E+02 E0= -.54556145E+02  d E =-.530455E-01  mag=     5.7917
       N       E                     dE             d eps       ncg     rms          rms(c)
DAV:   1    -0.545208752896E+02    0.35259E-01   -0.14721E+01   960   0.129E+01    0.126E+00
DAV:   2    -0.546163981271E+02   -0.95523E-01   -0.12094E+00  1424   0.482E+00    0.701E-01
DAV:   3    -0.546064515501E+02    0.99466E-02   -0.31701E-02  1408   0.114E+00    0.522E-01
DAV:   4    -0.546041878600E+02    0.22637E-02   -0.29010E-02  1488   0.158E+00    0.391E-01
DAV:   5    -0.546008833981E+02    0.33045E-02   -0.95694E-03  1360   0.809E-01    0.820E-02
DAV:   6    -0.546009210144E+02   -0.37616E-04   -0.10205E-03  1056   0.161E-01    0.552E-02
DAV:   7    -0.546010666760E+02   -0.14566E-03   -0.25442E-04   800   0.943E-02    0.253E-02
DAV:   8    -0.546012059895E+02   -0.13931E-03   -0.14967E-04   800   0.630E-02    0.136E-02
DAV:   9    -0.546014112312E+02   -0.20524E-03   -0.91490E-05   784   0.515E-02    0.103E-02
DAV:  10    -0.546016735336E+02   -0.26230E-03   -0.16731E-04   880   0.441E-02    0.775E-03
DAV:  11    -0.546018883857E+02   -0.21485E-03   -0.11667E-04   864   0.347E-02    0.618E-03
DAV:  12    -0.546020242439E+02   -0.13586E-03   -0.12380E-04   912   0.312E-02    0.530E-03
DAV:  13    -0.546020198661E+02    0.43778E-05   -0.10276E-04   912   0.266E-02
   7 F= -.54602020E+02 E0= -.54602020E+02  d E =-.989207E-01  mag=     5.8307
       N       E                     dE             d eps       ncg     rms          rms(c)
DAV:   1    -0.546379316067E+02   -0.35907E-01   -0.42483E+00  1216   0.917E+00    0.122E+00
DAV:   2    -0.546305335503E+02    0.73981E-02   -0.33153E-01  1088   0.246E+00    0.617E-01
DAV:   3    -0.546238042696E+02    0.67293E-02   -0.33900E-02  1424   0.102E+00    0.437E-01
DAV:   4    -0.546221876966E+02    0.16166E-02   -0.17413E-02  1472   0.131E+00    0.290E-01
DAV:   5    -0.546202910433E+02    0.18967E-02   -0.51366E-03  1296   0.718E-01    0.770E-02
DAV:   6    -0.546203378410E+02   -0.46798E-04   -0.51168E-04  1072   0.122E-01
   8 F= -.54620338E+02 E0= -.54620338E+02  d E =-.183180E-01  mag=     5.8339
       N       E                     dE             d eps       ncg     rms          rms(c)
DAV:   1    -0.546193798059E+02    0.91124E-03   -0.19341E-01  1152   0.200E+00    0.248E-01
DAV:   2    -0.546191469785E+02    0.23283E-03   -0.14584E-02  1056   0.532E-01    0.133E-01
DAV:   3    -0.546189267080E+02    0.22027E-03   -0.18933E-03  1376   0.285E-01    0.111E-01
DAV:   4    -0.546187839234E+02    0.14278E-03   -0.10134E-03  1168   0.324E-01    0.533E-02
DAV:   5    -0.546187186255E+02    0.65298E-04   -0.18690E-04   944   0.133E-01
   9 F= -.54618719E+02 E0= -.54618719E+02  d E =-.166988E-01  mag=     5.8316
       N       E                     dE             d eps       ncg     rms          rms(c)
DAV:   1    -0.546510566028E+02   -0.32273E-01   -0.16875E+00  1168   0.467E+00    0.853E-01
DAV:   2    -0.546498552566E+02    0.12013E-02   -0.15411E-01  1360   0.234E+00    0.600E-01
DAV:   3    -0.546455971705E+02    0.42581E-02   -0.33780E-02  1472   0.184E+00    0.518E-01
DAV:   4    -0.546410996868E+02    0.44975E-02   -0.89610E-03  1360   0.779E-01    0.166E-01
DAV:   5    -0.546413832409E+02   -0.28355E-03   -0.19677E-03  1328   0.237E-01    0.105E-01
DAV:   6    -0.546414306523E+02   -0.47411E-04   -0.37014E-04   960   0.174E-01
  10 F= -.54641431E+02 E0= -.54641431E+02  d E =-.227120E-01  mag=     5.9852
       N       E                     dE             d eps       ncg     rms          rms(c)
DAV:   1    -0.547193937444E+02   -0.78011E-01   -0.14882E+01  1152   0.140E+01    0.255E+00
DAV:   2    -0.546929947288E+02    0.26399E-01   -0.12833E+00  1472   0.615E+00    0.153E+00
DAV:   3    -0.546653429059E+02    0.27652E-01   -0.16554E-01  1488   0.397E+00    0.110E+00
DAV:   4    -0.546355525378E+02    0.29790E-01   -0.67366E-02  1536   0.226E+00    0.386E-01
DAV:   5    -0.546304274439E+02    0.51251E-02   -0.12140E-02  1424   0.457E-01    0.226E-01
DAV:   6    -0.546283399244E+02    0.20875E-02   -0.16257E-03  1312   0.237E-01    0.176E-01
DAV:   7    -0.546239136083E+02    0.44263E-02   -0.12111E-03  1136   0.134E-01    0.121E-01
DAV:   8    -0.546233192739E+02    0.59433E-03   -0.56861E-04  1072   0.105E-01    0.787E-02
DAV:   9    -0.546281166399E+02   -0.47974E-02   -0.61311E-04  1024   0.110E-01    0.441E-02
DAV:  10    -0.546283276632E+02   -0.21102E-03   -0.11591E-03   976   0.121E-01    0.253E-02
DAV:  11    -0.546276932308E+02    0.63443E-03   -0.60011E-04   944   0.725E-02    0.177E-02
DAV:  12    -0.546273474635E+02    0.34577E-03   -0.12327E-04   880   0.531E-02    0.177E-02
DAV:  13    -0.546271617530E+02    0.18571E-03   -0.38729E-04   928   0.684E-02    0.168E-02
DAV:  14    -0.546271605686E+02    0.11845E-05   -0.22282E-04   880   0.539E-02
  11 F= -.54627161E+02 E0= -.54627161E+02  d E =-.844194E-02  mag=     6.4958
       N       E                     dE             d eps       ncg     rms          rms(c)
DAV:   1    -0.546753021401E+02   -0.48140E-01   -0.59128E+00  1184   0.864E+00    0.143E+00
DAV:   2    -0.546657683689E+02    0.95338E-02   -0.47728E-01  1344   0.353E+00    0.874E-01
DAV:   3    -0.546547673606E+02    0.11001E-01   -0.57724E-02  1360   0.241E+00    0.674E-01
DAV:   4    -0.546425932168E+02    0.12174E-01   -0.25347E-02  1520   0.144E+00    0.217E-01
DAV:   5    -0.546402704613E+02    0.23228E-02   -0.45462E-03  1376   0.337E-01    0.929E-02
DAV:   6    -0.546410642764E+02   -0.79382E-03   -0.66430E-04  1056   0.139E-01    0.655E-02
DAV:   7    -0.546418437447E+02   -0.77947E-03   -0.64258E-04  1056   0.116E-01    0.421E-02
DAV:   8    -0.546428405479E+02   -0.99680E-03   -0.43989E-04  1008   0.853E-02    0.295E-02
DAV:   9    -0.546437673063E+02   -0.92676E-03   -0.46232E-04  1008   0.736E-02    0.201E-02
DAV:  10    -0.546443565536E+02   -0.58925E-03   -0.55728E-04  1024   0.640E-02    0.131E-02
DAV:  11    -0.546445030106E+02   -0.14646E-03   -0.25514E-04   960   0.379E-02    0.829E-03
DAV:  12    -0.546444403024E+02    0.62708E-04   -0.14118E-04   880   0.274E-02
  12 F= -.54644440E+02 E0= -.54644440E+02  d E =-.257217E-01  mag=     6.3553
       N       E                     dE             d eps       ncg     rms          rms(c)
DAV:   1    -0.546521251949E+02   -0.76222E-02   -0.13905E+00  1120   0.449E+00    0.707E-01
DAV:   2    -0.546532185192E+02   -0.10933E-02   -0.12640E-01  1312   0.170E+00    0.388E-01
DAV:   3    -0.546509403913E+02    0.22781E-02   -0.11077E-02  1456   0.934E-01    0.296E-01
DAV:   4    -0.546485566113E+02    0.23838E-02   -0.74762E-03  1296   0.753E-01    0.115E-01
DAV:   5    -0.546483506008E+02    0.20601E-03   -0.10235E-03  1344   0.235E-01    0.438E-02
DAV:   6    -0.546482226341E+02    0.12797E-03   -0.10824E-04   768   0.434E-02    0.317E-02
DAV:   7    -0.546481589051E+02    0.63729E-04   -0.94843E-05   736   0.482E-02
  13 F= -.54648159E+02 E0= -.54648159E+02  d E =-.371860E-02  mag=     6.4068
       N       E                     dE             d eps       ncg     rms          rms(c)
DAV:   1    -0.546495422523E+02   -0.13196E-02   -0.11866E-01  1152   0.131E+00    0.207E-01
DAV:   2    -0.546497149643E+02   -0.17271E-03   -0.11204E-02  1232   0.487E-01    0.112E-01
DAV:   3    -0.546494269125E+02    0.28805E-03   -0.84283E-04  1360   0.253E-01    0.846E-02
DAV:   4    -0.546493849793E+02    0.41933E-04   -0.64413E-04  1184   0.223E-01
  14 F= -.54649385E+02 E0= -.54649385E+02  d E =-.494468E-02  mag=     6.4066
       N       E                     dE             d eps       ncg     rms          rms(c)
DAV:   1    -0.546505975508E+02   -0.11706E-02   -0.28797E-01  1056   0.190E+00    0.250E-01
DAV:   2    -0.546506090388E+02   -0.11488E-04   -0.20413E-02  1040   0.672E-01    0.166E-01
DAV:   3    -0.546497508749E+02    0.85816E-03   -0.23737E-03  1392   0.439E-01    0.132E-01
DAV:   4    -0.546488444780E+02    0.90640E-03   -0.11119E-03  1360   0.286E-01    0.415E-02
DAV:   5    -0.546486233518E+02    0.22113E-03   -0.22165E-04  1088   0.757E-02    0.185E-02
DAV:   6    -0.546486802448E+02   -0.56893E-04   -0.35563E-05   960   0.335E-02
  15 F= -.54648680E+02 E0= -.54648680E+02  d E =0.704734E-03  mag=     6.4037
       N       E                     dE             d eps       ncg     rms          rms(c)
DAV:   1    -0.546499395501E+02   -0.13162E-02   -0.12155E-01  1072   0.124E+00    0.162E-01
DAV:   2    -0.546503025235E+02   -0.36297E-03   -0.87991E-03  1088   0.453E-01    0.110E-01
DAV:   3    -0.546503430097E+02   -0.40486E-04   -0.10220E-03  1392   0.294E-01    0.856E-02
DAV:   4    -0.546502073108E+02    0.13570E-03   -0.44413E-04  1152   0.181E-01    0.261E-02
DAV:   5    -0.546502379864E+02   -0.30676E-04   -0.98674E-05   880   0.446E-02
  16 F= -.54650238E+02 E0= -.54650238E+02  d E =-.853007E-03  mag=     6.4038
