 vasp.5.4.4.18Apr17-6-g9f103f2a35 (build May  1 2020 15:48:39) complex           
 executed on             LinuxGNU date 2020.06.22  07:51:19
 running on   16 total cores
 distrk:  each k-point on   16 cores,    1 groups
 distr:  one band on NCORES_PER_BAND=   1 cores,   16 groups


--------------------------------------------------------------------------------------------------------


 INCAR:
 POTCAR:   PAW_PBE Cr 06Sep2000                   
 POTCAR:    PAW_PBE P 17Jan2003                   
 POTCAR:    PAW_PBE S 17Jan2003                   

 ----------------------------------------------------------------------------- 
|                                                                             |
|           W    W    AA    RRRRR   N    N  II  N    N   GGGG   !!!           |
|           W    W   A  A   R    R  NN   N  II  NN   N  G    G  !!!           |
|           W    W  A    A  R    R  N N  N  II  N N  N  G       !!!           |
|           W WW W  AAAAAA  RRRRR   N  N N  II  N  N N  G  GGG   !            |
|           WW  WW  A    A  R   R   N   NN  II  N   NN  G    G                |
|           W    W  A    A  R    R  N    N  II  N    N   GGGG   !!!           |
|                                                                             |
|      For optimal performance we recommend to set                            |
|        NCORE= 4 - approx SQRT( number of cores)                             |
|      NCORE specifies how many cores store one orbital (NPAR=cpu/NCORE).     |
|      This setting can  greatly improve the performance of VASP for DFT.     |
|      The default,   NCORE=1            might be grossly inefficient         |
|      on modern multi-core architectures or massively parallel machines.     |
|      Do your own testing !!!!                                               |
|      Unfortunately you need to use the default for GW and RPA calculations. |
|      (for HF NCORE is supported but not extensively tested yet)             |
|                                                                             |
 ----------------------------------------------------------------------------- 


 ----------------------------------------------------------------------------- 
|                                                                             |
|  ADVICE TO THIS USER RUNNING 'VASP/VAMP'   (HEAR YOUR MASTER'S VOICE ...):  |
|                                                                             |
|      You have switched on vdW-DFT.                                          |
|      This routine was written and supplied by Jiri Klimes.                  |
|      We recommed that you carefully read and cite the following             |
|      publication                                                            |
|      J. Klimes, D.R. Bowler, A. Michelides                                  |
|        J. Phys.: Cond Matt. 22 022201 (2010)                                |
|      J. Klimes, D.R. Bowler, A. Michelides                                  |
|        Phys. Rev. B. 83, 195131 (2011)                                      |
|      and references therein.                                                |
|                                                                             |
 ----------------------------------------------------------------------------- 

 POTCAR:   PAW_PBE Cr 06Sep2000                   
   VRHFIN =Cr : d5 s1                                                           
   LEXCH  = PE                                                                  
   EATOM  =   276.9744 eV,   20.3570 Ry                                         
                                                                                
   TITEL  = PAW_PBE Cr 06Sep2000                                                
   LULTRA =        F    use ultrasoft PP ?                                      
   IUNSCR =        1    unscreen: 0-lin 1-nonlin 2-no                           
   RPACOR =    2.080    partial core radius                                     
   POMASS =   51.996; ZVAL   =    6.000    mass and valenz                      
   RCORE  =    2.500    outmost cutoff radius                                   
   RWIGS  =    2.500; RWIGS  =    1.323    wigner-seitz radius (au A)           
   ENMAX  =  227.082; ENMIN  =  170.311 eV                                      
   RCLOC  =    1.721    cutoff for local pot                                    
   LCOR   =        T    correct aug charges                                     
   LPAW   =        T    paw PP                                                  
   EAUG   =  402.108                                                            
   DEXC   =    -.035                                                            
   RMAX   =    3.060    core radius for proj-oper                               
   RAUG   =    1.300    factor for augmentation sphere                          
   RDEP   =    2.609    radius for radial grids                                 
   QCUT   =   -4.085; QGAM   =    8.171    optimization parameters              
                                                                                
   Description                                                                  
     l     E      TYP  RCUT    TYP  RCUT                                        
     2   .000     23  2.500                                                     
     2   .000     23  2.500                                                     
     0   .000     23  2.500                                                     
     0   .000     23  2.500                                                     
     1  -.400     23  2.500                                                     
     1  2.000     23  2.500                                                     
     3   .000      7   .000                                                     
  local pseudopotential read in
  partial core-charges read in
  atomic valenz-charges read in
  non local Contribution for L=           2  read in
    real space projection operators read in
  non local Contribution for L=           2  read in
    real space projection operators read in
  non local Contribution for L=           0  read in
    real space projection operators read in
  non local Contribution for L=           0  read in
    real space projection operators read in
  non local Contribution for L=           1  read in
    real space projection operators read in
  non local Contribution for L=           1  read in
    real space projection operators read in
    PAW grid and wavefunctions read in

   number of l-projection  operators is LMAX  =           6
   number of lm-projection operators is LMMAX =          18

 POTCAR:    PAW_PBE P 17Jan2003                   
   VRHFIN =P : s2p3                                                             
   LEXCH  = PE                                                                  
   EATOM  =   176.0430 eV,   12.9388 Ry                                         
                                                                                
   TITEL  = PAW_PBE P 17Jan2003                                                 
   LULTRA =        F    use ultrasoft PP ?                                      
   IUNSCR =        1    unscreen: 0-lin 1-nonlin 2-no                           
   RPACOR =    1.500    partial core radius                                     
   POMASS =   30.974; ZVAL   =    5.000    mass and valenz                      
   RCORE  =    1.900    outmost cutoff radius                                   
   RWIGS  =    2.330; RWIGS  =    1.233    wigner-seitz radius (au A)           
   ENMAX  =  270.000; ENMIN  =  191.280 eV                                      
   ICORE  =        2    local potential                                         
   LCOR   =        T    correct aug charges                                     
   LPAW   =        T    paw PP                                                  
   EAUG   =  342.924                                                            
   DEXC   =    -.002                                                            
   RMAX   =    2.887    core radius for proj-oper                               
   RAUG   =    1.300    factor for augmentation sphere                          
   RDEP   =    1.931    radius for radial grids                                 
   QCUT   =   -4.330; QGAM   =    8.659    optimization parameters              
                                                                                
   Description                                                                  
     l     E      TYP  RCUT    TYP  RCUT                                        
     0   .000     23  1.900                                                     
     0   .000     23  1.900                                                     
     1   .000     23  1.900                                                     
     1   .000     23  1.900                                                     
     2   .000     23  1.900                                                     
  local pseudopotential read in
  partial core-charges read in
  atomic valenz-charges read in
  non local Contribution for L=           0  read in
    real space projection operators read in
  non local Contribution for L=           0  read in
    real space projection operators read in
  non local Contribution for L=           1  read in
    real space projection operators read in
  non local Contribution for L=           1  read in
    real space projection operators read in
    PAW grid and wavefunctions read in

   number of l-projection  operators is LMAX  =           4
   number of lm-projection operators is LMMAX =           8

 POTCAR:    PAW_PBE S 17Jan2003                   
   VRHFIN =S : s2p4                                                             
   LEXCH  = PE                                                                  
   EATOM  =   276.8230 eV,   20.3459 Ry                                         
                                                                                
   TITEL  = PAW_PBE S 17Jan2003                                                 
   LULTRA =        F    use ultrasoft PP ?                                      
   IUNSCR =        1    unscreen: 0-lin 1-nonlin 2-no                           
   RPACOR =    1.500    partial core radius                                     
   POMASS =   32.066; ZVAL   =    6.000    mass and valenz                      
   RCORE  =    1.900    outmost cutoff radius                                   
   RWIGS  =    2.200; RWIGS  =    1.164    wigner-seitz radius (au A)           
   ENMAX  =  280.000; ENMIN  =  194.016 eV                                      
   ICORE  =        2    local potential                                         
   LCOR   =        T    correct aug charges                                     
   LPAW   =        T    paw PP                                                  
   EAUG   =  335.092                                                            
   DEXC   =     .000                                                            
   RMAX   =    2.867    core radius for proj-oper                               
   RAUG   =    1.300    factor for augmentation sphere                          
   RDEP   =    1.954    radius for radial grids                                 
   QCUT   =   -4.360; QGAM   =    8.721    optimization parameters              
                                                                                
   Description                                                                  
     l     E      TYP  RCUT    TYP  RCUT                                        
     0   .000     23  1.900                                                     
     0   .000     23  1.900                                                     
     1   .000     23  1.900                                                     
     1   .000     23  1.900                                                     
     2   .000     23  1.900                                                     
  local pseudopotential read in
  partial core-charges read in
  atomic valenz-charges read in
  non local Contribution for L=           0  read in
    real space projection operators read in
  non local Contribution for L=           0  read in
    real space projection operators read in
  non local Contribution for L=           1  read in
    real space projection operators read in
  non local Contribution for L=           1  read in
    real space projection operators read in
    PAW grid and wavefunctions read in

   number of l-projection  operators is LMAX  =           4
   number of lm-projection operators is LMMAX =           8

 Optimization of the real space projectors (new method)

 maximal supplied QI-value         = 15.12
 optimisation between [QCUT,QGAM] = [ 11.64, 23.28] = [ 37.95,151.78] Ry 
 Optimized for a Real-space Cutoff    1.49 Angstroem

   l    n(q)    QCUT    max X(q) W(low)/X(q) W(high)/X(q)  e(spline) 
   2      9    11.641     4.777    0.25E-04    0.21E-05    0.63E-07
   2      9    11.641    31.132    0.13E-03    0.22E-03    0.64E-06
   0     10    11.641    20.416    0.11E-04    0.74E-05    0.19E-07
   0     10    11.641    45.408    0.10E-03    0.85E-04    0.30E-06
   1     10    11.641     7.848    0.22E-04    0.23E-04    0.56E-07
   1     10    11.641     9.895    0.85E-04    0.54E-04    0.16E-06
 Optimization of the real space projectors (new method)

 maximal supplied QI-value         = 19.84
 optimisation between [QCUT,QGAM] = [ 11.51, 23.22] = [ 37.09,150.92] Ry 
 Optimized for a Real-space Cutoff    1.21 Angstroem

   l    n(q)    QCUT    max X(q) W(low)/X(q) W(high)/X(q)  e(spline) 
   0      8    11.508     6.651    0.19E-04    0.31E-05    0.49E-08
   0      8    11.508    90.285    0.95E-04    0.17E-03    0.51E-07
   1      8    11.508     4.328    0.14E-04    0.32E-04    0.22E-07
   1      8    11.508    54.583    0.16E-03    0.71E-04    0.89E-07
 Optimization of the real space projectors (new method)

 maximal supplied QI-value         = 19.84
 optimisation between [QCUT,QGAM] = [ 11.51, 23.22] = [ 37.09,150.92] Ry 
 Optimized for a Real-space Cutoff    1.21 Angstroem

   l    n(q)    QCUT    max X(q) W(low)/X(q) W(high)/X(q)  e(spline) 
   0      8    11.508     5.487    0.18E-04    0.22E-05    0.47E-08
   0      8    11.508    85.627    0.96E-04    0.18E-03    0.54E-07
   1      8    11.508     3.530    0.17E-04    0.28E-04    0.21E-07
   1      8    11.508    42.714    0.18E-03    0.63E-04    0.92E-07

 ----------------------------------------------------------------------------- 
|                                                                             |
|  ADVICE TO THIS USER RUNNING 'VASP/VAMP'   (HEAR YOUR MASTER'S VOICE ...):  |
|                                                                             |
|      You enforced a specific xc-type in the INCAR file,                     |
|      a different type was found on the POTCAR file                          |
|          I HOPE YOU KNOW, WHAT YOU ARE  DOING                               |
|                                                                             |
 ----------------------------------------------------------------------------- 

 PAW_PBE Cr 06Sep2000                   :
 energy of atom  1       EATOM= -276.9744
 kinetic energy error for atom=    0.0010 (will be added to EATOM!!)
  PAW_PBE P 17Jan2003                   :
 energy of atom  2       EATOM= -176.0430
 kinetic energy error for atom=    0.0011 (will be added to EATOM!!)
  PAW_PBE S 17Jan2003                   :
 energy of atom  3       EATOM= -276.8230
 kinetic energy error for atom=    0.0016 (will be added to EATOM!!)


 POSCAR: Cr2 P2 S6                               
  positions in direct lattice
  velocities in cartesian coordinates
  No initial velocities read in
 exchange correlation table for  LEXCH =       42
   RHO(1)=    0.500       N(1)  =     2000
   RHO(2)=  100.500       N(2)  =     4000



--------------------------------------------------------------------------------------------------------


 ion  position               nearest neighbor table
   1  0.333  0.333  0.500-   6 2.78   5 2.78   7 2.78   8 2.78  10 2.78   9 2.78
   2  0.667  0.667  0.500-   9 2.78   8 2.78  10 2.78   5 2.78   7 2.78   6 2.78
   3  0.000  0.000  0.448-   4 2.43   8 2.63  10 2.63   9 2.63
   4  0.000  0.000  0.552-   3 2.43   5 2.63   7 2.63   6 2.63
   5  0.626  0.000  0.574-   4 2.63   1 2.78   2 2.78
   6  0.000  0.373  0.574-   4 2.63   1 2.78   2 2.78
   7  0.373  0.626  0.574-   4 2.63   1 2.78   2 2.78
   8  0.374  1.000  0.426-   3 2.63   2 2.78   1 2.78
   9  1.000  0.627  0.426-   3 2.63   2 2.78   1 2.78
  10  0.627  0.374  0.426-   3 2.63   2 2.78   1 2.78

  LATTYP: Found a hexagonal cell.
 ALAT       =     6.9077769333
 C/A-ratio  =     3.3939410937
  
  Lattice vectors:
  
 A1 = (   3.4538890000,  -5.9823100000,   0.0000000000)
 A2 = (  -6.9077770000,   0.0000000000,   0.0000000000)
 A3 = (   0.0000000000,   0.0000000000, -23.4445880000)


Analysis of symmetry for initial positions (statically):
=====================================================================
 Subroutine PRICEL returns:
 Original cell was already a primitive cell.
 

 Routine SETGRP: Setting up the symmetry group for a 
 hexagonal supercell.


 Subroutine GETGRP returns: Found  6 space group operations
 (whereof  6 operations were pure point group operations)
 out of a pool of 24 trial point group operations.


The static configuration has the point symmetry S_6 .


Analysis of symmetry for dynamics (positions and initial velocities):
=====================================================================
 Subroutine PRICEL returns:
 Original cell was already a primitive cell.
 

 Routine SETGRP: Setting up the symmetry group for a 
 hexagonal supercell.


 Subroutine GETGRP returns: Found  6 space group operations
 (whereof  6 operations were pure point group operations)
 out of a pool of 24 trial point group operations.


The dynamic configuration has the point symmetry S_6 .


Analysis of constrained symmetry for selective dynamics:
=====================================================================
 Subroutine PRICEL returns:
 Original cell was already a primitive cell.
 

 Routine SETGRP: Setting up the symmetry group for a 
 hexagonal supercell.


 Subroutine GETGRP returns: Found  6 space group operations
 (whereof  6 operations were pure point group operations)
 out of a pool of 24 trial point group operations.


The constrained configuration has the point symmetry S_6 .


Analysis of structural, dynamic, and magnetic symmetry:
=====================================================================
 Subroutine PRICEL returns:
 Original cell was already a primitive cell.
 

 Routine SETGRP: Setting up the symmetry group for a 
 hexagonal supercell.


 Subroutine GETGRP returns: Found  6 space group operations
 (whereof  6 operations were pure point group operations)
 out of a pool of 24 trial point group operations.


The magnetic configuration has the point symmetry S_6 .


 Subroutine INISYM returns: Found  6 space group operations
 (whereof  6 operations are pure point group operations),
 and found     1 'primitive' translations



 KPOINTS: Kpoints from vasprun.xml                

Automatic generation of k-mesh.
Space group operators:
 irot       det(A)        alpha          n_x          n_y          n_z        tau_x        tau_y        tau_z
    1     1.000000     0.000000     1.000000     0.000000     0.000000     0.000000     0.000000     0.000000
    2    -1.000000     0.000000     1.000000     0.000000     0.000000     0.000000     0.000000     0.000000
    3     1.000000   120.000000     0.000000     0.000000     1.000000     0.000000     0.000000     0.000000
    4    -1.000000   120.000000     0.000000     0.000000     1.000000     0.000000     0.000000     0.000000
    5     1.000000   120.000000     0.000000     0.000000    -1.000000     0.000000     0.000000     0.000000
    6    -1.000000   120.000000     0.000000     0.000000    -1.000000     0.000000     0.000000     0.000000
 
 Subroutine IBZKPT returns following result:
 ===========================================
 
 Found      5 irreducible k-points:
 
 Following reciprocal coordinates:
            Coordinates               Weight
  0.000000  0.000000  0.000000      1.000000
  0.200000  0.000000  0.000000      6.000000
  0.400000  0.000000  0.000000      6.000000
  0.400000  0.200000  0.000000      6.000000
 -0.400000  0.200000  0.000000      6.000000
 
 Following cartesian coordinates:
            Coordinates               Weight
  0.000000  0.000000  0.000000      1.000000
  0.028953 -0.016716  0.000000      6.000000
  0.057906 -0.033432  0.000000      6.000000
  0.057906  0.000000  0.000000      6.000000
 -0.057906  0.066864  0.000000      6.000000
 
 TETIRR: Found     15 inequivalent tetrahedra from      150


--------------------------------------------------------------------------------------------------------




 Dimension of arrays:
   k-points           NKPTS =      5   k-points in BZ     NKDIM =      5   number of bands    NBANDS=     48
   number of dos      NEDOS =    301   number of ions     NIONS =     10
   non local maximal  LDIM  =      6   non local SUM 2l+1 LMDIM =     18
   total plane-waves  NPLWV = 524880
   max r-space proj   IRMAX =   7543   max aug-charges    IRDMAX=  27873
   dimension x,y,z NGX =    54 NGY =   54 NGZ =  180
   dimension x,y,z NGXF=   108 NGYF=  108 NGZF=  360
   support grid    NGXF=   108 NGYF=  108 NGZF=  360
   ions per type =               2   2   6
   NGX,Y,Z   is equivalent  to a cutoff of  13.00, 13.00, 12.76 a.u.
   NGXF,Y,Z  is equivalent  to a cutoff of  25.99, 25.99, 25.53 a.u.

 SYSTEM =  unknown system                          
 POSCAR =  Cr2 P2 S6                               

 Startparameter for this run:
   NWRITE =      2    write-flag & timer
   PREC   = accura    normal or accurate (medium, high low for compatibility)
   ISTART =      0    job   : 0-new  1-cont  2-samecut
   ICHARG =      2    charge: 1-file 2-atom 10-const
   ISPIN  =      2    spin polarized calculation?
   LNONCOLLINEAR =      F non collinear calculations
   LSORBIT =      F    spin-orbit coupling
   INIWAV =      1    electr: 0-lowe 1-rand  2-diag
   LASPH  =      F    aspherical Exc in radial PAW
   METAGGA=      F    non-selfconsistent MetaGGA calc.

 Electronic Relaxation 1
   ENCUT  =  520.0 eV  38.22 Ry    6.18 a.u.  12.84 12.84 43.59*2*pi/ulx,y,z
   ENINI  =  520.0     initial cutoff
   ENAUG  =  402.1 eV  augmentation charge cutoff
   NELM   =    400;   NELMIN=  2; NELMDL=  0     # of ELM steps 
   EDIFF  = 0.1E-03   stopping-criterion for ELM
   LREAL  =      T    real-space projection
   NLSPLINE    = F    spline interpolate recip. space projectors
   LCOMPAT=      F    compatible to vasp.4.4
   GGA_COMPAT  = T    GGA compatible to vasp.4.4-vasp.4.6
   LMAXPAW     = -100 max onsite density
   LMAXMIX     =    2 max onsite mixed and CHGCAR
   VOSKOWN=      0    Vosko Wilk Nusair interpolation
   ROPT   =   -0.00025  -0.00025  -0.00025
 Ionic relaxation
   EDIFFG = 0.1E-02   stopping-criterion for IOM
   NSW    =     99    number of steps for IOM
   NBLOCK =      1;   KBLOCK =     99    inner block; outer block 
   IBRION =      2    ionic relax: 0-MD 1-quasi-New 2-CG
   NFREE  =      1    steps in history (QN), initial steepest desc. (CG)
   ISIF   =      3    stress and relaxation
   IWAVPR =     11    prediction:  0-non 1-charg 2-wave 3-comb
   ISYM   =      2    0-nonsym 1-usesym 2-fastsym
   LCORR  =      T    Harris-Foulkes like correction to forces

   POTIM  = 0.5000    time-step for ionic-motion
   TEIN   =    0.0    initial temperature
   TEBEG  =    0.0;   TEEND  =   0.0 temperature during run
   SMASS  =  -3.00    Nose mass-parameter (am)
   estimated Nose-frequenzy (Omega)   =  0.10E-29 period in steps =****** mass=  -0.109E-26a.u.
   SCALEE = 1.0000    scale energy and forces
   NPACO  =    256;   APACO  = 16.0  distance and # of slots for P.C.
   PSTRESS=    0.0 pullay stress

  Mass of Ions in am
   POMASS =  52.00 30.97 32.07
  Ionic Valenz
   ZVAL   =   6.00  5.00  6.00
  Atomic Wigner-Seitz radii
   RWIGS  =  -1.00 -1.00 -1.00
  virtual crystal weights 
   VCA    =   1.00  1.00  1.00
   NELECT =      58.0000    total number of electrons
   NUPDOWN=      -1.0000    fix difference up-down

 DOS related values:
   EMIN   =  10.00;   EMAX   =-10.00  energy-range for DOS
   EFERMI =   0.00
   ISMEAR =    -5;   SIGMA  =   0.05  broadening in eV -4-tet -1-fermi 0-gaus

 Electronic relaxation 2 (details)
   IALGO  =     38    algorithm
   LDIAG  =      T    sub-space diagonalisation (order eigenvalues)
   LSUBROT=      F    optimize rotation matrix (better conditioning)
   TURBO    =      0    0=normal 1=particle mesh
   IRESTART =      0    0=no restart 2=restart with 2 vectors
   NREBOOT  =      0    no. of reboots
   NMIN     =      0    reboot dimension
   EREF     =   0.00    reference energy to select bands
   IMIX   =      4    mixing-type and parameters
     AMIX     =   0.40;   BMIX     =  1.00
     AMIX_MAG =   1.60;   BMIX_MAG =  1.00
     AMIN     =   0.01
     WC   =   100.;   INIMIX=   1;  MIXPRE=   1;  MAXMIX= -45

 Intra band minimization:
   WEIMIN = 0.0010     energy-eigenvalue tresh-hold
   EBREAK =  0.52E-06  absolut break condition
   DEPER  =   0.30     relativ break condition  

   TIME   =   0.40     timestep for ELM

  volume/ion in A,a.u.               =      96.88       653.80
  Fermi-wavevector in a.u.,A,eV,Ry     =   0.640424  1.210226  5.580332  0.410143
  Thomas-Fermi vector in A             =   1.706427

 Write flags
   LWAVE        =      F    write WAVECAR
   LDOWNSAMPLE  =      F    k-point downsampling of WAVECAR
   LCHARG       =      T    write CHGCAR
   LVTOT        =      F    write LOCPOT, total local potential
   LVHAR        =      F    write LOCPOT, Hartree potential only
   LELF         =      F    write electronic localiz. function (ELF)
   LORBIT       =     11    0 simple, 1 ext, 2 COOP (PROOUT), +10 PAW based schemes


 Dipole corrections
   LMONO  =      F    monopole corrections only (constant potential shift)
   LDIPOL =      F    correct potential (dipole corrections)
   IDIPOL =      0    1-x, 2-y, 3-z, 4-all directions 
   EPSILON=  1.0000000 bulk dielectric constant

 Exchange correlation treatment:
   GGA     =    BO    GGA type
   LEXCH   =    42    internal setting for exchange type
   VOSKOWN=      0    Vosko Wilk Nusair interpolation
   LHFCALC =     F    Hartree Fock is set to
   LHFONE  =     F    Hartree Fock one center treatment
   AEXX    =    0.0000 exact exchange contribution

 vdW DFT:
   LUSE_VDW   =     T    switch on vdW DFT
   Zab_VDW    =-.8491    correlation parameter
   PARAM1     =0.1833
   PARAM2     =0.2200
   PARAM3     =0.0000
   -- rVV10 --
   BPARAM     = 6.3000
   CPARAM     = 0.0093

 Linear response parameters
   LEPSILON=     F    determine dielectric tensor
   LRPA    =     F    only Hartree local field effects (RPA)
   LNABLA  =     F    use nabla operator in PAW spheres
   LVEL    =     F    velocity operator in full k-point grid
   LINTERFAST=   F  fast interpolation
   KINTER  =     0    interpolate to denser k-point grid
   CSHIFT  =0.1000    complex shift for real part using Kramers Kronig
   OMEGAMAX=  -1.0    maximum frequency
   DEG_THRESHOLD= 0.2000000E-02 threshold for treating states as degnerate
   RTIME   =   -0.100 relaxation time in fs
  (WPLASMAI=    0.000 imaginary part of plasma frequency in eV, 0.658/RTIME)
   DFIELD  = 0.0000000 0.0000000 0.0000000 field for delta impulse in time

 Orbital magnetization related:
   ORBITALMAG=     F  switch on orbital magnetization
   LCHIMAG   =     F  perturbation theory with respect to B field
   DQ        =  0.001000  dq finite difference perturbation B field
   LLRAUG    =     F  two centre corrections for induced B field



--------------------------------------------------------------------------------------------------------


 conjugate gradient relaxation of ions
   using selective dynamics as specified on POSCAR
 charge density and potential will be updated during run
 spin polarized calculation
 Variant of blocked Davidson
 Davidson routine will perform the subspace rotation
 perform sub-space diagonalisation
    after iterative eigenvector-optimisation
 modified Broyden-mixing scheme, WC =      100.0
 initial mixing is a Kerker type mixing with AMIX =  0.4000 and BMIX =      1.0000
 Hartree-type preconditioning will be used
 using additional bands           19
 real space projection scheme for non local part
 use partial core corrections
 calculate Harris-corrections to forces   (improved forces if not selfconsistent)
 use gradient corrections 
 use of overlap-Matrix (Vanderbilt PP)
 Fermi weights with tetrahedron method with Bloechl corrections


--------------------------------------------------------------------------------------------------------


  energy-cutoff  :      520.00
  volume of cell :      968.84
      direct lattice vectors                 reciprocal lattice vectors
     6.907777000 -0.000000000  0.000000000     0.144764372 -0.083579742  0.000000000
     3.453888000  5.982310000  0.000000000     0.000000000  0.167159509 -0.000000000
     0.000000000  0.000000000 23.444588000    -0.000000000  0.000000000  0.042653767

  length of vectors
     6.907777000  6.907776433 23.444588000     0.167159495  0.167159509  0.042653767



 k-points in units of 2pi/SCALE and weight: Kpoints from vasprun.xml                
   0.00000000  0.00000000  0.00000000       0.040
   0.02895287 -0.01671595  0.00000000       0.240
   0.05790575 -0.03343190  0.00000000       0.240
   0.05790575  0.00000000  0.00000000       0.240
  -0.05790575  0.06686380  0.00000000       0.240

 k-points in reciprocal lattice and weights: Kpoints from vasprun.xml                
   0.00000000  0.00000000  0.00000000       0.040
   0.20000000  0.00000000  0.00000000       0.240
   0.40000000  0.00000000  0.00000000       0.240
   0.40000000  0.20000000  0.00000000       0.240
  -0.40000000  0.20000000  0.00000000       0.240

 position of ions in fractional coordinates (direct lattice) 
   0.33333300  0.33333300  0.49992500
   0.66666700  0.66666700  0.50007500
   0.00000000  0.00000000  0.44821600
   0.00000000  0.00000000  0.55178400
   0.62635700  0.00042000  0.57375200
   0.00042000  0.37322400  0.57375200
   0.37322400  0.62635700  0.57375200
   0.37364300  0.99958000  0.42624800
   0.99958000  0.62677600  0.42624800
   0.62677600  0.37364300  0.42624800

 position of ions in cartesian coordinates  (Angst):
   3.45388488  1.99410134 11.72053566
   6.90778012  3.98820866 11.72405234
   0.00000000  0.00000000 10.50823946
   0.00000000  0.00000000 12.93634854
   4.32818511  0.00251257 13.45137925
   1.29197516  2.23274167 13.45137925
   4.74151509  3.74706174 13.45137925
   6.03347989  5.97979743  9.99320875
   9.06968984  3.74956833  9.99320875
   5.62014991  2.23524826  9.99320875



--------------------------------------------------------------------------------------------------------


 k-point  1 :   0.0000 0.0000 0.0000  plane waves:   26073
 k-point  2 :   0.2000 0.0000 0.0000  plane waves:   26070
 k-point  3 :   0.4000 0.0000 0.0000  plane waves:   26086
 k-point  4 :   0.4000 0.2000 0.0000  plane waves:   26085
 k-point  5 :  -0.4000 0.2000 0.0000  plane waves:   26115

 maximum and minimum number of plane-waves per node :     26115    26070

 maximum number of plane-waves:     26115
 maximum index in each direction: 
   IXMAX=   13   IYMAX=   12   IZMAX=   43
   IXMIN=  -13   IYMIN=  -13   IZMIN=  -43


 serial   3D FFT for wavefunctions
 parallel 3D FFT for charge:
    minimum data exchange during FFTs selected (reduces bandwidth)


 total amount of memory used by VASP MPI-rank0   126065. kBytes
=======================================================================

   base      :      30000. kBytes
   nonlr-proj:       5770. kBytes
   fftplans  :      11247. kBytes
   grid      :      66142. kBytes
   one-center:        311. kBytes
   wavefun   :      12595. kBytes

     INWAV:  cpu time    0.0000: real time    0.0004
 Broyden mixing: mesh for mixing (old mesh)
   NGX = 25   NGY = 25   NGZ = 87
  (NGX  =108   NGY  =108   NGZ  =360)
  gives a total of  54375 points

 initial charge density was supplied:
 charge density of overlapping atoms calculated
 number of electron      58.0000000 magnetization      14.8000000
 keeping initial charge density in first step


--------------------------------------------------------------------------------------------------------


 Maximum index for non-local projection operator         7247
 Maximum index for augmentation-charges         1662 (set IRDMAX)


--------------------------------------------------------------------------------------------------------


 First call to EWALD:  gamma=   0.179
 Maximum number of real-space cells 4x 4x 1
 Maximum number of reciprocal cells 2x 2x 6

    FEWALD:  cpu time    0.0000: real time    0.0015


--------------------------------------- Iteration      1(   1)  ---------------------------------------


vdW kernel read from vdw_kernel.bindat
  0.0000  0.2424  0.5071  0.7962  1.1119  1.4567  1.8333  2.2446  2.6937  3.1842
  3.7199  4.3049  4.9438  5.6415  6.4036  7.2358  8.1446  9.1372 10.2212 11.4050
 12.6979 14.1099 15.6519 17.3360 19.1751 21.1837 23.3773 25.7729 28.3892 31.2465
 34.3669 37.7748 41.4965 45.5611 50.0000

    POTLOK:  cpu time   53.0200: real time   53.1883
    SETDIJ:  cpu time    0.0400: real time    0.0408
     EDDAV:  cpu time   22.0320: real time   22.4524
 BZINTS: Fermi energy:  5.596173; 58.000000 electrons
         Band energy: -16.229081;  BLOECHL correction: -0.038672
       DOS:  cpu time    0.0040: real time    0.0046
    --------------------------------------------
      LOOP:  cpu time   75.0960: real time   75.6861

 eigenvalue-minimisations  :   960
 total energy-change (2. order) : 0.4242007E+03  (-0.1712312E+04)
 number of electron      58.0000000 magnetization      14.8000000
 augmentation part       58.0000000 magnetization      14.8000000

 Free energy of the ion-electron system (eV)
  ---------------------------------------------------
  alpha Z        PSCENC =        19.68084336
  Ewald energy   TEWEN  =      6462.22987265
  -Hartree energ DENC   =     -8734.63455163
  -exchange      EXHF   =         0.00000000
  -V(xc)+E(xc)   XCENC  =        36.22474051
  PAW double counting   =      1138.83269552    -1058.37746592
  entropy T*S    EENTRO =         0.00000000
  eigenvalues    EBANDS =       -16.22908126
  atomic energy  EATOM  =      2576.47363623
  Solvation  Ediel_sol  =         0.00000000
  ---------------------------------------------------
  free energy    TOTEN  =       424.20068947 eV

  energy without entropy =      424.20068947  energy(sigma->0) =      424.20068947


--------------------------------------------------------------------------------------------------------




--------------------------------------- Iteration      1(   2)  ---------------------------------------


     EDDAV:  cpu time   26.3640: real time   26.4977
 BZINTS: Fermi energy: -1.179562; 58.000000 electrons
         Band energy:-399.375467;  BLOECHL correction: -0.087964
       DOS:  cpu time    0.0080: real time    0.0047
    --------------------------------------------
      LOOP:  cpu time   26.3720: real time   26.5024

 eigenvalue-minimisations  :  1152
 total energy-change (2. order) :-0.3831464E+03  (-0.3531566E+03)
 number of electron      58.0000000 magnetization      14.8000000
 augmentation part       58.0000000 magnetization      14.8000000

 Free energy of the ion-electron system (eV)
  ---------------------------------------------------
  alpha Z        PSCENC =        19.68084336
  Ewald energy   TEWEN  =      6462.22987265
  -Hartree energ DENC   =     -8734.63455163
  -exchange      EXHF   =         0.00000000
  -V(xc)+E(xc)   XCENC  =        36.22474051
  PAW double counting   =      1138.83269552    -1058.37746592
  entropy T*S    EENTRO =         0.00000000
  eigenvalues    EBANDS =      -399.37546692
  atomic energy  EATOM  =      2576.47363623
  Solvation  Ediel_sol  =         0.00000000
  ---------------------------------------------------
  free energy    TOTEN  =        41.05430381 eV

  energy without entropy =       41.05430381  energy(sigma->0) =       41.05430381


--------------------------------------------------------------------------------------------------------




--------------------------------------- Iteration      1(   3)  ---------------------------------------


     EDDAV:  cpu time   30.6360: real time   32.1674
 BZINTS: Fermi energy: -2.702975; 58.000000 electrons
         Band energy:-490.330337;  BLOECHL correction: -0.001877
       DOS:  cpu time    0.0040: real time    0.0066
    --------------------------------------------
      LOOP:  cpu time   30.6400: real time   32.1740

 eigenvalue-minimisations  :  1424
 total energy-change (2. order) :-0.9095487E+02  (-0.8614447E+02)
 number of electron      58.0000000 magnetization      14.8000000
 augmentation part       58.0000000 magnetization      14.8000000

 Free energy of the ion-electron system (eV)
  ---------------------------------------------------
  alpha Z        PSCENC =        19.68084336
  Ewald energy   TEWEN  =      6462.22987265
  -Hartree energ DENC   =     -8734.63455163
  -exchange      EXHF   =         0.00000000
  -V(xc)+E(xc)   XCENC  =        36.22474051
  PAW double counting   =      1138.83269552    -1058.37746592
  entropy T*S    EENTRO =         0.00000000
  eigenvalues    EBANDS =      -490.33033720
  atomic energy  EATOM  =      2576.47363623
  Solvation  Ediel_sol  =         0.00000000
  ---------------------------------------------------
  free energy    TOTEN  =       -49.90056648 eV

  energy without entropy =      -49.90056648  energy(sigma->0) =      -49.90056648


--------------------------------------------------------------------------------------------------------




--------------------------------------- Iteration      1(   4)  ---------------------------------------


     EDDAV:  cpu time   29.9120: real time   30.0303
 BZINTS: Fermi energy: -2.783051; 58.000000 electrons
         Band energy:-495.261596;  BLOECHL correction: -0.008252
       DOS:  cpu time    0.0040: real time    0.0055
    --------------------------------------------
      LOOP:  cpu time   29.9160: real time   30.0358

 eigenvalue-minimisations  :  1328
 total energy-change (2. order) :-0.4931258E+01  (-0.4724426E+01)
 number of electron      58.0000000 magnetization      14.8000000
 augmentation part       58.0000000 magnetization      14.8000000

 Free energy of the ion-electron system (eV)
  ---------------------------------------------------
  alpha Z        PSCENC =        19.68084336
  Ewald energy   TEWEN  =      6462.22987265
  -Hartree energ DENC   =     -8734.63455163
  -exchange      EXHF   =         0.00000000
  -V(xc)+E(xc)   XCENC  =        36.22474051
  PAW double counting   =      1138.83269552    -1058.37746592
  entropy T*S    EENTRO =         0.00000000
  eigenvalues    EBANDS =      -495.26159553
  atomic energy  EATOM  =      2576.47363623
  Solvation  Ediel_sol  =         0.00000000
  ---------------------------------------------------
  free energy    TOTEN  =       -54.83182481 eV

  energy without entropy =      -54.83182481  energy(sigma->0) =      -54.83182481


--------------------------------------------------------------------------------------------------------




--------------------------------------- Iteration      1(   5)  ---------------------------------------


     EDDAV:  cpu time   31.2320: real time   31.8103
 BZINTS: Fermi energy: -2.785787; 58.000000 electrons
         Band energy:-495.388525;  BLOECHL correction: -0.008563
       DOS:  cpu time    0.0080: real time    0.0084
    CHARGE:  cpu time    1.9880: real time    1.9941
    MIXING:  cpu time    0.0440: real time    0.0420
    --------------------------------------------
      LOOP:  cpu time   33.2720: real time   33.8547

 eigenvalue-minimisations  :  1408
 total energy-change (2. order) :-0.1269291E+00  (-0.1264048E+00)
 number of electron      57.9999993 magnetization      13.6420376
 augmentation part       -4.5424898 magnetization      11.4586094

 Broyden mixing:
  rms(total) = 0.29974E+01    rms(broyden)= 0.29974E+01
  rms(prec ) = 0.32593E+01
  weight for this iteration     100.00

 Free energy of the ion-electron system (eV)
  ---------------------------------------------------
  alpha Z        PSCENC =        19.68084336
  Ewald energy   TEWEN  =      6462.22987265
  -Hartree energ DENC   =     -8734.63455163
  -exchange      EXHF   =         0.00000000
  -V(xc)+E(xc)   XCENC  =        36.22474051
  PAW double counting   =      1138.83269552    -1058.37746592
  entropy T*S    EENTRO =         0.00000000
  eigenvalues    EBANDS =      -495.38852464
  atomic energy  EATOM  =      2576.47363623
  Solvation  Ediel_sol  =         0.00000000
  ---------------------------------------------------
  free energy    TOTEN  =       -54.95875391 eV

  energy without entropy =      -54.95875391  energy(sigma->0) =      -54.95875391


--------------------------------------------------------------------------------------------------------




--------------------------------------- Iteration      1(   6)  ---------------------------------------


    POTLOK:  cpu time   52.0160: real time   52.4215
    SETDIJ:  cpu time    0.0400: real time    0.0406
     EDDAV:  cpu time   30.2600: real time   30.6097
 BZINTS: Fermi energy: -5.051509; 58.000000 electrons
         Band energy:-613.118882;  BLOECHL correction: -0.016621
       DOS:  cpu time    0.0040: real time    0.0068
    CHARGE:  cpu time    1.9320: real time    1.9357
    MIXING:  cpu time    0.0440: real time    0.0423
    --------------------------------------------
      LOOP:  cpu time   84.2960: real time   85.0567

 eigenvalue-minimisations  :  1360
 total energy-change (2. order) :-0.7231324E+02  (-0.1381967E+02)
 number of electron      57.9999991 magnetization      13.3332189
 augmentation part        9.3137200 magnetization       9.4100110

 Broyden mixing:
  rms(total) = 0.63475E+01    rms(broyden)= 0.63475E+01
  rms(prec ) = 0.71483E+01
  weight for this iteration     100.00

 eigenvalues of (default mixing * dielectric matrix)
  average eigenvalue GAMMA=   0.3520
  0.3520

 Free energy of the ion-electron system (eV)
  ---------------------------------------------------
  alpha Z        PSCENC =        19.68084336
  Ewald energy   TEWEN  =      6462.22987265
  -Hartree energ DENC   =     -8698.42400597
  -exchange      EXHF   =         0.00000000
  -V(xc)+E(xc)   XCENC  =        35.43589905
  PAW double counting   =      1071.59305707     -981.14241216
  entropy T*S    EENTRO =         0.00000000
  eigenvalues    EBANDS =      -613.11888239
  atomic energy  EATOM  =      2576.47363623
  Solvation  Ediel_sol  =         0.00000000
  ---------------------------------------------------
  free energy    TOTEN  =      -127.27199216 eV

  energy without entropy =     -127.27199216  energy(sigma->0) =     -127.27199216


--------------------------------------------------------------------------------------------------------




--------------------------------------- Iteration      1(   7)  ---------------------------------------


    POTLOK:  cpu time   51.5640: real time   51.8980
    SETDIJ:  cpu time    0.0400: real time    0.0412
     EDDAV:  cpu time   26.5280: real time   26.6369
 BZINTS: Fermi energy: -3.791397; 58.000000 electrons
         Band energy:-486.654457;  BLOECHL correction: -0.009188
       DOS:  cpu time    0.0040: real time    0.0062
    CHARGE:  cpu time    1.9360: real time    1.9388
    MIXING:  cpu time    0.0440: real time    0.0437
    --------------------------------------------
      LOOP:  cpu time   80.1160: real time   80.5648

 eigenvalue-minimisations  :  1168
 total energy-change (2. order) : 0.8401642E+02  (-0.1523364E+02)
 number of electron      57.9999993 magnetization      12.8227292
 augmentation part       -2.2386844 magnetization      10.9739566

 Broyden mixing:
  rms(total) = 0.17450E+01    rms(broyden)= 0.17449E+01
  rms(prec ) = 0.18026E+01
  weight for this iteration     100.00

 eigenvalues of (default mixing * dielectric matrix)
  average eigenvalue GAMMA=   0.4057
  0.5667  0.2446

 Free energy of the ion-electron system (eV)
  ---------------------------------------------------
  alpha Z        PSCENC =        19.68084336
  Ewald energy   TEWEN  =      6462.22987265
  -Hartree energ DENC   =     -8729.65102021
  -exchange      EXHF   =         0.00000000
  -V(xc)+E(xc)   XCENC  =        34.21436028
  PAW double counting   =      1138.88864976    -1058.43745208
  entropy T*S    EENTRO =         0.00000000
  eigenvalues    EBANDS =      -486.65445737
  atomic energy  EATOM  =      2576.47363623
  Solvation  Ediel_sol  =         0.00000000
  ---------------------------------------------------
  free energy    TOTEN  =       -43.25556737 eV

  energy without entropy =      -43.25556737  energy(sigma->0) =      -43.25556737


--------------------------------------------------------------------------------------------------------




--------------------------------------- Iteration      1(   8)  ---------------------------------------


    POTLOK:  cpu time   51.5520: real time   52.1105
    SETDIJ:  cpu time    0.0400: real time    0.0435
     EDDAV:  cpu time   27.5000: real time   28.3507
 BZINTS: Fermi energy: -3.959711; 58.000000 electrons
         Band energy:-494.284211;  BLOECHL correction: -0.009315
       DOS:  cpu time    0.0040: real time    0.0069
    CHARGE:  cpu time    1.9480: real time    1.9546
    MIXING:  cpu time    0.0440: real time    0.0410
    --------------------------------------------
      LOOP:  cpu time   81.0880: real time   82.5072

 eigenvalue-minimisations  :  1248
 total energy-change (2. order) :-0.1101916E+01  (-0.2254811E+01)
 number of electron      57.9999993 magnetization      12.2664925
 augmentation part       -0.8534565 magnetization       9.9355260

 Broyden mixing:
  rms(total) = 0.10561E+01    rms(broyden)= 0.10561E+01
  rms(prec ) = 0.10629E+01
  weight for this iteration     100.00

 eigenvalues of (default mixing * dielectric matrix)
  average eigenvalue GAMMA=   0.5660
  0.7230  0.7230  0.2519

 Free energy of the ion-electron system (eV)
  ---------------------------------------------------
  alpha Z        PSCENC =        19.68084336
  Ewald energy   TEWEN  =      6462.22987265
  -Hartree energ DENC   =     -8723.46923417
  -exchange      EXHF   =         0.00000000
  -V(xc)+E(xc)   XCENC  =        33.76283013
  PAW double counting   =      1126.18317165    -1044.93439209
  entropy T*S    EENTRO =         0.00000000
  eigenvalues    EBANDS =      -494.28421090
  atomic energy  EATOM  =      2576.47363623
  Solvation  Ediel_sol  =         0.00000000
  ---------------------------------------------------
  free energy    TOTEN  =       -44.35748314 eV

  energy without entropy =      -44.35748314  energy(sigma->0) =      -44.35748314


--------------------------------------------------------------------------------------------------------




--------------------------------------- Iteration      1(   9)  ---------------------------------------


    POTLOK:  cpu time   50.5000: real time   51.8914
    SETDIJ:  cpu time    0.0400: real time    0.0408
     EDDAV:  cpu time   31.1400: real time   32.2357
 BZINTS: Fermi energy: -3.956794; 58.000000 electrons
         Band energy:-493.925169;  BLOECHL correction: -0.013452
       DOS:  cpu time    0.0040: real time    0.0071
    CHARGE:  cpu time    1.9360: real time    1.9432
    MIXING:  cpu time    0.0400: real time    0.0417
    --------------------------------------------
      LOOP:  cpu time   83.6600: real time   86.1600

 eigenvalue-minimisations  :  1440
 total energy-change (2. order) :-0.2051724E+01  (-0.2219402E+00)
 number of electron      57.9999992 magnetization      11.2904712
 augmentation part       -1.2359643 magnetization       9.4375083

 Broyden mixing:
  rms(total) = 0.51853E+00    rms(broyden)= 0.51852E+00
  rms(prec ) = 0.53570E+00
  weight for this iteration     100.00

 eigenvalues of (default mixing * dielectric matrix)
  average eigenvalue GAMMA=   0.6946
  0.9507  0.9507  0.2488  0.6283

 Free energy of the ion-electron system (eV)
  ---------------------------------------------------
  alpha Z        PSCENC =        19.68084336
  Ewald energy   TEWEN  =      6462.22987265
  -Hartree energ DENC   =     -8727.50886354
  -exchange      EXHF   =         0.00000000
  -V(xc)+E(xc)   XCENC  =        35.36551661
  PAW double counting   =      1135.03427260    -1053.75931595
  entropy T*S    EENTRO =         0.00000000
  eigenvalues    EBANDS =      -493.92516899
  atomic energy  EATOM  =      2576.47363623
  Solvation  Ediel_sol  =         0.00000000
  ---------------------------------------------------
  free energy    TOTEN  =       -46.40920703 eV

  energy without entropy =      -46.40920703  energy(sigma->0) =      -46.40920703


--------------------------------------------------------------------------------------------------------




--------------------------------------- Iteration      1(  10)  ---------------------------------------


    POTLOK:  cpu time   50.9280: real time   51.1595
    SETDIJ:  cpu time    0.0400: real time    0.0406
     EDDAV:  cpu time   31.7440: real time   32.0488
 BZINTS: Fermi energy: -4.058984; 58.000000 electrons
         Band energy:-495.446909;  BLOECHL correction: -0.016310
       DOS:  cpu time    0.0080: real time    0.0071
    CHARGE:  cpu time    1.9360: real time    1.9470
    MIXING:  cpu time    0.0440: real time    0.0423
    --------------------------------------------
      LOOP:  cpu time   84.7000: real time   85.2453

 eigenvalue-minimisations  :  1456
 total energy-change (2. order) :-0.5515812E+00  (-0.6161958E-01)
 number of electron      57.9999992 magnetization      10.0856952
 augmentation part       -0.9793363 magnetization       8.6697365

 Broyden mixing:
  rms(total) = 0.33358E+00    rms(broyden)= 0.33358E+00
  rms(prec ) = 0.33834E+00
  weight for this iteration     100.00

 eigenvalues of (default mixing * dielectric matrix)
  average eigenvalue GAMMA=   0.9722
  2.1881  0.2492  0.8667  0.8667  0.6901

 Free energy of the ion-electron system (eV)
  ---------------------------------------------------
  alpha Z        PSCENC =        19.68084336
  Ewald energy   TEWEN  =      6462.22987265
  -Hartree energ DENC   =     -8727.80735439
  -exchange      EXHF   =         0.00000000
  -V(xc)+E(xc)   XCENC  =        36.98534501
  PAW double counting   =      1133.09681106    -1052.17303323
  entropy T*S    EENTRO =         0.00000000
  eigenvalues    EBANDS =      -495.44690890
  atomic energy  EATOM  =      2576.47363623
  Solvation  Ediel_sol  =         0.00000000
  ---------------------------------------------------
  free energy    TOTEN  =       -46.96078821 eV

  energy without entropy =      -46.96078821  energy(sigma->0) =      -46.96078821


--------------------------------------------------------------------------------------------------------




--------------------------------------- Iteration      1(  11)  ---------------------------------------


    POTLOK:  cpu time   50.5560: real time   51.1425
    SETDIJ:  cpu time    0.0400: real time    0.0404
     EDDAV:  cpu time   30.5880: real time   30.7866
 BZINTS: Fermi energy: -4.144822; 58.000000 electrons
         Band energy:-497.099342;  BLOECHL correction: -0.013300
       DOS:  cpu time    0.0040: real time    0.0071
    CHARGE:  cpu time    1.9280: real time    1.9345
    MIXING:  cpu time    0.0440: real time    0.0435
    --------------------------------------------
      LOOP:  cpu time   83.1600: real time   83.9547

 eigenvalue-minimisations  :  1392
 total energy-change (2. order) :-0.2054653E+00  (-0.2395626E-01)
 number of electron      57.9999992 magnetization       9.1155834
 augmentation part       -0.8207479 magnetization       7.9587917

 Broyden mixing:
  rms(total) = 0.35268E+00    rms(broyden)= 0.35268E+00
  rms(prec ) = 0.35402E+00
  weight for this iteration     100.00

 eigenvalues of (default mixing * dielectric matrix)
  average eigenvalue GAMMA=   1.0134
  2.5076  0.9171  0.9171  0.2492  0.7900  0.6997

 Free energy of the ion-electron system (eV)
  ---------------------------------------------------
  alpha Z        PSCENC =        19.68084336
  Ewald energy   TEWEN  =      6462.22987265
  -Hartree energ DENC   =     -8727.15499302
  -exchange      EXHF   =         0.00000000
  -V(xc)+E(xc)   XCENC  =        37.88086851
  PAW double counting   =      1130.36458209    -1049.54172115
  entropy T*S    EENTRO =         0.00000000
  eigenvalues    EBANDS =      -497.09934220
  atomic energy  EATOM  =      2576.47363623
  Solvation  Ediel_sol  =         0.00000000
  ---------------------------------------------------
  free energy    TOTEN  =       -47.16625354 eV

  energy without entropy =      -47.16625354  energy(sigma->0) =      -47.16625354


--------------------------------------------------------------------------------------------------------




--------------------------------------- Iteration      1(  12)  ---------------------------------------


    POTLOK:  cpu time   50.8080: real time   51.0332
    SETDIJ:  cpu time    0.0360: real time    0.0393
     EDDAV:  cpu time   31.3080: real time   31.4738
 BZINTS: Fermi energy: -4.164552; 58.000000 electrons
         Band energy:-497.037591;  BLOECHL correction: -0.013221
       DOS:  cpu time    0.0080: real time    0.0078
    CHARGE:  cpu time    1.9280: real time    1.9378
    MIXING:  cpu time    0.0480: real time    0.0455
    --------------------------------------------
      LOOP:  cpu time   84.1360: real time   84.5374

 eigenvalue-minimisations  :  1424
 total energy-change (2. order) :-0.2556248E+00  (-0.4682563E-02)
 number of electron      57.9999992 magnetization       7.2659461
 augmentation part       -0.8539098 magnetization       6.0486983

 Broyden mixing:
  rms(total) = 0.28606E+00    rms(broyden)= 0.28606E+00
  rms(prec ) = 0.28722E+00
  weight for this iteration     100.00

 eigenvalues of (default mixing * dielectric matrix)
  average eigenvalue GAMMA=   1.2559
  3.7712  0.2492  1.1429  1.1429  0.9218  0.9218  0.6417

 Free energy of the ion-electron system (eV)
  ---------------------------------------------------
  alpha Z        PSCENC =        19.68084336
  Ewald energy   TEWEN  =      6462.22987265
  -Hartree energ DENC   =     -8726.73740210
  -exchange      EXHF   =         0.00000000
  -V(xc)+E(xc)   XCENC  =        37.41051704
  PAW double counting   =      1128.71479448    -1048.15654850
  entropy T*S    EENTRO =         0.00000000
  eigenvalues    EBANDS =      -497.03759147
  atomic energy  EATOM  =      2576.47363623
  Solvation  Ediel_sol  =         0.00000000
  ---------------------------------------------------
  free energy    TOTEN  =       -47.42187832 eV

  energy without entropy =      -47.42187832  energy(sigma->0) =      -47.42187832


--------------------------------------------------------------------------------------------------------




--------------------------------------- Iteration      1(  13)  ---------------------------------------


    POTLOK:  cpu time   50.8280: real time   51.0118
    SETDIJ:  cpu time    0.0400: real time    0.0417
     EDDAV:  cpu time   31.5400: real time   31.8386
 BZINTS: Fermi energy: -4.194317; 58.000000 electrons
         Band energy:-497.324573;  BLOECHL correction: -0.013012
       DOS:  cpu time    0.0040: real time    0.0064
    CHARGE:  cpu time    1.9320: real time    1.9463
    MIXING:  cpu time    0.0480: real time    0.0463
    --------------------------------------------
      LOOP:  cpu time   84.3920: real time   84.8911

 eigenvalue-minimisations  :  1440
 total energy-change (2. order) :-0.2718037E+00  (-0.1020181E-01)
 number of electron      57.9999992 magnetization       6.2785863
 augmentation part       -0.8929362 magnetization       4.9459591

 Broyden mixing:
  rms(total) = 0.84977E-01    rms(broyden)= 0.84977E-01
  rms(prec ) = 0.87110E-01
  weight for this iteration     100.00

 eigenvalues of (default mixing * dielectric matrix)
  average eigenvalue GAMMA=   1.6181
  6.6104  1.8078  0.2492  0.9190  0.9190  0.9039  0.9039  0.6314

 Free energy of the ion-electron system (eV)
  ---------------------------------------------------
  alpha Z        PSCENC =        19.68084336
  Ewald energy   TEWEN  =      6462.22987265
  -Hartree energ DENC   =     -8725.45031894
  -exchange      EXHF   =         0.00000000
  -V(xc)+E(xc)   XCENC  =        36.11497757
  PAW double counting   =      1127.24478563    -1046.66290521
  entropy T*S    EENTRO =         0.00000000
  eigenvalues    EBANDS =      -497.32457329
  atomic energy  EATOM  =      2576.47363623
  Solvation  Ediel_sol  =         0.00000000
  ---------------------------------------------------
  free energy    TOTEN  =       -47.69368200 eV

  energy without entropy =      -47.69368200  energy(sigma->0) =      -47.69368200


--------------------------------------------------------------------------------------------------------




--------------------------------------- Iteration      1(  14)  ---------------------------------------


    POTLOK:  cpu time   51.1160: real time   51.2094
    SETDIJ:  cpu time    0.0400: real time    0.0395
     EDDAV:  cpu time   27.4760: real time   27.6491
 BZINTS: Fermi energy: -4.203121; 58.000000 electrons
         Band energy:-497.429906;  BLOECHL correction: -0.017455
       DOS:  cpu time    0.0040: real time    0.0067
    CHARGE:  cpu time    1.9440: real time    1.9447
    MIXING:  cpu time    0.0440: real time    0.0454
    --------------------------------------------
      LOOP:  cpu time   80.6240: real time   80.8949

 eigenvalue-minimisations  :  1232
 total energy-change (2. order) :-0.6956717E-01  (-0.4521169E-02)
 number of electron      57.9999992 magnetization       6.0731971
 augmentation part       -0.8435169 magnetization       4.6947167

 Broyden mixing:
  rms(total) = 0.79411E-01    rms(broyden)= 0.79411E-01
  rms(prec ) = 0.80228E-01
  weight for this iteration     100.00

 eigenvalues of (default mixing * dielectric matrix)
  average eigenvalue GAMMA=   1.7403
  8.0573  1.9483  0.2492  0.9033  0.9033  1.1124  1.1124  0.7422  0.6344

 Free energy of the ion-electron system (eV)
  ---------------------------------------------------
  alpha Z        PSCENC =        19.68084336
  Ewald energy   TEWEN  =      6462.22987265
  -Hartree energ DENC   =     -8724.93812927
  -exchange      EXHF   =         0.00000000
  -V(xc)+E(xc)   XCENC  =        35.63556970
  PAW double counting   =      1126.41789745    -1045.83303359
  entropy T*S    EENTRO =         0.00000000
  eigenvalues    EBANDS =      -497.42990570
  atomic energy  EATOM  =      2576.47363623
  Solvation  Ediel_sol  =         0.00000000
  ---------------------------------------------------
  free energy    TOTEN  =       -47.76324917 eV

  energy without entropy =      -47.76324917  energy(sigma->0) =      -47.76324917


--------------------------------------------------------------------------------------------------------




--------------------------------------- Iteration      1(  15)  ---------------------------------------


    POTLOK:  cpu time   50.9320: real time   51.1877
    SETDIJ:  cpu time    0.0400: real time    0.0390
     EDDAV:  cpu time   28.6280: real time   28.8264
 BZINTS: Fermi energy: -4.207456; 58.000000 electrons
         Band energy:-497.624442;  BLOECHL correction: -0.017078
       DOS:  cpu time    0.0040: real time    0.0070
    CHARGE:  cpu time    1.9560: real time    1.9609
    MIXING:  cpu time    0.0480: real time    0.0464
    --------------------------------------------
      LOOP:  cpu time   81.6080: real time   82.0675

 eigenvalue-minimisations  :  1296
 total energy-change (2. order) :-0.1535665E-01  (-0.1653931E-02)
 number of electron      57.9999992 magnetization       6.0219538
 augmentation part       -0.8320835 magnetization       4.6823214

 Broyden mixing:
  rms(total) = 0.26222E-01    rms(broyden)= 0.26222E-01
  rms(prec ) = 0.27351E-01
  weight for this iteration     100.00

 eigenvalues of (default mixing * dielectric matrix)
  average eigenvalue GAMMA=   1.8097
  8.9792  2.3380  0.2492  1.2545  1.2545  0.8969  0.8969  0.8693  0.7279  0.6301

 Free energy of the ion-electron system (eV)
  ---------------------------------------------------
  alpha Z        PSCENC =        19.68084336
  Ewald energy   TEWEN  =      6462.22987265
  -Hartree energ DENC   =     -8725.05338443
  -exchange      EXHF   =         0.00000000
  -V(xc)+E(xc)   XCENC  =        35.85538246
  PAW double counting   =      1127.13770517    -1046.47821966
  entropy T*S    EENTRO =         0.00000000
  eigenvalues    EBANDS =      -497.62444161
  atomic energy  EATOM  =      2576.47363623
  Solvation  Ediel_sol  =         0.00000000
  ---------------------------------------------------
  free energy    TOTEN  =       -47.77860582 eV

  energy without entropy =      -47.77860582  energy(sigma->0) =      -47.77860582


--------------------------------------------------------------------------------------------------------




--------------------------------------- Iteration      1(  16)  ---------------------------------------


    POTLOK:  cpu time   50.7560: real time   50.9454
    SETDIJ:  cpu time    0.0400: real time    0.0402
     EDDAV:  cpu time   26.3640: real time   26.6567
 BZINTS: Fermi energy: -4.213731; 58.000000 electrons
         Band energy:-497.774530;  BLOECHL correction: -0.017660
       DOS:  cpu time    0.0040: real time    0.0069
    CHARGE:  cpu time    1.9880: real time    1.9941
    MIXING:  cpu time    0.0480: real time    0.0475
    --------------------------------------------
      LOOP:  cpu time   79.2000: real time   79.6908

 eigenvalue-minimisations  :  1184
 total energy-change (2. order) :-0.2203145E-02  (-0.3343781E-03)
 number of electron      57.9999992 magnetization       6.0085646
 augmentation part       -0.8415359 magnetization       4.6740273

 Broyden mixing:
  rms(total) = 0.91716E-02    rms(broyden)= 0.91715E-02
  rms(prec ) = 0.96490E-02
  weight for this iteration     100.00

 eigenvalues of (default mixing * dielectric matrix)
  average eigenvalue GAMMA=   1.7598
  9.1975  2.5189  0.2492  1.2245  1.2245  0.8918  0.8918  0.9495  0.8674  0.7191
  0.6236

 Free energy of the ion-electron system (eV)
  ---------------------------------------------------
  alpha Z        PSCENC =        19.68084336
  Ewald energy   TEWEN  =      6462.22987265
  -Hartree energ DENC   =     -8725.00296918
  -exchange      EXHF   =         0.00000000
  -V(xc)+E(xc)   XCENC  =        35.95169688
  PAW double counting   =      1127.40480321    -1046.74416215
  entropy T*S    EENTRO =         0.00000000
  eigenvalues    EBANDS =      -497.77452996
  atomic energy  EATOM  =      2576.47363623
  Solvation  Ediel_sol  =         0.00000000
  ---------------------------------------------------
  free energy    TOTEN  =       -47.78080897 eV

  energy without entropy =      -47.78080897  energy(sigma->0) =      -47.78080897


--------------------------------------------------------------------------------------------------------




--------------------------------------- Iteration      1(  17)  ---------------------------------------


    POTLOK:  cpu time   50.8120: real time   51.0792
    SETDIJ:  cpu time    0.0400: real time    0.0401
     EDDAV:  cpu time   25.4360: real time   25.6684
 BZINTS: Fermi energy: -4.216521; 58.000000 electrons
         Band energy:-497.920283;  BLOECHL correction: -0.017603
       DOS:  cpu time    0.0040: real time    0.0067
    CHARGE:  cpu time    1.9640: real time    1.9703
    MIXING:  cpu time    0.0480: real time    0.0482
    --------------------------------------------
      LOOP:  cpu time   78.3040: real time   78.8128

 eigenvalue-minimisations  :  1136
 total energy-change (2. order) :-0.3663625E-03  (-0.1007184E-03)
 number of electron      57.9999992 magnetization       6.0062073
 augmentation part       -0.8513158 magnetization       4.6668559

 Broyden mixing:
  rms(total) = 0.65316E-02    rms(broyden)= 0.65315E-02
  rms(prec ) = 0.70275E-02
  weight for this iteration     100.00

 eigenvalues of (default mixing * dielectric matrix)
  average eigenvalue GAMMA=   1.6730
  9.2076  2.4941  0.2492  1.2592  1.2592  0.8917  0.8917  0.9667  0.9667  0.7244
  0.6299  0.5357

 Free energy of the ion-electron system (eV)
  ---------------------------------------------------
  alpha Z        PSCENC =        19.68084336
  Ewald energy   TEWEN  =      6462.22987265
  -Hartree energ DENC   =     -8724.83038483
  -exchange      EXHF   =         0.00000000
  -V(xc)+E(xc)   XCENC  =        35.91100035
  PAW double counting   =      1127.42625022    -1046.75211042
  entropy T*S    EENTRO =         0.00000000
  eigenvalues    EBANDS =      -497.92028289
  atomic energy  EATOM  =      2576.47363623
  Solvation  Ediel_sol  =         0.00000000
  ---------------------------------------------------
  free energy    TOTEN  =       -47.78117533 eV

  energy without entropy =      -47.78117533  energy(sigma->0) =      -47.78117533


--------------------------------------------------------------------------------------------------------




--------------------------------------- Iteration      1(  18)  ---------------------------------------


    POTLOK:  cpu time   50.9560: real time   51.2884
    SETDIJ:  cpu time    0.0400: real time    0.0398
     EDDAV:  cpu time   20.8760: real time   20.8983
 BZINTS: Fermi energy: -4.217558; 58.000000 electrons
         Band energy:-497.972466;  BLOECHL correction: -0.017396
       DOS:  cpu time    0.0040: real time    0.0045
    --------------------------------------------
      LOOP:  cpu time   71.8760: real time   72.2310

 eigenvalue-minimisations  :   864
 total energy-change (2. order) :-0.2985112E-04  (-0.1339728E-04)
 number of electron      57.9999992 magnetization       6.0062073
 augmentation part       -0.8513158 magnetization       4.6668559

 Free energy of the ion-electron system (eV)
  ---------------------------------------------------
  alpha Z        PSCENC =        19.68084336
  Ewald energy   TEWEN  =      6462.22987265
  -Hartree energ DENC   =     -8724.77337780
  -exchange      EXHF   =         0.00000000
  -V(xc)+E(xc)   XCENC  =        35.90406291
  PAW double counting   =      1127.45489981    -1046.77867622
  entropy T*S    EENTRO =         0.00000000
  eigenvalues    EBANDS =      -497.97246612
  atomic energy  EATOM  =      2576.47363623
  Solvation  Ediel_sol  =         0.00000000
  ---------------------------------------------------
  free energy    TOTEN  =       -47.78120518 eV

  energy without entropy =      -47.78120518  energy(sigma->0) =      -47.78120518


--------------------------------------------------------------------------------------------------------




 average (electrostatic) potential at core
  the test charge radii are     1.1394  0.9587  0.9698
  (the norm of the test charge is              1.0000)
       1 -52.7317       2 -52.7317       3 -94.1421       4 -94.1421       5 -95.1889
       6 -95.1889       7 -95.1888       8 -95.1889       9 -95.1889      10 -95.1888



 E-fermi :  -4.2176     XC(G=0):  -2.8028     alpha+bet : -2.1145


 spin component 1

 k-point     1 :       0.0000    0.0000    0.0000
  band No.  band energies     occupation 
      1     -16.6970      1.00000
      2     -15.9694      1.00000
      3     -15.3722      1.00000
      4     -15.3722      1.00000
      5     -15.3415      1.00000
      6     -15.3414      1.00000
      7     -14.3218      1.00000
      8     -12.3163      1.00000
      9      -8.0155      1.00000
     10      -8.0155      1.00000
     11      -7.8836      1.00000
     12      -7.4033      1.00000
     13      -7.4032      1.00000
     14      -7.3181      1.00000
     15      -6.3340      1.00000
     16      -6.3220      1.00000
     17      -6.1884      1.00000
     18      -6.1884      1.00000
     19      -5.9939      1.00000
     20      -5.9939      1.00000
     21      -5.5765      1.00000
     22      -5.5765      1.00000
     23      -5.2262      1.00000
     24      -5.1914      1.00000
     25      -5.1914      1.00000
     26      -5.1055      1.00000
     27      -5.0779      1.00000
     28      -5.0779      1.00000
     29      -5.0674      1.00000
     30      -4.7218      1.00000
     31      -4.7218      1.00000
     32      -4.2314      1.00000
     33      -3.9541      0.00000
     34      -3.4451      0.00000
     35      -3.4451      0.00000
     36      -3.2241      0.00000
     37      -3.2241      0.00000
     38      -2.5399      0.00000
     39      -2.5399      0.00000
     40      -1.3984      0.00000
     41      -1.3984      0.00000
     42      -1.1625      0.00000
     43       0.2546      0.00000
     44       0.7236      0.00000
     45       1.5505      0.00000
     46       1.9478      0.00000
     47       2.1402      0.00000
     48       2.1403      0.00000

 k-point     2 :       0.2000    0.0000    0.0000
  band No.  band energies     occupation 
      1     -16.6314      1.00000
      2     -15.9185      1.00000
      3     -15.4887      1.00000
      4     -15.4157      1.00000
      5     -15.3933      1.00000
      6     -15.3642      1.00000
      7     -14.2311      1.00000
      8     -12.3207      1.00000
      9      -7.9744      1.00000
     10      -7.9343      1.00000
     11      -7.7280      1.00000
     12      -7.6007      1.00000
     13      -7.2017      1.00000
     14      -6.8684      1.00000
     15      -6.4829      1.00000
     16      -6.3512      1.00000
     17      -6.2545      1.00000
     18      -6.1958      1.00000
     19      -5.8636      1.00000
     20      -5.8155      1.00000
     21      -5.8091      1.00000
     22      -5.7760      1.00000
     23      -5.6855      1.00000
     24      -5.2973      1.00000
     25      -5.1835      1.00000
     26      -5.1634      1.00000
     27      -5.1431      1.00000
     28      -5.0676      1.00000
     29      -4.9508      1.00000
     30      -4.7780      1.00000
     31      -4.7592      1.00000
     32      -4.2704      1.00000
     33      -3.6916      0.00000
     34      -3.4346      0.00000
     35      -3.4318      0.00000
     36      -3.3028      0.00000
     37      -3.2856      0.00000
     38      -2.5098      0.00000
     39      -2.5035      0.00000
     40      -1.4886      0.00000
     41      -1.4588      0.00000
     42      -1.1911      0.00000
     43       0.4281      0.00000
     44       0.7375      0.00000
     45       1.6770      0.00000
     46       1.9478      0.00000
     47       2.1757      0.00000
     48       2.2545      0.00000

 k-point     3 :       0.4000    0.0000    0.0000
  band No.  band energies     occupation 
      1     -16.4908      1.00000
      2     -15.8055      1.00000
      3     -15.7218      1.00000
      4     -15.4868      1.00000
      5     -15.4434      1.00000
      6     -15.4324      1.00000
      7     -14.1061      1.00000
      8     -12.3237      1.00000
      9      -7.8775      1.00000
     10      -7.8311      1.00000
     11      -7.4841      1.00000
     12      -7.3913      1.00000
     13      -6.8094      1.00000
     14      -6.7994      1.00000
     15      -6.5051      1.00000
     16      -6.3745      1.00000
     17      -6.3733      1.00000
     18      -6.3332      1.00000
     19      -6.1709      1.00000
     20      -6.1399      1.00000
     21      -5.9104      1.00000
     22      -5.6498      1.00000
     23      -5.5527      1.00000
     24      -5.4774      1.00000
     25      -5.3866      1.00000
     26      -5.1775      1.00000
     27      -5.1684      1.00000
     28      -4.9912      1.00000
     29      -4.9010      1.00000
     30      -4.8869      1.00000
     31      -4.8157      1.00000
     32      -4.2380      1.00000
     33      -3.6858      0.00000
     34      -3.5694      0.00000
     35      -3.5232      0.00000
     36      -3.3823      0.00000
     37      -3.2579      0.00000
     38      -2.5826      0.00000
     39      -2.3148      0.00000
     40      -1.6547      0.00000
     41      -1.5526      0.00000
     42      -1.2482      0.00000
     43       0.7126      0.00000
     44       0.8463      0.00000
     45       1.9018      0.00000
     46       2.0236      0.00000
     47       2.2410      0.00000
     48       2.3783      0.00000

 k-point     4 :       0.4000    0.2000    0.0000
  band No.  band energies     occupation 
      1     -16.5245      1.00000
      2     -15.8344      1.00000
      3     -15.6292      1.00000
      4     -15.5221      1.00000
      5     -15.4497      1.00000
      6     -15.3932      1.00000
      7     -14.1252      1.00000
      8     -12.3224      1.00000
      9      -7.9219      1.00000
     10      -7.7636      1.00000
     11      -7.5582      1.00000
     12      -7.5551      1.00000
     13      -6.8967      1.00000
     14      -6.6518      1.00000
     15      -6.5384      1.00000
     16      -6.4029      1.00000
     17      -6.3199      1.00000
     18      -6.2454      1.00000
     19      -6.1911      1.00000
     20      -6.1100      1.00000
     21      -5.9956      1.00000
     22      -5.6257      1.00000
     23      -5.5522      1.00000
     24      -5.3503      1.00000
     25      -5.3291      1.00000
     26      -5.1746      1.00000
     27      -5.1132      1.00000
     28      -5.0816      1.00000
     29      -4.8986      1.00000
     30      -4.8433      1.00000
     31      -4.8294      1.00000
     32      -4.2965      1.00000
     33      -3.7426      0.00000
     34      -3.5105      0.00000
     35      -3.4167      0.00000
     36      -3.3177      0.00000
     37      -3.3092      0.00000
     38      -2.5180      0.00000
     39      -2.4715      0.00000
     40      -1.6168      0.00000
     41      -1.5731      0.00000
     42      -1.2334      0.00000
     43       0.7181      0.00000
     44       0.7787      0.00000
     45       1.8782      0.00000
     46       1.9942      0.00000
     47       2.2350      0.00000
     48       2.4056      0.00000

 k-point     5 :      -0.4000    0.2000    0.0000
  band No.  band energies     occupation 
      1     -16.4371      1.00000
      2     -15.7610      1.00000
      3     -15.7339      1.00000
      4     -15.5833      1.00000
      5     -15.4909      1.00000
      6     -15.4304      1.00000
      7     -14.0633      1.00000
      8     -12.3208      1.00000
      9      -7.8221      1.00000
     10      -7.6481      1.00000
     11      -7.5586      1.00000
     12      -7.2935      1.00000
     13      -7.0887      1.00000
     14      -6.6681      1.00000
     15      -6.4589      1.00000
     16      -6.4322      1.00000
     17      -6.3844      1.00000
     18      -6.2754      1.00000
     19      -6.2260      1.00000
     20      -6.1655      1.00000
     21      -5.9536      1.00000
     22      -5.6946      1.00000
     23      -5.4365      1.00000
     24      -5.3516      1.00000
     25      -5.3040      1.00000
     26      -5.2329      1.00000
     27      -5.1431      1.00000
     28      -5.0699      1.00000
     29      -4.9182      1.00000
     30      -4.8976      1.00000
     31      -4.8466      1.00000
     32      -4.3266      1.00000
     33      -3.8484      0.00000
     34      -3.5880      0.00000
     35      -3.4906      0.00000
     36      -3.2627      0.00000
     37      -3.2565      0.00000
     38      -2.6069      0.00000
     39      -2.4512      0.00000
     40      -1.7232      0.00000
     41      -1.6500      0.00000
     42      -1.2618      0.00000
     43       0.8215      0.00000
     44       0.9395      0.00000
     45       2.0139      0.00000
     46       2.1414      0.00000
     47       2.2646      0.00000
     48       2.4201      0.00000

 spin component 2

 k-point     1 :       0.0000    0.0000    0.0000
  band No.  band energies     occupation 
      1     -16.7693      1.00000
      2     -16.1098      1.00000
      3     -15.5446      1.00000
      4     -15.5445      1.00000
      5     -15.5110      1.00000
      6     -15.5109      1.00000
      7     -14.3630      1.00000
      8     -12.3294      1.00000
      9      -7.9550      1.00000
     10      -7.9550      1.00000
     11      -7.8463      1.00000
     12      -7.3726      1.00000
     13      -7.3726      1.00000
     14      -7.1193      1.00000
     15      -6.4138      1.00000
     16      -6.0638      1.00000
     17      -5.7203      1.00000
     18      -5.7202      1.00000
     19      -5.5480      1.00000
     20      -5.5480      1.00000
     21      -5.3873      1.00000
     22      -5.3810      1.00000
     23      -5.3810      1.00000
     24      -4.9113      1.00000
     25      -4.9113      1.00000
     26      -4.2656      0.64487
     27      -4.1398      0.00000
     28      -2.6762      0.00000
     29      -2.6762      0.00000
     30      -2.3114      0.00000
     31      -2.3114      0.00000
     32      -2.0160      0.00000
     33      -1.9511      0.00000
     34      -1.9511      0.00000
     35      -1.8699      0.00000
     36      -1.7378      0.00000
     37      -1.7378      0.00000
     38      -1.7051      0.00000
     39      -1.7051      0.00000
     40      -1.1963      0.00000
     41      -1.1963      0.00000
     42      -1.1880      0.00000
     43       0.6236      0.00000
     44       1.5465      0.00000
     45       1.5541      0.00000
     46       2.0642      0.00000
     47       2.4431      0.00000
     48       2.4707      0.00000

 k-point     2 :       0.2000    0.0000    0.0000
  band No.  band energies     occupation 
      1     -16.7039      1.00000
      2     -16.0593      1.00000
      3     -15.6470      1.00000
      4     -15.5864      1.00000
      5     -15.5600      1.00000
      6     -15.5337      1.00000
      7     -14.2882      1.00000
      8     -12.3346      1.00000
      9      -7.9259      1.00000
     10      -7.8779      1.00000
     11      -7.6985      1.00000
     12      -7.5075      1.00000
     13      -7.1615      1.00000
     14      -6.7381      1.00000
     15      -6.2844      1.00000
     16      -6.2429      1.00000
     17      -5.8027      1.00000
     18      -5.7862      1.00000
     19      -5.7737      1.00000
     20      -5.5373      1.00000
     21      -5.4924      1.00000
     22      -5.4494      1.00000
     23      -5.3866      1.00000
     24      -5.3117      1.00000
     25      -5.0365      1.00000
     26      -4.1564     -0.12861
     27      -3.9585      0.00000
     28      -2.7178      0.00000
     29      -2.6911      0.00000
     30      -2.3217      0.00000
     31      -2.2268      0.00000
     32      -2.0689      0.00000
     33      -1.9837      0.00000
     34      -1.9414      0.00000
     35      -1.8785      0.00000
     36      -1.8489      0.00000
     37      -1.7292      0.00000
     38      -1.7147      0.00000
     39      -1.6927      0.00000
     40      -1.2345      0.00000
     41      -1.2303      0.00000
     42      -1.1371      0.00000
     43       0.8394      0.00000
[...]
     34      -0.0036      0.00000
     35       0.0571      0.00000
     36       0.6682      0.00000
     37       0.7602      0.00000
     38       0.9551      0.00000
     39       1.0128      0.00000
     40       1.3718      0.00000
     41       1.9998      0.00000
     42       2.1464      0.00000
     43       2.6353      0.00000
     44       2.8502      0.00000
     45       3.4955      0.00000
     46       3.7830      0.00000
     47       3.9466      0.00000
     48       4.0822      0.00000

 k-point     5 :      -0.4000    0.2000    0.0000
  band No.  band energies     occupation 
      1     -18.3489      1.00000
      2     -17.0827      1.00000
      3     -16.3166      1.00000
      4     -16.0276      1.00000
      5     -15.7521      1.00000
      6     -15.6620      1.00000
      7     -12.4745      1.00000
      8     -11.1066      1.00000
      9      -8.7260      1.00000
     10      -8.4374      1.00000
     11      -8.3712      1.00000
     12      -7.9952      1.00000
     13      -7.5683      1.00000
     14      -6.6084      1.00000
     15      -6.1379      1.00000
     16      -6.0242      1.00000
     17      -5.8232      1.00000
     18      -5.7913      1.00000
     19      -5.7855      1.00000
     20      -5.4410      1.00000
     21      -4.9206      1.00000
     22      -4.7131      1.00000
     23      -4.4601      1.00000
     24      -4.3289      1.00000
     25      -4.3084      1.00000
     26      -2.4705      1.00000
     27      -1.5120      0.00000
     28      -1.1746      0.00000
     29      -1.1295      0.00000
     30      -0.4654      0.00000
     31      -0.2775      0.00000
     32      -0.2427      0.00000
     33      -0.2234      0.00000
     34      -0.0470      0.00000
     35       0.2768      0.00000
     36       0.5566      0.00000
     37       0.7350      0.00000
     38       0.9699      0.00000
     39       1.1312      0.00000
     40       1.5347      0.00000
     41       1.8136      0.00000
     42       1.9916      0.00000
     43       3.0998      0.00000
     44       3.4512      0.00000
     45       3.4545      0.00000
     46       3.5287      0.00000
     47       3.6082      0.00000
     48       3.9544      0.00000


--------------------------------------------------------------------------------------------------------


 soft charge-density along one line, spin component           1
         0         1         2         3         4         5         6         7         8         9
 total charge-density along one line

 soft charge-density along one line, spin component           2
         0         1         2         3         4         5         6         7         8         9
 total charge-density along one line

 pseudopotential strength for first ion, spin component:           1
 -8.536   0.056  -0.000  -0.000  -0.000   0.613  -0.015   0.000
  0.056  -8.481   0.000   0.000  -0.000  -0.015   0.598  -0.000
 -0.000   0.000  -8.622   0.000   0.000   0.000  -0.000   0.637
 -0.000   0.000   0.000  -8.481  -0.056   0.000  -0.000  -0.000
 -0.000  -0.000   0.000  -0.056  -8.536   0.000   0.000  -0.000
  0.613  -0.015   0.000   0.000   0.000   0.383   0.004  -0.000
 -0.015   0.598  -0.000  -0.000   0.000   0.004   0.386   0.000
  0.000  -0.000   0.637  -0.000  -0.000  -0.000   0.000   0.377
  0.000  -0.000  -0.000   0.598   0.015  -0.000   0.000   0.000
  0.000   0.000  -0.000   0.015   0.613  -0.000  -0.000   0.000
 -0.000  -0.000   0.003  -0.000   0.000   0.000   0.000  -0.001
  0.000   0.000  -0.000   0.000  -0.000  -0.000  -0.000   0.000
 -0.000  -0.000   0.000  -0.000   0.000   0.000   0.000  -0.000
 -0.000  -0.000  -0.000  -0.000  -0.000   0.000   0.000   0.000
  0.000  -0.000   0.000  -0.000   0.000   0.000   0.000  -0.000
  0.000   0.000  -0.000   0.000  -0.001  -0.000  -0.000   0.000
  0.000   0.000   0.000   0.000   0.000  -0.000  -0.000  -0.000
 -0.001   0.000  -0.000   0.000  -0.000   0.000  -0.000   0.000
 pseudopotential strength for first ion, spin component:           2
 -6.918  -0.127  -0.000   0.000   0.000   0.156   0.033   0.000
 -0.127  -7.066   0.000   0.000   0.000   0.033   0.194  -0.000
 -0.000   0.000  -6.794   0.000   0.000   0.000  -0.000   0.123
  0.000   0.000   0.000  -7.066   0.127  -0.000  -0.000  -0.000
  0.000   0.000   0.000   0.127  -6.918  -0.000  -0.000  -0.000
  0.156   0.033   0.000  -0.000  -0.000   0.508  -0.009  -0.000
  0.033   0.194  -0.000  -0.000  -0.000  -0.009   0.498   0.000
  0.000  -0.000   0.123  -0.000  -0.000  -0.000   0.000   0.516
 -0.000  -0.000  -0.000   0.194  -0.033   0.000   0.000   0.000
 -0.000  -0.000  -0.000  -0.033   0.156   0.000   0.000   0.000
 -0.000  -0.000   0.002  -0.000   0.000  -0.000   0.000  -0.000
  0.000   0.000  -0.000   0.000  -0.000  -0.000  -0.000   0.000
  0.000  -0.000   0.000  -0.000   0.003  -0.000   0.000  -0.000
 -0.000  -0.000  -0.000  -0.000   0.000   0.000   0.000   0.000
  0.003  -0.000   0.000  -0.000  -0.000  -0.001   0.000  -0.000
  0.000   0.000  -0.000   0.000  -0.002   0.000  -0.000   0.000
  0.000   0.000   0.000   0.000  -0.000  -0.000  -0.000  -0.000
 -0.002   0.000  -0.000   0.000   0.000   0.000  -0.000   0.000
 total augmentation occupancy for first ion, spin component:           1
  1.006  -0.107   0.000   0.000  -0.000   0.083   0.197  -0.000  -0.000  -0.000  -0.000  -0.000  -0.000   0.000   0.009   0.000
 -0.107   0.940  -0.000  -0.000   0.000   0.196   0.272   0.000  -0.000  -0.000   0.000   0.000  -0.000  -0.000  -0.001   0.000
  0.000  -0.000   1.041  -0.000  -0.000  -0.000   0.000  -0.091   0.000   0.000  -0.005  -0.006  -0.000   0.000   0.000  -0.000
  0.000  -0.000  -0.000   0.940   0.107  -0.000   0.000   0.000   0.272  -0.196  -0.000   0.000   0.001  -0.000  -0.000  -0.000
 -0.000   0.000  -0.000   0.107   1.006   0.000  -0.000   0.000  -0.197   0.083   0.000   0.000   0.009  -0.000   0.000   0.001
  0.083   0.196  -0.000  -0.000   0.000   0.241   0.154   0.000  -0.000  -0.000   0.000  -0.000  -0.000   0.000  -0.004   0.000
  0.197   0.272   0.000   0.000  -0.000   0.154   0.376   0.000  -0.000  -0.000   0.000  -0.000  -0.000  -0.000  -0.005   0.000
 -0.000   0.000  -0.091   0.000   0.000   0.000   0.000   0.179   0.000  -0.000   0.026  -0.008   0.000   0.000  -0.000   0.000
 -0.000  -0.000   0.000   0.272  -0.197  -0.000  -0.000   0.000   0.376  -0.154   0.000   0.000   0.005   0.000  -0.000  -0.000
 -0.000  -0.000   0.000  -0.196   0.083  -0.000  -0.000  -0.000  -0.154   0.241  -0.000   0.000  -0.004  -0.000   0.000  -0.001
 -0.000  -0.000  -0.005  -0.000   0.000   0.000   0.000   0.026   0.000  -0.000   0.991  -0.216  -0.000  -0.000   0.000   0.000
 -0.000  -0.000  -0.006  -0.000   0.000  -0.000  -0.000  -0.008   0.000   0.000  -0.216   0.088   0.000   0.000   0.000   0.000
 -0.000  -0.000  -0.000   0.001   0.009  -0.000  -0.000   0.000   0.005  -0.004   0.000  -0.000   0.221   0.000  -0.000  -0.005
  0.000  -0.000   0.000  -0.000  -0.000   0.000   0.000   0.000   0.000  -0.000  -0.000   0.000   0.000   0.231   0.000  -0.000
  0.009  -0.001   0.000  -0.000   0.000  -0.004  -0.005  -0.000  -0.000   0.000  -0.000   0.000  -0.000   0.000   0.221   0.000
  0.000   0.000  -0.000  -0.000   0.001   0.000   0.000   0.000  -0.000  -0.001   0.000   0.000  -0.005  -0.000   0.000   0.000
 -0.000   0.000  -0.000  -0.000   0.000  -0.000   0.000  -0.000   0.000   0.000   0.000  -0.000  -0.000  -0.006  -0.000   0.000
  0.001   0.000   0.000   0.000  -0.000  -0.001   0.000  -0.000   0.000  -0.000   0.000  -0.000  -0.000  -0.000  -0.005  -0.000
 total augmentation occupancy for first ion, spin component:           2
  0.684  -0.218   0.000   0.000  -0.000  -0.166   0.037  -0.000  -0.000  -0.000  -0.000  -0.000   0.000  -0.000   0.011   0.000
 -0.218   0.450  -0.000  -0.000   0.000   0.038  -0.129   0.000  -0.000  -0.000   0.000   0.000  -0.000  -0.000   0.008  -0.000
  0.000  -0.000   0.907  -0.000  -0.000  -0.000   0.000  -0.217   0.000   0.000  -0.007  -0.001  -0.000  -0.000   0.000  -0.000
  0.000  -0.000  -0.000   0.450   0.218  -0.000   0.000   0.000  -0.129  -0.038   0.000   0.000  -0.008   0.000  -0.000  -0.000
 -0.000   0.000  -0.000   0.218   0.684   0.000  -0.000   0.000  -0.037  -0.166   0.000   0.000   0.011   0.000  -0.000   0.001
 -0.166   0.038  -0.000  -0.000   0.000   0.006  -0.026   0.000   0.000  -0.000   0.000   0.000  -0.000   0.000  -0.009  -0.000
  0.037  -0.129   0.000   0.000  -0.000  -0.026  -0.018  -0.000   0.000   0.000  -0.000  -0.000   0.000  -0.000  -0.001  -0.000
 -0.000   0.000  -0.217   0.000   0.000   0.000  -0.000   0.051  -0.000  -0.000   0.012   0.002   0.000   0.000  -0.000   0.000
 -0.000  -0.000   0.000  -0.129  -0.037   0.000   0.000  -0.000  -0.018   0.026   0.000   0.000   0.001  -0.000   0.000   0.000
 -0.000  -0.000   0.000  -0.038  -0.166  -0.000   0.000  -0.000   0.026   0.006  -0.000  -0.000  -0.009  -0.000   0.000  -0.001
 -0.000  -0.000  -0.007   0.000   0.000   0.000   0.000   0.012   0.000  -0.000   0.135   0.056   0.000  -0.000   0.000   0.000
 -0.000   0.000  -0.001   0.000   0.000   0.000   0.000   0.002  -0.000  -0.000   0.056  -0.026   0.000  -0.000   0.000  -0.000
  0.000  -0.000  -0.000  -0.008   0.011  -0.000   0.000   0.000   0.001  -0.009  -0.000  -0.000   0.021   0.000  -0.000   0.002
 -0.000   0.000  -0.000   0.000   0.000   0.000   0.000   0.000  -0.000  -0.000  -0.000  -0.000   0.000   0.021   0.000   0.000
  0.011   0.008   0.000  -0.000  -0.000  -0.009  -0.001  -0.000   0.000   0.000   0.000   0.000  -0.000   0.000   0.021  -0.000
  0.000  -0.000  -0.000  -0.000   0.001  -0.000  -0.000   0.000   0.000  -0.001   0.000  -0.000   0.002   0.000  -0.000  -0.000
 -0.000  -0.000  -0.000   0.000   0.000   0.000   0.000   0.000   0.000  -0.000  -0.000   0.000   0.000   0.002   0.000  -0.000
  0.001   0.000   0.000  -0.000  -0.000  -0.001  -0.000  -0.000  -0.000   0.000   0.000  -0.000   0.000   0.000   0.002   0.000


------------------------ aborting loop because EDIFF is reached ----------------------------------------





 total charge     

# of ion       s       p       d       tot
------------------------------------------
    1        0.332   0.461   4.317   5.110
    2        0.332   0.461   4.317   5.110
    3        1.021   1.386   0.000   2.407
    4        1.021   1.386   0.000   2.407
    5        1.374   2.358   0.000   3.731
    6        1.358   2.327   0.000   3.685
    7        1.369   2.351   0.000   3.720
    8        1.374   2.358   0.000   3.731
    9        1.358   2.327   0.000   3.685
   10        1.369   2.351   0.000   3.720
--------------------------------------------------
tot         10.908  17.765   8.633  37.307



 magnetization (x)

# of ion       s       p       d       tot
------------------------------------------
    1        0.030   0.034   2.953   3.017
    2        0.030   0.034   2.953   3.017
    3       -0.001   0.042   0.000   0.041
    4       -0.001   0.042   0.000   0.041
    5        0.007  -0.040   0.000  -0.033
    6        0.004  -0.037   0.000  -0.033
    7        0.005  -0.037   0.000  -0.032
    8        0.007  -0.040   0.000  -0.033
    9        0.004  -0.037   0.000  -0.033
   10        0.005  -0.037   0.000  -0.032
--------------------------------------------------
tot          0.088  -0.074   5.906   5.920

    CHARGE:  cpu time    1.9840: real time    2.0071
    FORLOC:  cpu time    0.0560: real time    0.0559
    FORNL :  cpu time    6.6000: real time    6.6850
    STRESS:  cpu time   19.8120: real time   20.0834
    FORCOR:  cpu time   52.8680: real time   53.1140
    FORHAR:  cpu time    0.3280: real time    0.3271
    MIXING:  cpu time    0.0400: real time    0.0418
    OFIELD:  cpu time    0.0000: real time    0.0000

  FORCE on cell =-STRESS in cart. coord.  units (eV):
  Direction    XX          YY          ZZ          XY          YZ          ZX
  --------------------------------------------------------------------------------------
  Alpha Z    29.09558    29.09558    29.09558
  Ewald   10143.45745 10143.45394-11928.61140    -0.00104    -0.00051    -0.00091
  Hartree 10482.99104 10482.99128-10308.66946     0.00005     0.00004     0.00006
  E(xc)    -219.11482  -219.11482  -219.05779     0.00001     0.00000     0.00001
  Local  -21569.37510-21569.37355 21243.74251     0.00051     0.00026     0.00047
  n-local   524.00409   526.70323   531.33129     1.44138     0.76273     0.73957
  augment   -64.30291   -64.30286   -69.01252     0.00002     0.00002     0.00002
  Kinetic   676.34739   667.32266   721.03880    -5.26142    -1.84125    -2.00916
  Fock        0.00000     0.00000     0.00000     0.00000     0.00000     0.00000
  -------------------------------------------------------------------------------------
  Total      -0.06090    -0.06090    -0.14299    -0.00000     0.00000     0.00000
  in kB      -0.14889    -0.14889    -0.34957    -0.00000     0.00000     0.00000
  external pressure =       -0.22 kB  Pullay stress =        0.00 kB


 VOLUME and BASIS-vectors are now :
 -----------------------------------------------------------------------------
  energy-cutoff  :      520.00
  volume of cell :      655.34
      direct lattice vectors                 reciprocal lattice vectors
     5.949944796  0.000000102  0.000000000     0.168068788 -0.097034551 -0.000000000
     2.974972018  5.152803182  0.000000000    -0.000000003  0.194069126 -0.000000000
     0.000000000  0.000000000 21.375190047    -0.000000000 -0.000000000  0.046783210

  length of vectors
     5.949944796  5.949944465 21.375190047     0.194069115  0.194069126  0.046783210


 FORCES acting on ions
    electron-ion (+dipol)            ewald-force                    non-local-force                 convergence-correction
 -----------------------------------------------------------------------------------------------
   -.182E-03 -.104E-03 0.467E+00   0.450E-03 0.260E-03 -.469E+00   0.436E-18 0.373E-20 0.104E-01   -.551E-08 -.842E-08 -.778E-04
   0.182E-03 0.104E-03 -.467E+00   -.450E-03 -.260E-03 0.469E+00   -.870E-18 -.871E-18 -.104E-01   0.551E-08 0.842E-08 0.778E-04
   -.461E-04 -.291E-04 0.289E+03   -.284E-03 -.159E-03 -.289E+03   -.989E-18 0.427E-18 -.319E+00   0.587E-07 0.294E-07 -.140E-01
   0.461E-04 0.291E-04 -.289E+03   0.284E-03 0.159E-03 0.289E+03   -.908E-18 -.390E-17 0.319E+00   -.587E-07 -.294E-07 0.140E-01
   0.276E+02 -.600E-01 -.478E+03   -.309E+02 0.641E-01 0.481E+03   0.335E+01 -.460E-02 -.329E+01   -.655E-02 -.655E-04 0.822E-02
   -.139E+02 -.239E+02 -.478E+03   0.155E+02 0.267E+02 0.481E+03   -.168E+01 -.290E+01 -.329E+01   0.322E-02 0.571E-02 0.822E-02
   -.138E+02 0.239E+02 -.478E+03   0.154E+02 -.268E+02 0.481E+03   -.167E+01 0.290E+01 -.329E+01   0.333E-02 -.564E-02 0.822E-02
   -.276E+02 0.600E-01 0.478E+03   0.309E+02 -.641E-01 -.481E+03   -.335E+01 0.460E-02 0.329E+01   0.655E-02 0.655E-04 -.822E-02
   0.139E+02 0.239E+02 0.478E+03   -.155E+02 -.267E+02 -.481E+03   0.168E+01 0.290E+01 0.329E+01   -.322E-02 -.571E-02 -.822E-02
   0.138E+02 -.239E+02 0.478E+03   -.154E+02 0.268E+02 -.481E+03   0.167E+01 -.290E+01 0.329E+01   -.333E-02 0.564E-02 -.822E-02
 -----------------------------------------------------------------------------------------------
   0.767E-11 0.290E-09 -.613E-10   0.124E-13 -.711E-14 0.114E-12   -.222E-15 0.000E+00 0.888E-15   0.164E-12 0.115E-13 0.664E-10


 POSITION                                       TOTAL-FORCE (eV/Angst)
 -----------------------------------------------------------------------------------
      2.97497      1.71760     10.68599        -0.000000      0.000000      0.008692
      5.94995      3.43520     10.68920        -0.000000     -0.000000     -0.008692
      0.00000      0.00000      9.57294        -0.000000      0.000000      0.025650
      0.00000      0.00000     11.80225        -0.000000     -0.000000     -0.025650
      3.88488      0.00059     12.19619         0.033715      0.000369     -0.013154
      1.03304      1.78811     12.19619        -0.016538     -0.029383     -0.013154
      4.00700      3.36411     12.19619        -0.017177      0.029014     -0.013154
      5.04004      5.15222      9.17900        -0.033715     -0.000369      0.013154
      7.89187      3.36469      9.17900         0.016538      0.029383      0.013154
      4.91791      1.78869      9.17900         0.017177     -0.029014      0.013154
 -----------------------------------------------------------------------------------
    total drift:                                0.000000      0.000000      0.000000


--------------------------------------------------------------------------------------------------------



  FREE ENERGIE OF THE ION-ELECTRON SYSTEM (eV)
  ---------------------------------------------------
  free  energy   TOTEN  =       -54.65023799 eV

  energy  without entropy=      -54.65023799  energy(sigma->0) =      -54.65023799

 d Force = 0.5067264E-03[-0.630E-03, 0.164E-02]  d Energy = 0.1557742E-02-0.105E-02
 d Force = 0.5293310E+01[ 0.530E+01, 0.529E+01]  d Ewald  =-0.3579837E+02 0.411E+02


--------------------------------------------------------------------------------------------------------


    POTLOK:  cpu time   52.0400: real time   52.9678


--------------------------------------------------------------------------------------------------------




--------------------------------------------------------------------------------------------------------


  
 reached required accuracy - stopping structural energy minimisation
     LOOP+:  cpu time  534.3320: real time  538.3660
    4ORBIT:  cpu time    0.0000: real time    0.0000



 total charge     

# of ion       s       p       d       tot
------------------------------------------
    1        0.332   0.461   4.317   5.110
    2        0.332   0.461   4.317   5.110
    3        1.021   1.386   0.000   2.407
    4        1.021   1.386   0.000   2.407
    5        1.374   2.358   0.000   3.731
    6        1.358   2.327   0.000   3.685
    7        1.369   2.351   0.000   3.720
    8        1.374   2.358   0.000   3.731
    9        1.358   2.327   0.000   3.685
   10        1.369   2.351   0.000   3.720
--------------------------------------------------
tot         10.908  17.765   8.633  37.307



 magnetization (x)

# of ion       s       p       d       tot
------------------------------------------
    1        0.030   0.034   2.953   3.017
    2        0.030   0.034   2.953   3.017
    3       -0.001   0.042   0.000   0.041
    4       -0.001   0.042   0.000   0.041
    5        0.007  -0.040   0.000  -0.033
    6        0.004  -0.037   0.000  -0.033
    7        0.005  -0.037   0.000  -0.032
    8        0.007  -0.040   0.000  -0.033
    9        0.004  -0.037   0.000  -0.033
   10        0.005  -0.037   0.000  -0.032
--------------------------------------------------
tot          0.088  -0.074   5.906   5.920

 BZINTS: Fermi energy: -1.582026; 58.000000 electrons
         Band energy:-484.042567;  BLOECHL correction: -0.042750

 total amount of memory used by VASP MPI-rank0   128796. kBytes
=======================================================================

   base      :      30000. kBytes
   nonlr-proj:       8501. kBytes
   fftplans  :      11247. kBytes
   grid      :      66142. kBytes
   one-center:        311. kBytes
   wavefun   :      12595. kBytes

  
  
 General timing and accounting informations for this job:
 ========================================================
  
                  Total CPU time used (sec):    13368.040
                            User time (sec):    13054.308
                          System time (sec):      313.732
                         Elapsed time (sec):    13450.659
  
                   Maximum memory used (kb):      382204.
                   Average memory used (kb):           0.
  
                          Minor page faults:     13799845
                          Major page faults:            9
                 Voluntary context switches:         1013
