PROCAR lm decomposed
# of k-points:    5         # of bands:   48         # of ions:   10

 k-point     1 :    0.00000000 0.00000000 0.00000000     weight = 0.04000000

band     1 # energy  -18.70566005 # occ.  1.00000000

ion      s     py     pz     px    dxy    dyz    dz2    dxz  x2-y2    tot
    1  0.010  0.000  0.000  0.000  0.000  0.000  0.000  0.000  0.000  0.010
    2  0.010  0.000  0.000  0.000  0.000  0.000  0.000  0.000  0.000  0.010
    3  0.129  0.000  0.001  0.000  0.000  0.000  0.000  0.000  0.000  0.130
    4  0.129  0.000  0.001  0.000  0.000  0.000  0.000  0.000  0.000  0.130
    5  0.052  0.000  0.001  0.003  0.000  0.000  0.000  0.000  0.000  0.056
    6  0.052  0.002  0.001  0.001  0.000  0.000  0.000  0.000  0.000  0.056
    7  0.052  0.002  0.001  0.001  0.000  0.000  0.000  0.000  0.000  0.056
    8  0.052  0.000  0.001  0.003  0.000  0.000  0.000  0.000  0.000  0.056
    9  0.052  0.002  0.001  0.001  0.000  0.000  0.000  0.000  0.000  0.056
   10  0.052  0.002  0.001  0.001  0.000  0.000  0.000  0.000  0.000  0.056
tot    0.591  0.010  0.007  0.010  0.000  0.000  0.000  0.000  0.000  0.618

band     2 # energy  -17.37144724 # occ.  1.00000000

ion      s     py     pz     px    dxy    dyz    dz2    dxz  x2-y2    tot
    1  0.000  0.000  0.005  0.000  0.000  0.000  0.000  0.000  0.000  0.005
    2  0.000  0.000  0.005  0.000  0.000  0.000  0.000  0.000  0.000  0.005
    3  0.090  0.000  0.004  0.000  0.000  0.000  0.000  0.000  0.000  0.094
    4  0.090  0.000  0.004  0.000  0.000  0.000  0.000  0.000  0.000  0.094
    5  0.073  0.000  0.000  0.003  0.000  0.000  0.000  0.000  0.000  0.077
    6  0.073  0.003  0.000  0.001  0.000  0.000  0.000  0.000  0.000  0.077
    7  0.073  0.003  0.000  0.001  0.000  0.000  0.000  0.000  0.000  0.077
    8  0.073  0.000  0.000  0.003  0.000  0.000  0.000  0.000  0.000  0.077
    9  0.073  0.003  0.000  0.001  0.000  0.000  0.000  0.000  0.000  0.077
   10  0.073  0.003  0.000  0.001  0.000  0.000  0.000  0.000  0.000  0.077
tot    0.620  0.010  0.019  0.010  0.000  0.000  0.000  0.000  0.000  0.659

band     3 # energy  -15.67943634 # occ.  1.00000000

ion      s     py     pz     px    dxy    dyz    dz2    dxz  x2-y2    tot
    1  0.000  0.000  0.000  0.003  0.004  0.006  0.000  0.000  0.000  0.013
    2  0.000  0.000  0.000  0.003  0.004  0.006  0.000  0.000  0.000  0.013
    3  0.000  0.000  0.000  0.026  0.000  0.000  0.000  0.000  0.000  0.026
    4  0.000  0.000  0.000  0.026  0.000  0.000  0.000  0.000  0.000  0.026
    5  0.205  0.000  0.001  0.004  0.000  0.000  0.000  0.000  0.000  0.210
    6  0.047  0.001  0.000  0.000  0.000  0.000  0.000  0.000  0.000  0.048
    7  0.055  0.001  0.000  0.000  0.000  0.000  0.000  0.000  0.000  0.057
    8  0.205  0.000  0.001  0.004  0.000  0.000  0.000  0.000  0.000  0.210
    9  0.047  0.001  0.000  0.000  0.000  0.000  0.000  0.000  0.000  0.048
   10  0.055  0.001  0.000  0.000  0.000  0.000  0.000  0.000  0.000  0.057
tot    0.614  0.004  0.004  0.065  0.007  0.013  0.000  0.000  0.000  0.707

band     4 # energy  -15.67938669 # occ.  1.00000000

ion      s     py     pz     px    dxy    dyz    dz2    dxz  x2-y2    tot
    1  0.000  0.003  0.000  0.000  0.000  0.000  0.000  0.006  0.004  0.013
    2  0.000  0.003  0.000  0.000  0.000  0.000  0.000  0.006  0.004  0.013
    3  0.000  0.026  0.000  0.000  0.000  0.000  0.000  0.000  0.000  0.026
    4  0.000  0.026  0.000  0.000  0.000  0.000  0.000  0.000  0.000  0.026
    5  0.000  0.000  0.000  0.000  0.000  0.000  0.000  0.000  0.000  0.000
    6  0.158  0.002  0.001  0.001  0.000  0.000  0.000  0.000  0.000  0.162
    7  0.149  0.002  0.001  0.001  0.000  0.000  0.000  0.000  0.000  0.153
    8  0.000  0.000  0.000  0.000  0.000  0.000  0.000  0.000  0.000  0.000
    9  0.158  0.002  0.001  0.001  0.000  0.000  0.000  0.000  0.000  0.162
   10  0.149  0.002  0.001  0.001  0.000  0.000  0.000  0.000  0.000  0.153
tot    0.614  0.065  0.004  0.004  0.000  0.000  0.000  0.013  0.007  0.707

band     5 # energy  -15.46545582 # occ.  1.00000000

ion      s     py     pz     px    dxy    dyz    dz2    dxz  x2-y2    tot
    1  0.000  0.008  0.000  0.000  0.000  0.000  0.000  0.002  0.001  0.011
    2  0.000  0.008  0.000  0.000  0.000  0.000  0.000  0.002  0.001  0.011
    3  0.000  0.000  0.000  0.019  0.000  0.000  0.000  0.000  0.000  0.019
    4  0.000  0.000  0.000  0.019  0.000  0.000  0.000  0.000  0.000  0.019
    5  0.216  0.000  0.001  0.002  0.000  0.000  0.000  0.000  0.000  0.220
    6  0.065  0.001  0.000  0.000  0.000  0.000  0.000  0.000  0.000  0.066
    7  0.044  0.000  0.000  0.000  0.000  0.000  0.000  0.000  0.000  0.045
    8  0.216  0.000  0.001  0.002  0.000  0.000  0.000  0.000  0.000  0.220
    9  0.065  0.001  0.000  0.000  0.000  0.000  0.000  0.000  0.000  0.066
   10  0.044  0.000  0.000  0.000  0.000  0.000  0.000  0.000  0.000  0.045
tot    0.651  0.017  0.003  0.042  0.000  0.000  0.000  0.005  0.003  0.721

band     6 # energy  -15.46541646 # occ.  1.00000000

ion      s     py     pz     px    dxy    dyz    dz2    dxz  x2-y2    tot
    1  0.000  0.000  0.000  0.008  0.001  0.002  0.000  0.000  0.000  0.011
    2  0.000  0.000  0.000  0.008  0.001  0.002  0.000  0.000  0.000  0.011
    3  0.000  0.019  0.000  0.000  0.000  0.000  0.000  0.000  0.000  0.019
    4  0.000  0.019  0.000  0.000  0.000  0.000  0.000  0.000  0.000  0.019
    5  0.001  0.000  0.000  0.000  0.000  0.000  0.000  0.000  0.000  0.001
    6  0.152  0.001  0.001  0.000  0.000  0.000  0.000  0.000  0.000  0.154
    7  0.173  0.001  0.001  0.001  0.000  0.000  0.000  0.000  0.000  0.176
    8  0.001  0.000  0.000  0.000  0.000  0.000  0.000  0.000  0.000  0.001
    9  0.152  0.001  0.001  0.000  0.000  0.000  0.000  0.000  0.000  0.154
   10  0.173  0.001  0.001  0.001  0.000  0.000  0.000  0.000  0.000  0.176
tot    0.651  0.042  0.003  0.017  0.003  0.005  0.000  0.000  0.000  0.721

band     7 # energy  -13.32130852 # occ.  1.00000000

ion      s     py     pz     px    dxy    dyz    dz2    dxz  x2-y2    tot
    1  0.024  0.000  0.000  0.000  0.000  0.000  0.001  0.000  0.000  0.025
    2  0.024  0.000  0.000  0.000  0.000  0.000  0.001  0.000  0.000  0.025
    3  0.118  0.000  0.014  0.000  0.000  0.000  0.000  0.000  0.000  0.133
    4  0.118  0.000  0.014  0.000  0.000  0.000  0.000  0.000  0.000  0.133
    5  0.045  0.000  0.000  0.010  0.000  0.000  0.000  0.000  0.000  0.055
    6  0.045  0.007  0.000  0.002  0.000  0.000  0.000  0.000  0.000  0.055
    7  0.045  0.007  0.000  0.002  0.000  0.000  0.000  0.000  0.000  0.055
    8  0.045  0.000  0.000  0.010  0.000  0.000  0.000  0.000  0.000  0.055
    9  0.045  0.007  0.000  0.002  0.000  0.000  0.000  0.000  0.000  0.055
   10  0.045  0.007  0.000  0.002  0.000  0.000  0.000  0.000  0.000  0.055
tot    0.556  0.029  0.029  0.029  0.000  0.000  0.001  0.000  0.000  0.645

band     8 # energy  -11.33629908 # occ.  1.00000000

ion      s     py     pz     px    dxy    dyz    dz2    dxz  x2-y2    tot
    1  0.000  0.000  0.015  0.000  0.000  0.000  0.000  0.000  0.000  0.015
    2  0.000  0.000  0.015  0.000  0.000  0.000  0.000  0.000  0.000  0.015
    3  0.139  0.000  0.006  0.000  0.000  0.000  0.000  0.000  0.000  0.145
    4  0.139  0.000  0.006  0.000  0.000  0.000  0.000  0.000  0.000  0.145
    5  0.033  0.000  0.000  0.024  0.000  0.000  0.000  0.000  0.000  0.057
    6  0.033  0.018  0.000  0.006  0.000  0.000  0.000  0.000  0.000  0.057
    7  0.033  0.018  0.000  0.006  0.000  0.000  0.000  0.000  0.000  0.057
    8  0.033  0.000  0.000  0.024  0.000  0.000  0.000  0.000  0.000  0.057
    9  0.033  0.018  0.000  0.006  0.000  0.000  0.000  0.000  0.000  0.057
   10  0.033  0.018  0.000  0.006  0.000  0.000  0.000  0.000  0.000  0.057
tot    0.477  0.071  0.040  0.071  0.000  0.000  0.000  0.000  0.000  0.660

band     9 # energy   -9.06944015 # occ.  1.00000000

ion      s     py     pz     px    dxy    dyz    dz2    dxz  x2-y2    tot
    1  0.032  0.000  0.000  0.000  0.000  0.000  0.005  0.000  0.000  0.038
    2  0.032  0.000  0.000  0.000  0.000  0.000  0.005  0.000  0.000  0.038
    3  0.003  0.000  0.104  0.000  0.000  0.000  0.000  0.000  0.000  0.107
    4  0.003  0.000  0.104  0.000  0.000  0.000  0.000  0.000  0.000  0.107
    5  0.001  0.000  0.021  0.012  0.000  0.000  0.000  0.000  0.000  0.034
    6  0.001  0.009  0.021  0.003  0.000  0.000  0.000  0.000  0.000  0.034
    7  0.001  0.009  0.021  0.003  0.000  0.000  0.000  0.000  0.000  0.034
    8  0.001  0.000  0.021  0.012  0.000  0.000  0.000  0.000  0.000  0.034
    9  0.001  0.009  0.021  0.003  0.000  0.000  0.000  0.000  0.000  0.034
   10  0.001  0.009  0.021  0.003  0.000  0.000  0.000  0.000  0.000  0.034
tot    0.076  0.036  0.337  0.036  0.000  0.000  0.011  0.000  0.000  0.496

band    10 # energy   -8.90094430 # occ.  1.00000000

ion      s     py     pz     px    dxy    dyz    dz2    dxz  x2-y2    tot
    1  0.000  0.001  0.000  0.001  0.000  0.012  0.000  0.027  0.000  0.041
    2  0.000  0.001  0.000  0.001  0.000  0.012  0.000  0.027  0.000  0.041
    3  0.000  0.047  0.000  0.020  0.000  0.000  0.000  0.000  0.000  0.067
    4  0.000  0.047  0.000  0.020  0.000  0.000  0.000  0.000  0.000  0.067
    5  0.006  0.014  0.001  0.021  0.000  0.000  0.000  0.000  0.000  0.041
    6  0.020  0.053  0.003  0.015  0.000  0.000  0.000  0.000  0.000  0.091
    7  0.004  0.002  0.001  0.028  0.000  0.000  0.000  0.000  0.000  0.034
    8  0.006  0.014  0.001  0.021  0.000  0.000  0.000  0.000  0.000  0.041
    9  0.020  0.053  0.003  0.015  0.000  0.000  0.000  0.000  0.000  0.091
   10  0.004  0.002  0.001  0.028  0.000  0.000  0.000  0.000  0.000  0.034
tot    0.060  0.233  0.009  0.170  0.000  0.023  0.000  0.054  0.001  0.549

band    11 # energy   -8.90091501 # occ.  1.00000000

ion      s     py     pz     px    dxy    dyz    dz2    dxz  x2-y2    tot
    1  0.000  0.001  0.000  0.001  0.000  0.027  0.000  0.012  0.000  0.041
    2  0.000  0.001  0.000  0.001  0.000  0.027  0.000  0.012  0.000  0.041
    3  0.000  0.020  0.000  0.047  0.000  0.000  0.000  0.000  0.000  0.067
    4  0.000  0.020  0.000  0.047  0.000  0.000  0.000  0.000  0.000  0.067
    5  0.014  0.006  0.002  0.048  0.000  0.000  0.000  0.000  0.000  0.070
    6  0.000  0.003  0.000  0.016  0.000  0.000  0.000  0.000  0.000  0.020
    7  0.016  0.055  0.002  0.004  0.000  0.000  0.000  0.000  0.000  0.077
    8  0.014  0.006  0.002  0.048  0.000  0.000  0.000  0.000  0.000  0.070
    9  0.000  0.003  0.000  0.016  0.000  0.000  0.000  0.000  0.000  0.020
   10  0.016  0.055  0.002  0.004  0.000  0.000  0.000  0.000  0.000  0.077
tot    0.060  0.170  0.009  0.233  0.001  0.054  0.000  0.023  0.000  0.549

band    12 # energy   -8.42660495 # occ.  1.00000000

ion      s     py     pz     px    dxy    dyz    dz2    dxz  x2-y2    tot
    1  0.000  0.016  0.000  0.007  0.003  0.001  0.000  0.002  0.006  0.034
    2  0.000  0.016  0.000  0.007  0.003  0.001  0.000  0.002  0.006  0.034
    3  0.000  0.018  0.000  0.044  0.000  0.000  0.000  0.000  0.000  0.062
    4  0.000  0.018  0.000  0.044  0.000  0.000  0.000  0.000  0.000  0.062
    5  0.003  0.006  0.002  0.062  0.000  0.000  0.000  0.000  0.000  0.073
    6  0.004  0.068  0.002  0.006  0.000  0.000  0.000  0.000  0.000  0.079
    7  0.000  0.003  0.000  0.017  0.000  0.000  0.000  0.000  0.000  0.020
    8  0.003  0.006  0.002  0.062  0.000  0.000  0.000  0.000  0.000  0.073
    9  0.004  0.068  0.002  0.006  0.000  0.000  0.000  0.000  0.000  0.079
   10  0.000  0.003  0.000  0.017  0.000  0.000  0.000  0.000  0.000  0.020
tot    0.015  0.224  0.007  0.270  0.005  0.002  0.000  0.004  0.012  0.538

band    13 # energy   -8.42658594 # occ.  1.00000000

ion      s     py     pz     px    dxy    dyz    dz2    dxz  x2-y2    tot
    1  0.000  0.007  0.000  0.016  0.006  0.002  0.000  0.001  0.003  0.034
    2  0.000  0.007  0.000  0.016  0.006  0.002  0.000  0.001  0.003  0.034
    3  0.000  0.044  0.000  0.018  0.000  0.000  0.000  0.000  0.000  0.062
    4  0.000  0.044  0.000  0.018  0.000  0.000  0.000  0.000  0.000  0.062
    5  0.001  0.014  0.001  0.026  0.000  0.000  0.000  0.000  0.000  0.042
    6  0.001  0.003  0.000  0.031  0.000  0.000  0.000  0.000  0.000  0.036
    7  0.005  0.067  0.002  0.020  0.000  0.000  0.000  0.000  0.000  0.095
    8  0.001  0.014  0.001  0.026  0.000  0.000  0.000  0.000  0.000  0.042
    9  0.001  0.003  0.000  0.031  0.000  0.000  0.000  0.000  0.000  0.036
   10  0.005  0.067  0.002  0.020  0.000  0.000  0.000  0.000  0.000  0.095
tot    0.015  0.270  0.007  0.224  0.012  0.004  0.000  0.002  0.005  0.538

band    14 # energy   -7.31268979 # occ.  1.00000000

ion      s     py     pz     px    dxy    dyz    dz2    dxz  x2-y2    tot
    1  0.081  0.000  0.000  0.000  0.000  0.000  0.026  0.000  0.000  0.107
    2  0.081  0.000  0.000  0.000  0.000  0.000  0.026  0.000  0.000  0.107
    3  0.000  0.000  0.000  0.000  0.000  0.000  0.000  0.000  0.000  0.000
    4  0.000  0.000  0.000  0.000  0.000  0.000  0.000  0.000  0.000  0.000
    5  0.000  0.060  0.000  0.000  0.000  0.000  0.000  0.000  0.000  0.060
    6  0.000  0.015  0.000  0.045  0.000  0.000  0.000  0.000  0.000  0.060
    7  0.000  0.015  0.000  0.045  0.000  0.000  0.000  0.000  0.000  0.060
    8  0.000  0.060  0.000  0.000  0.000  0.000  0.000  0.000  0.000  0.060
    9  0.000  0.015  0.000  0.045  0.000  0.000  0.000  0.000  0.000  0.060
   10  0.000  0.015  0.000  0.045  0.000  0.000  0.000  0.000  0.000  0.060
tot    0.162  0.180  0.000  0.180  0.000  0.000  0.052  0.000  0.000  0.574

band    15 # energy   -6.08146229 # occ.  1.00000000

ion      s     py     pz     px    dxy    dyz    dz2    dxz  x2-y2    tot
    1  0.000  0.000  0.051  0.000  0.000  0.000  0.000  0.000  0.000  0.051
    2  0.000  0.000  0.051  0.000  0.000  0.000  0.000  0.000  0.000  0.051
    3  0.000  0.000  0.000  0.000  0.000  0.000  0.000  0.000  0.000  0.000
    4  0.000  0.000  0.000  0.000  0.000  0.000  0.000  0.000  0.000  0.000
    5  0.000  0.075  0.000  0.000  0.000  0.000  0.000  0.000  0.000  0.075
    6  0.000  0.019  0.000  0.056  0.000  0.000  0.000  0.000  0.000  0.075
    7  0.000  0.019  0.000  0.056  0.000  0.000  0.000  0.000  0.000  0.075
    8  0.000  0.075  0.000  0.000  0.000  0.000  0.000  0.000  0.000  0.075
    9  0.000  0.019  0.000  0.056  0.000  0.000  0.000  0.000  0.000  0.075
   10  0.000  0.019  0.000  0.056  0.000  0.000  0.000  0.000  0.000  0.075
tot    0.000  0.224  0.102  0.224  0.000  0.000  0.000  0.000  0.000  0.550

band    16 # energy   -5.68651893 # occ.  1.00000000

ion      s     py     pz     px    dxy    dyz    dz2    dxz  x2-y2    tot
    1  0.000  0.000  0.000  0.000  0.006  0.006  0.000  0.091  0.098  0.201
    2  0.000  0.000  0.000  0.000  0.006  0.006  0.000  0.091  0.098  0.201
    3  0.000  0.000  0.000  0.000  0.000  0.000  0.000  0.000  0.000  0.000
    4  0.000  0.000  0.000  0.000  0.000  0.000  0.000  0.000  0.000  0.000
    5  0.000  0.004  0.020  0.012  0.000  0.000  0.000  0.000  0.000  0.036
    6  0.000  0.011  0.002  0.060  0.000  0.000  0.000  0.000  0.000  0.073
    7  0.000  0.001  0.010  0.045  0.000  0.000  0.000  0.000  0.000  0.056
    8  0.000  0.004  0.020  0.012  0.000  0.000  0.000  0.000  0.000  0.036
    9  0.000  0.011  0.002  0.060  0.000  0.000  0.000  0.000  0.000  0.073
   10  0.000  0.001  0.010  0.045  0.000  0.000  0.000  0.000  0.000  0.056
tot    0.001  0.034  0.062  0.234  0.012  0.011  0.000  0.183  0.196  0.733

band    17 # energy   -5.68650286 # occ.  1.00000000

ion      s     py     pz     px    dxy    dyz    dz2    dxz  x2-y2    tot
    1  0.000  0.000  0.000  0.000  0.098  0.091  0.000  0.006  0.006  0.201
    2  0.000  0.000  0.000  0.000  0.098  0.091  0.000  0.006  0.006  0.201
    3  0.000  0.000  0.000  0.000  0.000  0.000  0.000  0.000  0.000  0.000
    4  0.000  0.000  0.000  0.000  0.000  0.000  0.000  0.000  0.000  0.000
    5  0.000  0.072  0.001  0.001  0.000  0.000  0.000  0.000  0.000  0.074
    6  0.000  0.017  0.019  0.000  0.000  0.000  0.000  0.000  0.000  0.037
    7  0.000  0.027  0.011  0.016  0.000  0.000  0.000  0.000  0.000  0.054
    8  0.000  0.072  0.001  0.001  0.000  0.000  0.000  0.000  0.000  0.074
    9  0.000  0.017  0.019  0.000  0.000  0.000  0.000  0.000  0.000  0.037
   10  0.000  0.027  0.011  0.016  0.000  0.000  0.000  0.000  0.000  0.054
tot    0.001  0.234  0.062  0.034  0.196  0.183  0.000  0.011  0.012  0.733

band    18 # energy   -5.64717057 # occ.  1.00000000

ion      s     py     pz     px    dxy    dyz    dz2    dxz  x2-y2    tot
    1  0.000  0.000  0.000  0.003  0.065  0.051  0.000  0.002  0.003  0.125
    2  0.000  0.000  0.000  0.003  0.065  0.051  0.000  0.002  0.003  0.125
    3  0.000  0.000  0.000  0.000  0.000  0.000  0.000  0.000  0.000  0.000
    4  0.000  0.000  0.000  0.000  0.000  0.000  0.000  0.000  0.000  0.000
    5  0.005  0.000  0.110  0.006  0.000  0.000  0.000  0.000  0.000  0.121
    6  0.003  0.004  0.051  0.000  0.000  0.000  0.000  0.000  0.000  0.057
    7  0.001  0.002  0.011  0.001  0.000  0.000  0.000  0.000  0.000  0.015
    8  0.005  0.000  0.110  0.006  0.000  0.000  0.000  0.000  0.000  0.121
    9  0.003  0.004  0.051  0.000  0.000  0.000  0.000  0.000  0.000  0.057
   10  0.001  0.002  0.011  0.001  0.000  0.000  0.000  0.000  0.000  0.015
tot    0.017  0.012  0.344  0.020  0.131  0.102  0.000  0.004  0.006  0.636

band    19 # energy   -5.64714552 # occ.  1.00000000

ion      s     py     pz     px    dxy    dyz    dz2    dxz  x2-y2    tot
    1  0.000  0.003  0.000  0.000  0.003  0.002  0.000  0.051  0.065  0.125
    2  0.000  0.003  0.000  0.000  0.003  0.002  0.000  0.051  0.065  0.125
    3  0.000  0.000  0.000  0.000  0.000  0.000  0.000  0.000  0.000  0.000
    4  0.000  0.000  0.000  0.000  0.000  0.000  0.000  0.000  0.000  0.000
    5  0.000  0.002  0.005  0.000  0.000  0.000  0.000  0.000  0.000  0.007
    6  0.003  0.001  0.064  0.003  0.000  0.000  0.000  0.000  0.000  0.072
    7  0.005  0.003  0.103  0.003  0.000  0.000  0.000  0.000  0.000  0.114
    8  0.000  0.002  0.005  0.000  0.000  0.000  0.000  0.000  0.000  0.007
    9  0.003  0.001  0.064  0.003  0.000  0.000  0.000  0.000  0.000  0.072
   10  0.005  0.003  0.103  0.003  0.000  0.000  0.000  0.000  0.000  0.114
tot    0.017  0.020  0.344  0.012  0.006  0.004  0.000  0.102  0.131  0.636

band    20 # energy   -5.56350352 # occ.  1.00000000

ion      s     py     pz     px    dxy    dyz    dz2    dxz  x2-y2    tot
    1  0.013  0.000  0.000  0.000  0.000  0.000  0.098  0.000  0.000  0.111
    2  0.013  0.000  0.000  0.000  0.000  0.000  0.098  0.000  0.000  0.111
    3  0.002  0.000  0.070  0.000  0.000  0.000  0.000  0.000  0.000  0.071
    4  0.002  0.000  0.070  0.000  0.000  0.000  0.000  0.000  0.000  0.071
    5  0.001  0.000  0.027  0.010  0.000  0.000  0.000  0.000  0.000  0.038
    6  0.001  0.008  0.027  0.003  0.000  0.000  0.000  0.000  0.000  0.038
    7  0.001  0.008  0.027  0.003  0.000  0.000  0.000  0.000  0.000  0.038
    8  0.001  0.000  0.027  0.010  0.000  0.000  0.000  0.000  0.000  0.038
    9  0.001  0.008  0.027  0.003  0.000  0.000  0.000  0.000  0.000  0.038
   10  0.001  0.008  0.027  0.003  0.000  0.000  0.000  0.000  0.000  0.038
tot    0.034  0.031  0.302  0.031  0.000  0.000  0.196  0.000  0.000  0.595

band    21 # energy   -5.21484340 # occ.  1.00000000

ion      s     py     pz     px    dxy    dyz    dz2    dxz  x2-y2    tot
    1  0.000  0.000  0.010  0.000  0.000  0.000  0.000  0.000  0.000  0.010
    2  0.000  0.000  0.010  0.000  0.000  0.000  0.000  0.000  0.000  0.010
    3  0.003  0.000  0.022  0.000  0.000  0.000  0.000  0.000  0.000  0.026
    4  0.003  0.000  0.022  0.000  0.000  0.000  0.000  0.000  0.000  0.026
    5  0.000  0.000  0.071  0.000  0.000  0.000  0.000  0.000  0.000  0.071
    6  0.000  0.000  0.071  0.000  0.000  0.000  0.000  0.000  0.000  0.071
    7  0.000  0.000  0.071  0.000  0.000  0.000  0.000  0.000  0.000  0.071
    8  0.000  0.000  0.071  0.000  0.000  0.000  0.000  0.000  0.000  0.071
    9  0.000  0.000  0.071  0.000  0.000  0.000  0.000  0.000  0.000  0.071
   10  0.000  0.000  0.071  0.000  0.000  0.000  0.000  0.000  0.000  0.071
tot    0.007  0.000  0.491  0.000  0.000  0.000  0.000  0.000  0.000  0.499

band    22 # energy   -5.01881338 # occ.  1.00000000

ion      s     py     pz     px    dxy    dyz    dz2    dxz  x2-y2    tot
    1  0.000  0.018  0.000  0.002  0.000  0.001  0.000  0.005  0.001  0.027
    2  0.000  0.018  0.000  0.002  0.000  0.001  0.000  0.005  0.001  0.027
    3  0.000  0.001  0.000  0.013  0.000  0.000  0.000  0.000  0.000  0.014
    4  0.000  0.001  0.000  0.013  0.000  0.000  0.000  0.000  0.000  0.014
    5  0.007  0.001  0.114  0.016  0.000  0.000  0.000  0.000  0.000  0.139
    6  0.004  0.002  0.069  0.015  0.000  0.000  0.000  0.000  0.000  0.089
    7  0.000  0.001  0.006  0.014  0.000  0.000  0.000  0.000  0.000  0.021
    8  0.007  0.001  0.114  0.016  0.000  0.000  0.000  0.000  0.000  0.139
    9  0.004  0.002  0.069  0.015  0.000  0.000  0.000  0.000  0.000  0.089
   10  0.000  0.001  0.006  0.014  0.000  0.000  0.000  0.000  0.000  0.021
tot    0.024  0.047  0.378  0.118  0.000  0.001  0.000  0.010  0.003  0.581

band    23 # energy   -5.01879834 # occ.  1.00000000

ion      s     py     pz     px    dxy    dyz    dz2    dxz  x2-y2    tot
    1  0.000  0.002  0.000  0.018  0.001  0.005  0.000  0.001  0.000  0.027
    2  0.000  0.002  0.000  0.018  0.001  0.005  0.000  0.001  0.000  0.027
    3  0.000  0.013  0.000  0.001  0.000  0.000  0.000  0.000  0.000  0.014
    4  0.000  0.013  0.000  0.001  0.000  0.000  0.000  0.000  0.000  0.014
    5  0.001  0.014  0.011  0.002  0.000  0.000  0.000  0.000  0.000  0.028
    6  0.004  0.015  0.057  0.001  0.000  0.000  0.000  0.000  0.000  0.077
    7  0.008  0.016  0.120  0.002  0.000  0.000  0.000  0.000  0.000  0.145
    8  0.001  0.014  0.011  0.002  0.000  0.000  0.000  0.000  0.000  0.028
    9  0.004  0.015  0.057  0.001  0.000  0.000  0.000  0.000  0.000  0.077
   10  0.008  0.016  0.120  0.002  0.000  0.000  0.000  0.000  0.000  0.145
tot    0.024  0.118  0.378  0.047  0.003  0.010  0.000  0.001  0.000  0.581

band    24 # energy   -4.23331050 # occ.  1.00000000

ion      s     py     pz     px    dxy    dyz    dz2    dxz  x2-y2    tot
    1  0.000  0.003  0.000  0.013  0.021  0.027  0.000  0.006  0.005  0.076
    2  0.000  0.003  0.000  0.013  0.021  0.027  0.000  0.006  0.005  0.076
    3  0.000  0.003  0.000  0.015  0.000  0.000  0.000  0.000  0.000  0.019
    4  0.000  0.003  0.000  0.015  0.000  0.000  0.000  0.000  0.000  0.019
    5  0.003  0.020  0.000  0.036  0.000  0.000  0.000  0.000  0.000  0.059
    6  0.000  0.023  0.000  0.087  0.000  0.000  0.000  0.000  0.000  0.109
    7  0.002  0.003  0.000  0.062  0.000  0.000  0.000  0.000  0.000  0.067
    8  0.003  0.020  0.000  0.036  0.000  0.000  0.000  0.000  0.000  0.059
    9  0.000  0.023  0.000  0.087  0.000  0.000  0.000  0.000  0.000  0.109
   10  0.002  0.003  0.000  0.062  0.000  0.000  0.000  0.000  0.000  0.067
tot    0.011  0.104  0.000  0.426  0.043  0.054  0.000  0.012  0.010  0.659

band    25 # energy   -4.23327507 # occ.  1.00000000

ion      s     py     pz     px    dxy    dyz    dz2    dxz  x2-y2    tot
    1  0.000  0.013  0.000  0.003  0.005  0.006  0.000  0.027  0.021  0.076
    2  0.000  0.013  0.000  0.003  0.005  0.006  0.000  0.027  0.021  0.076
    3  0.000  0.015  0.000  0.003  0.000  0.000  0.000  0.000  0.000  0.019
    4  0.000  0.015  0.000  0.003  0.000  0.000  0.000  0.000  0.000  0.019
    5  0.001  0.090  0.000  0.008  0.000  0.000  0.000  0.000  0.000  0.098
    6  0.004  0.037  0.000  0.006  0.000  0.000  0.000  0.000  0.000  0.048
    7  0.001  0.057  0.000  0.031  0.000  0.000  0.000  0.000  0.000  0.090
    8  0.001  0.090  0.000  0.008  0.000  0.000  0.000  0.000  0.000  0.098
    9  0.004  0.037  0.000  0.006  0.000  0.000  0.000  0.000  0.000  0.048
   10  0.001  0.057  0.000  0.031  0.000  0.000  0.000  0.000  0.000  0.090
tot    0.011  0.426  0.000  0.104  0.010  0.012  0.000  0.054  0.043  0.659

band    26 # energy   -3.44106834 # occ.  1.00000000

ion      s     py     pz     px    dxy    dyz    dz2    dxz  x2-y2    tot
    1  0.000  0.000  0.000  0.000  0.101  0.104  0.000  0.111  0.108  0.425
    2  0.000  0.000  0.000  0.000  0.101  0.104  0.000  0.111  0.108  0.425
    3  0.000  0.003  0.000  0.003  0.000  0.000  0.000  0.000  0.000  0.007
    4  0.000  0.003  0.000  0.003  0.000  0.000  0.000  0.000  0.000  0.007
    5  0.000  0.000  0.002  0.000  0.000  0.000  0.000  0.000  0.000  0.003
    6  0.000  0.000  0.004  0.000  0.000  0.000  0.000  0.000  0.000  0.004
    7  0.000  0.000  0.000  0.000  0.000  0.000  0.000  0.000  0.000  0.001
    8  0.000  0.000  0.002  0.000  0.000  0.000  0.000  0.000  0.000  0.003
    9  0.000  0.000  0.004  0.000  0.000  0.000  0.000  0.000  0.000  0.004
   10  0.000  0.000  0.000  0.000  0.000  0.000  0.000  0.000  0.000  0.001
tot    0.000  0.009  0.013  0.009  0.202  0.207  0.000  0.223  0.217  0.880

band    27 # energy   -3.44106520 # occ.  1.00000000

ion      s     py     pz     px    dxy    dyz    dz2    dxz  x2-y2    tot
    1  0.000  0.000  0.000  0.000  0.108  0.111  0.000  0.104  0.101  0.425
    2  0.000  0.000  0.000  0.000  0.108  0.111  0.000  0.104  0.101  0.425
    3  0.000  0.003  0.000  0.003  0.000  0.000  0.000  0.000  0.000  0.007
    4  0.000  0.003  0.000  0.003  0.000  0.000  0.000  0.000  0.000  0.007
    5  0.000  0.000  0.002  0.000  0.000  0.000  0.000  0.000  0.000  0.003
    6  0.000  0.000  0.000  0.000  0.000  0.000  0.000  0.000  0.000  0.001
    7  0.000  0.000  0.004  0.000  0.000  0.000  0.000  0.000  0.000  0.005
    8  0.000  0.000  0.002  0.000  0.000  0.000  0.000  0.000  0.000  0.003
    9  0.000  0.000  0.000  0.000  0.000  0.000  0.000  0.000  0.000  0.001
   10  0.000  0.000  0.004  0.000  0.000  0.000  0.000  0.000  0.000  0.005
tot    0.000  0.009  0.013  0.009  0.217  0.223  0.000  0.207  0.202  0.880

band    28 # energy   -3.09643530 # occ.  1.00000000

ion      s     py     pz     px    dxy    dyz    dz2    dxz  x2-y2    tot
    1  0.011  0.000  0.000  0.000  0.000  0.000  0.331  0.000  0.000  0.343
    2  0.011  0.000  0.000  0.000  0.000  0.000  0.331  0.000  0.000  0.343
    3  0.002  0.000  0.016  0.000  0.000  0.000  0.000  0.000  0.000  0.018
    4  0.002  0.000  0.016  0.000  0.000  0.000  0.000  0.000  0.000  0.018
    5  0.002  0.000  0.015  0.000  0.000  0.000  0.000  0.000  0.000  0.017
    6  0.002  0.000  0.015  0.000  0.000  0.000  0.000  0.000  0.000  0.017
    7  0.002  0.000  0.015  0.000  0.000  0.000  0.000  0.000  0.000  0.017
    8  0.002  0.000  0.015  0.000  0.000  0.000  0.000  0.000  0.000  0.017
    9  0.002  0.000  0.015  0.000  0.000  0.000  0.000  0.000  0.000  0.017
   10  0.002  0.000  0.015  0.000  0.000  0.000  0.000  0.000  0.000  0.017
tot    0.038  0.000  0.122  0.000  0.000  0.000  0.663  0.000  0.000  0.824

band    29 # energy   -3.05992402 # occ.  1.00000000

ion      s     py     pz     px    dxy    dyz    dz2    dxz  x2-y2    tot
    1  0.011  0.000  0.000  0.000  0.000  0.000  0.438  0.000  0.000  0.450
    2  0.011  0.000  0.000  0.000  0.000  0.000  0.438  0.000  0.000  0.450
    3  0.000  0.000  0.000  0.000  0.000  0.000  0.000  0.000  0.000  0.000
    4  0.000  0.000  0.000  0.000  0.000  0.000  0.000  0.000  0.000  0.000
    5  0.000  0.004  0.000  0.000  0.000  0.000  0.000  0.000  0.000  0.004
    6  0.000  0.001  0.000  0.003  0.000  0.000  0.000  0.000  0.000  0.004
    7  0.000  0.001  0.000  0.003  0.000  0.000  0.000  0.000  0.000  0.004
    8  0.000  0.004  0.000  0.000  0.000  0.000  0.000  0.000  0.000  0.004
    9  0.000  0.001  0.000  0.003  0.000  0.000  0.000  0.000  0.000  0.004
   10  0.000  0.001  0.000  0.003  0.000  0.000  0.000  0.000  0.000  0.004
tot    0.022  0.011  0.000  0.011  0.000  0.000  0.877  0.000  0.000  0.922

band    30 # energy   -2.96227442 # occ.  1.00000000

ion      s     py     pz     px    dxy    dyz    dz2    dxz  x2-y2    tot
    1  0.000  0.001  0.000  0.002  0.206  0.074  0.000  0.024  0.067  0.374
    2  0.000  0.001  0.000  0.002  0.206  0.074  0.000  0.024  0.067  0.374
    3  0.000  0.001  0.000  0.004  0.000  0.000  0.000  0.000  0.000  0.005
    4  0.000  0.001  0.000  0.004  0.000  0.000  0.000  0.000  0.000  0.005
    5  0.000  0.007  0.005  0.003  0.000  0.000  0.000  0.000  0.000  0.015
    6  0.000  0.000  0.005  0.010  0.000  0.000  0.000  0.000  0.000  0.015
    7  0.000  0.007  0.000  0.022  0.000  0.000  0.000  0.000  0.000  0.030
    8  0.000  0.007  0.005  0.003  0.000  0.000  0.000  0.000  0.000  0.015
    9  0.000  0.000  0.005  0.010  0.000  0.000  0.000  0.000  0.000  0.015
   10  0.000  0.007  0.000  0.022  0.000  0.000  0.000  0.000  0.000  0.030
tot    0.001  0.033  0.020  0.081  0.412  0.149  0.000  0.048  0.134  0.878

band    31 # energy   -2.96226485 # occ.  1.00000000

ion      s     py     pz     px    dxy    dyz    dz2    dxz  x2-y2    tot
    1  0.000  0.002  0.000  0.001  0.067  0.024  0.000  0.074  0.206  0.374
    2  0.000  0.002  0.000  0.001  0.067  0.024  0.000  0.074  0.206  0.374
    3  0.000  0.004  0.000  0.001  0.000  0.000  0.000  0.000  0.000  0.005
    4  0.000  0.004  0.000  0.001  0.000  0.000  0.000  0.000  0.000  0.005
    5  0.000  0.022  0.002  0.001  0.000  0.000  0.000  0.000  0.000  0.025
    6  0.000  0.010  0.002  0.013  0.000  0.000  0.000  0.000  0.000  0.025
    7  0.000  0.003  0.007  0.001  0.000  0.000  0.000  0.000  0.000  0.010
    8  0.000  0.022  0.002  0.001  0.000  0.000  0.000  0.000  0.000  0.025
    9  0.000  0.010  0.002  0.013  0.000  0.000  0.000  0.000  0.000  0.025