<?xml version="1.0" encoding="ISO-8859-1"?>
<modeling>
 <generator>
  <i name="program" type="string">vasp </i>
  <i name="version" type="string">5.4.4.18Apr17-6-g9f103f2a35  </i>
  <i name="subversion" type="string">(build May  1 2020 15:48:39) complex            parallel </i>
  <i name="platform" type="string">LinuxGNU </i>
  <i name="date" type="string">2020 06 22 </i>
  <i name="time" type="string">07:51:19 </i>
 </generator>
 <incar>
  <i type="int" name="ISTART">     1</i>
  <i type="string" name="PREC">accurate</i>
  <i type="string" name="ALGO"> Normal</i>
  <i type="int" name="ISPIN">     2</i>
  <i name="AMIN">      0.01000000</i>
  <i type="int" name="NELM">   400</i>
  <i type="int" name="IBRION">     2</i>
  <i name="EDIFF">      0.00010000</i>
  <i type="int" name="NSW">    99</i>
  <i type="int" name="ISIF">     3</i>
  <i name="ENCUT">    520.00000000</i>
  <v name="MAGMOM">      5.00000000      5.00000000      0.60000000      0.60000000      0.60000000      0.60000000      0.60000000      0.60000000      0.60000000      0.60000000</v>
  <i type="string" name="LREAL"> Auto</i>
  <i type="int" name="ISMEAR">    -5</i>
  <i name="SIGMA">      0.05000000</i>
  <i type="logical" name="LWAVE"> F  </i>
  <i type="int" name="LORBIT">    11</i>
  <v type="int" name="KPOINT_BSE">    -1     0     0     0</v>
  <i type="int" name="NELM">   400</i>
  <i type="string" name="GGA"> Bo</i>
  <i name="PARAM1">      0.18333333</i>
  <i name="PARAM2">      0.22000000</i>
  <i type="logical" name="LUSE_VDW"> T  </i>
  <i name="AGGAC">      0.00000000</i>
 </incar>
 <structure name="primitive_cell" >
  <crystal>
   <varray name="basis" >
    <v>       6.90777700      -0.00000000       0.00000000 </v>
    <v>       3.45388800       5.98231000       0.00000000 </v>
    <v>       0.00000000       0.00000000      23.44458800 </v>
   </varray>
   <i name="volume">    968.83501932 </i>
   <varray name="rec_basis" >
    <v>       0.14476437      -0.08357974       0.00000000 </v>
    <v>       0.00000000       0.16715951      -0.00000000 </v>
    <v>      -0.00000000       0.00000000       0.04265377 </v>
   </varray>
  </crystal>
  <varray name="positions" >
   <v>       0.33333300       0.33333300       0.49992500 </v>
   <v>       0.00042000       0.37322400      -0.42624800 </v>
   <v>      -0.37364300       0.00042000      -0.42624800 </v>
   <v>       0.37322400      -0.37364300      -0.42624800 </v>
   <v>       0.37364300      -0.00042000       0.42624800 </v>
   <v>      -0.37322400       0.37364300       0.42624800 </v>
   <v>      -0.00042000      -0.37322400       0.42624800 </v>
   <v>      -0.33333300      -0.33333300      -0.49992500 </v>
   <v>       0.00000000       0.00000000       0.44821600 </v>
   <v>       0.00000000       0.00000000      -0.44821600 </v>
  </varray>
 </structure>
 <varray name="primitive_index" >
  <v type="int" >        1 </v>
  <v type="int" >        6 </v>
  <v type="int" >        5 </v>
  <v type="int" >        7 </v>
  <v type="int" >        8 </v>
  <v type="int" >       10 </v>
  <v type="int" >        9 </v>
  <v type="int" >        2 </v>
  <v type="int" >        3 </v>
  <v type="int" >        4 </v>
 </varray>
 <kpoints>
  <generation param="Gamma">
   <v type="int" name="divisions">       5        5        1 </v>
   <v name="usershift">      0.00000000       0.00000000       0.00000000 </v>
   <v name="genvec1">      0.20000000       0.00000000       0.00000000 </v>
   <v name="genvec2">      0.00000000       0.20000000       0.00000000 </v>
   <v name="genvec3">      0.00000000       0.00000000       1.00000000 </v>
   <v name="shift">      0.00000000       0.00000000       0.00000000 </v>
  </generation>
  <varray name="kpointlist" >
   <v>       0.00000000       0.00000000       0.00000000 </v>
   <v>       0.20000000       0.00000000       0.00000000 </v>
   <v>       0.40000000       0.00000000       0.00000000 </v>
   <v>       0.40000000       0.20000000       0.00000000 </v>
   <v>      -0.40000000       0.20000000       0.00000000 </v>
  </varray>
  <varray name="weights" >
   <v>       0.04000000 </v>
   <v>       0.24000000 </v>
   <v>       0.24000000 </v>
   <v>       0.24000000 </v>
   <v>       0.24000000 </v>
  </varray>
  <varray name="tetrahedronlist"  type="int" >
   <v type="int" >        6        1        1        2        2 </v>
   <v type="int" >       12        1        2        2        2 </v>
   <v type="int" >       12        2        2        3        4 </v>
   <v type="int" >       12        2        2        2        4 </v>
   <v type="int" >       12        2        3        3        4 </v>
   <v type="int" >       12        2        3        4        4 </v>
   <v type="int" >        6        2        2        4        4 </v>
   <v type="int" >       12        3        3        3        5 </v>
   <v type="int" >       12        3        3        4        5 </v>
   <v type="int" >       12        3        4        4        5 </v>
   <v type="int" >        6        3        3        5        5 </v>
   <v type="int" >       12        3        4        5        5 </v>
   <v type="int" >        6        4        4        5        5 </v>
   <v type="int" >       12        4        5        5        5 </v>
   <v type="int" >        6        5        5        5        5 </v>
  </varray>
  <i name="volumeweight">      0.00666667 </i>
 </kpoints>
 <parameters>
  <separator name="general" >
   <i type="string" name="SYSTEM">unknown system</i>
   <i type="logical" name="LCOMPAT"> F  </i>
  </separator>
  <separator name="electronic" >
   <i type="string" name="PREC">accura</i>
   <i name="ENMAX">    520.00000000</i>
   <i name="ENAUG">    402.10800000</i>
   <i name="EDIFF">      0.00010000</i>
   <i type="int" name="IALGO">    38</i>
   <i type="int" name="IWAVPR">    11</i>
   <i type="int" name="NBANDS">    48</i>
   <i name="NELECT">     58.00000000</i>
   <i type="int" name="TURBO">     0</i>
   <i type="int" name="IRESTART">     0</i>
   <i type="int" name="NREBOOT">     0</i>
   <i type="int" name="NMIN">     0</i>
   <i name="EREF">      0.00000000</i>
   <separator name="electronic smearing" >
    <i type="int" name="ISMEAR">    -5</i>
    <i name="SIGMA">      0.05000000</i>
    <i name="KSPACING">      0.50000000</i>
    <i type="logical" name="KGAMMA"> T  </i>
   </separator>
   <separator name="electronic projectors" >
    <i type="logical" name="LREAL"> T  </i>
    <v name="ROPT">     -0.00025000     -0.00025000     -0.00025000</v>
    <i type="int" name="LMAXPAW">  -100</i>
    <i type="int" name="LMAXMIX">     2</i>
    <i type="logical" name="NLSPLINE"> F  </i>
   </separator>
   <separator name="electronic startup" >
    <i type="int" name="ISTART">     0</i>
    <i type="int" name="ICHARG">     2</i>
    <i type="int" name="INIWAV">     1</i>
   </separator>
   <separator name="electronic spin" >
    <i type="int" name="ISPIN">     2</i>
    <i type="logical" name="LNONCOLLINEAR"> F  </i>
    <v name="MAGMOM">      5.00000000      5.00000000      0.60000000      0.60000000      0.60000000      0.60000000      0.60000000      0.60000000      0.60000000      0.60000000</v>
    <i name="NUPDOWN">     -1.00000000</i>
    <i type="logical" name="LSORBIT"> F  </i>
    <v name="SAXIS">      0.00000000      0.00000000      1.00000000</v>
    <i type="logical" name="LSPIRAL"> F  </i>
    <v name="QSPIRAL">      0.00000000      0.00000000      0.00000000</v>
    <i type="logical" name="LZEROZ"> F  </i>
   </separator>
   <separator name="electronic exchange-correlation" >
    <i type="logical" name="LASPH"> F  </i>
    <i type="logical" name="LMETAGGA"> F  </i>
   </separator>
   <separator name="electronic convergence" >
    <i type="int" name="NELM">   400</i>
    <i type="int" name="NELMDL">     0</i>
    <i type="int" name="NELMIN">     2</i>
    <i name="ENINI">    520.00000000</i>
    <separator name="electronic convergence detail" >
     <i type="logical" name="LDIAG"> T  </i>
     <i type="logical" name="LSUBROT"> F  </i>
     <i name="WEIMIN">      0.00100000</i>
     <i name="EBREAK">      0.00000052</i>
     <i name="DEPER">      0.30000000</i>
     <i type="int" name="NRMM">     4</i>
     <i name="TIME">      0.40000000</i>
    </separator>
   </separator>
   <separator name="electronic mixer" >
    <i name="AMIX">      0.40000000</i>
    <i name="BMIX">      1.00000000</i>
    <i name="AMIN">      0.01000000</i>
    <i name="AMIX_MAG">      1.60000000</i>
    <i name="BMIX_MAG">      1.00000000</i>
    <separator name="electronic mixer details" >
     <i type="int" name="IMIX">     4</i>
     <i type="logical" name="MIXFIRST"> F  </i>
     <i type="int" name="MAXMIX">   -45</i>
     <i name="WC">    100.00000000</i>
     <i type="int" name="INIMIX">     1</i>
     <i type="int" name="MIXPRE">     1</i>
     <i type="int" name="MREMOVE">     5</i>
    </separator>
   </separator>
   <separator name="electronic dipolcorrection" >
    <i type="logical" name="LDIPOL"> F  </i>
    <i type="logical" name="LMONO"> F  </i>
    <i type="int" name="IDIPOL">     0</i>
    <i name="EPSILON">      1.00000000</i>
    <v name="DIPOL">   -100.00000000   -100.00000000   -100.00000000</v>
    <i name="EFIELD">      0.00000000</i>
   </separator>
  </separator>
  <separator name="grids" >
   <i type="int" name="NGX">    54</i>
   <i type="int" name="NGY">    54</i>
   <i type="int" name="NGZ">   180</i>
   <i type="int" name="NGXF">   108</i>
   <i type="int" name="NGYF">   108</i>
   <i type="int" name="NGZF">   360</i>
   <i type="logical" name="ADDGRID"> F  </i>
  </separator>
  <separator name="ionic" >
   <i type="int" name="NSW">    99</i>
   <i type="int" name="IBRION">     2</i>
   <i type="int" name="MDALGO">     0</i>
   <i type="int" name="ISIF">     3</i>
   <i name="PSTRESS">      0.00000000</i>
   <i name="EDIFFG">      0.00100000</i>
   <i type="int" name="NFREE">     1</i>
   <i name="POTIM">      0.50000000</i>
   <i name="SMASS">     -3.00000000</i>
   <i name="SCALEE">      1.00000000</i>
  </separator>
  <separator name="ionic md" >
   <i name="TEBEG">      0.00010000</i>
   <i name="TEEND">      0.00010000</i>
   <i type="int" name="NBLOCK">     1</i>
   <i type="int" name="KBLOCK">    99</i>
   <i type="int" name="NPACO">   256</i>
   <i name="APACO">     16.00000000</i>
  </separator>
  <separator name="symmetry" >
   <i type="int" name="ISYM">     2</i>
   <i name="SYMPREC">      0.00001000</i>
  </separator>
  <separator name="dos" >
   <i type="int" name="LORBIT">    11</i>
   <v name="RWIGS">     -1.00000000     -1.00000000     -1.00000000</v>
   <i type="int" name="NEDOS">   301</i>
   <i name="EMIN">     10.00000000</i>
   <i name="EMAX">    -10.00000000</i>
   <i name="EFERMI">      0.00000000</i>
  </separator>
  <separator name="writing" >
   <i type="int" name="NWRITE">     2</i>
   <i type="logical" name="LWAVE"> F  </i>
   <i type="logical" name="LDOWNSAMPLE"> F  </i>
   <i type="logical" name="LCHARG"> T  </i>
   <i type="logical" name="LPARD"> F  </i>
   <i type="logical" name="LVTOT"> F  </i>
   <i type="logical" name="LVHAR"> F  </i>
   <i type="logical" name="LELF"> F  </i>
   <i type="logical" name="LOPTICS"> F  </i>
   <v name="STM">      0.00000000      0.00000000      0.00000000      0.00000000      0.00000000      0.00000000      0.00000000</v>
  </separator>
  <separator name="performance" >
   <i type="int" name="NPAR">    16</i>
   <i type="int" name="NSIM">     4</i>
   <i type="int" name="NBLK">    -1</i>
   <i type="logical" name="LPLANE"> T  </i>
   <i type="logical" name="LSCALAPACK"> T  </i>
   <i type="logical" name="LSCAAWARE"> F  </i>
   <i type="logical" name="LSCALU"> F  </i>
   <i type="logical" name="LASYNC"> F  </i>
   <i type="logical" name="LORBITALREAL"> F  </i>
  </separator>
  <separator name="miscellaneous" >
   <i type="int" name="IDIOT">     3</i>
   <i type="int" name="ISPECIAL">     0</i>
   <i type="logical" name="LMUSIC"> F  </i>
   <v name="POMASS">     51.99600000     30.97400000     32.06600000</v>
   <v name="DARWINR">      0.00000000      0.00000000      0.00000000</v>
   <v name="DARWINV">      1.00000000      1.00000000      1.00000000</v>
   <i type="logical" name="LCORR"> T  </i>
  </separator>
  <i type="logical" name="GGA_COMPAT"> T  </i>
  <i type="logical" name="LBERRY"> F  </i>
  <i type="int" name="ICORELEVEL">     0</i>
  <i type="logical" name="LDAU"> F  </i>
  <i type="int" name="I_CONSTRAINED_M">     0</i>
  <separator name="electronic exchange-correlation" >
   <i type="string" name="GGA">BO</i>
   <i type="int" name="VOSKOWN">     0</i>
   <i type="logical" name="LHFCALC"> F  </i>
   <i type="string" name="PRECFOCK"></i>
   <i type="logical" name="LSYMGRAD"> F  </i>
   <i type="logical" name="LHFONE"> F  </i>
   <i type="logical" name="LRHFCALC"> F  </i>
   <i type="logical" name="LTHOMAS"> F  </i>
   <i type="logical" name="LMODELHF"> F  </i>
   <i name="ENCUT4O">     -1.00000000</i>
   <i type="int" name="EXXOEP">     0</i>
   <i type="int" name="FOURORBIT">     0</i>
   <i name="AEXX">      0.00000000</i>
   <i name="HFALPHA">      0.00000000</i>
   <i name="MCALPHA">      0.00000000</i>
   <i name="ALDAX">      1.00000000</i>
   <i name="AGGAX">      1.00000000</i>
   <i name="ALDAC">      1.00000000</i>
   <i name="AGGAC">      0.00000000</i>
   <i type="int" name="NKREDX">     1</i>
   <i type="int" name="NKREDY">     1</i>
   <i type="int" name="NKREDZ">     1</i>
   <i type="logical" name="SHIFTRED"> F  </i>
   <i type="logical" name="ODDONLY"> F  </i>
   <i type="logical" name="EVENONLY"> F  </i>
   <i type="int" name="LMAXFOCK">     0</i>
   <i type="int" name="NMAXFOCKAE">     0</i>
   <i type="logical" name="LFOCKAEDFT"> F  </i>
   <i name="HFSCREEN">      0.00000000</i>
   <i name="HFSCREENC">      0.00000000</i>
   <i type="int" name="NBANDSGWLOW">     0</i>
  </separator>
  <separator name="vdW DFT" >
   <i type="logical" name="LUSE_VDW"> T  </i>
   <i name="Zab_VDW">     -0.84910000</i>
   <i name="PARAM1">      0.18333333</i>
   <i name="PARAM2">      0.22000000</i>
   <i name="PARAM3">      0.00000000</i>
  </separator>
  <separator name="model GW" >
   <i type="int" name="MODEL_GW">     0</i>
   <i name="MODEL_EPS0">     58.13010116</i>
   <i name="MODEL_ALPHA">      1.00000000</i>
  </separator>
  <separator name="linear response parameters" >
   <i type="logical" name="LEPSILON"> F  </i>
   <i type="logical" name="LRPA"> F  </i>
   <i type="logical" name="LNABLA"> F  </i>
   <i type="logical" name="LVEL"> F  </i>
   <i type="int" name="KINTER">     0</i>
   <i name="CSHIFT">      0.10000000</i>
   <i name="OMEGAMAX">     -1.00000000</i>
   <i name="DEG_THRESHOLD">      0.00200000</i>
   <i name="RTIME">     -0.10000000</i>
   <i name="WPLASMAI">      0.00000000</i>
   <v name="DFIELD">      0.00000000      0.00000000      0.00000000</v>
   <v name="WPLASMA">      0.00000000      0.00000000      0.00000000      0.00000000      0.00000000      0.00000000      0.00000000      0.00000000      0.00000000</v>
  </separator>
  <separator name="orbital magnetization" >
   <i type="logical" name="NUCIND"> F  </i>
   <v name="MAGPOS">      0.00000000      0.00000000      0.00000000</v>
   <i type="logical" name="LNICSALL"> T  </i>
   <i type="logical" name="ORBITALMAG"> F  </i>
   <i type="logical" name="LMAGBLOCH"> F  </i>
   <i type="logical" name="LCHIMAG"> F  </i>
   <i type="logical" name="LGAUGE"> T  </i>
   <i type="int" name="MAGATOM">     0</i>
   <v name="MAGDIPOL">      0.00000000      0.00000000      0.00000000</v>
   <v name="AVECCONST">      0.00000000      0.00000000      0.00000000</v>
  </separator>
  <separator name="response functions" >
   <i type="logical" name="LADDER"> F  </i>
   <i type="logical" name="LRPAFORCE"> F  </i>
   <i type="logical" name="LFXC"> F  </i>
   <i type="logical" name="LHARTREE"> T  </i>
   <i type="int" name="IBSE">     0</i>
   <v type="int" name="KPOINT">    -1     0     0     0</v>
   <i type="logical" name="LTCTE"> F  </i>
   <i type="logical" name="LTETE"> F  </i>
   <i type="logical" name="LTRIPLET"> F  </i>
   <i type="logical" name="LFXCEPS"> F  </i>
   <i type="logical" name="LFXHEG"> F  </i>
   <i type="int" name="NATURALO">     2</i>
   <i type="logical" name="L2ORDER"> F  </i>
   <i type="logical" name="LMP2LT"> F  </i>
   <i type="logical" name="LUSEW"> F  </i>
   <i name="ENCUTGW">     -2.00000000</i>
   <i name="ENCUTGWSOFT">     -2.00000000</i>
   <i name="ENCUTLF">     -1.00000000</i>
   <i type="int" name="LMAXMP2">    -1</i>
   <i name="SCISSOR">      0.00000000</i>
   <i type="int" name="NOMEGA">     0</i>
   <i type="int" name="NOMEGAR">     0</i>
   <i type="int" name="NBANDSGW">    -1</i>
   <i type="int" name="NBANDSO">    -1</i>
   <i type="int" name="NBANDSV">    -1</i>
   <i type="int" name="NELM">   400</i>
   <i type="int" name="NELMHF">     1</i>
   <i type="int" name="DIM">     3</i>
   <i type="int" name="ANTIRES">     0</i>
   <i name="OMEGAMAX">    -30.00000000</i>
   <i name="OMEGAMIN">    -30.00000000</i>
   <i name="OMEGATL">   -200.00000000</i>
   <i type="int" name="OMEGAGRID">   140</i>
   <i name="CSHIFT">     -0.10000000</i>
   <i type="logical" name="SELFENERGY"> F  </i>
   <i type="logical" name="LSPECTRAL"> F  </i>
   <i type="logical" name="LSPECTRALGW"> F  </i>
   <i type="logical" name="LSINGLES"> F  </i>
   <i type="logical" name="LFERMIGW"> F  </i>
   <i type="logical" name="ODDONLYGW"> F  </i>
   <i type="logical" name="EVENONLYGW"> F  </i>
   <i type="int" name="NKREDLFX">     1</i>
   <i type="int" name="NKREDLFY">     1</i>
   <i type="int" name="NKREDLFZ">     1</i>
   <i type="int" name="MAXMEM">  2800</i>
   <i type="int" name="TELESCOPE">     0</i>
   <i type="int" name="TAUPAR">     1</i>
   <i type="int" name="OMEGAPAR">    -1</i>
   <i name="LAMBDA">      1.00000000</i>
  </separator>
  <separator name="External order field" >
   <i name="OFIELD_KAPPA">      0.00000000</i>
   <v name="OFIELD_K">      0.00000000      0.00000000      0.00000000</v>
   <i name="OFIELD_Q6_NEAR">      0.00000000</i>
   <i name="OFIELD_Q6_FAR">      0.00000000</i>
   <i name="OFIELD_A">      0.00000000</i>
  </separator>
 </parameters>
 <atominfo>
  <atoms>      10 </atoms>
  <types>       3 </types>
  <array name="atoms" >
   <dimension dim="1">ion</dimension>
   <field type="string">element</field>
   <field type="int">atomtype</field>
   <set>
    <rc><c>Cr</c><c>   1</c></rc>
    <rc><c>Cr</c><c>   1</c></rc>
    <rc><c>P </c><c>   2</c></rc>
    <rc><c>P </c><c>   2</c></rc>
    <rc><c>S </c><c>   3</c></rc>
    <rc><c>S </c><c>   3</c></rc>
    <rc><c>S </c><c>   3</c></rc>
    <rc><c>S </c><c>   3</c></rc>
    <rc><c>S </c><c>   3</c></rc>
    <rc><c>S </c><c>   3</c></rc>
   </set>
  </array>
  <array name="atomtypes" >
   <dimension dim="1">type</dimension>
   <field type="int">atomspertype</field>
   <field type="string">element</field>
   <field>mass</field>
   <field>valence</field>
   <field type="string">pseudopotential</field>
   <set>
    <rc><c>   2</c><c>Cr</c><c>     51.99600000</c><c>      6.00000000</c><c> PAW_PBE Cr 06Sep2000                   </c></rc>
    <rc><c>   2</c><c>P </c><c>     30.97400000</c><c>      5.00000000</c><c>  PAW_PBE P 17Jan2003                   </c></rc>
    <rc><c>   6</c><c>S </c><c>     32.06600000</c><c>      6.00000000</c><c>  PAW_PBE S 17Jan2003                   </c></rc>
   </set>
  </array>
 </atominfo>
 <structure name="initialpos" >
  <crystal>
   <varray name="basis" >
    <v>       6.90777700      -0.00000000       0.00000000 </v>
    <v>       3.45388800       5.98231000       0.00000000 </v>
    <v>       0.00000000       0.00000000      23.44458800 </v>
   </varray>
   <i name="volume">    968.83501932 </i>
   <varray name="rec_basis" >
    <v>       0.14476437      -0.08357974       0.00000000 </v>
    <v>       0.00000000       0.16715951      -0.00000000 </v>
    <v>      -0.00000000       0.00000000       0.04265377 </v>
   </varray>
  </crystal>
  <varray name="positions" >
   <v>       0.33333300       0.33333300       0.49992500 </v>
   <v>       0.66666700       0.66666700       0.50007500 </v>
   <v>       0.00000000       0.00000000       0.44821600 </v>
   <v>       0.00000000       0.00000000       0.55178400 </v>
   <v>       0.62635700       0.00042000       0.57375200 </v>
   <v>       0.00042000       0.37322400       0.57375200 </v>
   <v>       0.37322400       0.62635700       0.57375200 </v>
   <v>       0.37364300       0.99958000       0.42624800 </v>
   <v>       0.99958000       0.62677600       0.42624800 </v>
   <v>       0.62677600       0.37364300       0.42624800 </v>
  </varray>
  <varray name="selective"  type="logical" >
   <v type="logical" >  F  F  F </v>
   <v type="logical" >  F  F  F </v>
   <v type="logical" >  T  T  T </v>
   <v type="logical" >  T  T  T </v>
   <v type="logical" >  T  T  T </v>
   <v type="logical" >  T  T  T </v>
   <v type="logical" >  T  T  T </v>
   <v type="logical" >  T  T  T </v>
   <v type="logical" >  T  T  T </v>
   <v type="logical" >  T  T  T </v>
  </varray>
  <nose>
   <v>      -3.00000000       0.00000000       0.00010000       0.00010000 </v>
  </nose>
 </structure>
 <calculation>
  <scstep>
   <time name="dav">   22.03   22.45</time>
   <time name="total">   75.10   75.69</time>
   <energy>
    <i name="alphaZ">     19.68084336 </i>
    <i name="ewald">   6462.22987265 </i>
    <i name="hartreedc">  -8734.63455163 </i>
    <i name="XCdc">     36.22474051 </i>
    <i name="pawpsdc">   1138.83269552 </i>
    <i name="pawaedc">  -1058.37746592 </i>
    <i name="eentropy">      0.00000000 </i>
    <i name="bandstr">    -16.22908126 </i>
    <i name="atom">   2576.47363623 </i>
    <i name="e_fr_energy">    424.20068947 </i>
    <i name="e_wo_entrp">    424.20068947 </i>
    <i name="e_0_energy">    424.20068947 </i>
   </energy>
  </scstep>
  <scstep>
   <time name="dav">   26.36   26.50</time>
   <time name="total">   26.37   26.50</time>
   <energy>
    <i name="e_fr_energy">     41.05430381 </i>
    <i name="e_wo_entrp">     41.05430381 </i>
    <i name="e_0_energy">     41.05430381 </i>
   </energy>
  </scstep>
  <scstep>
   <time name="dav">   30.64   32.17</time>
   <time name="total">   30.64   32.17</time>
   <energy>
    <i name="e_fr_energy">    -49.90056648 </i>
    <i name="e_wo_entrp">    -49.90056648 </i>
    <i name="e_0_energy">    -49.90056648 </i>
   </energy>
  </scstep>
  <scstep>
   <time name="dav">   29.91   30.03</time>
   <time name="total">   29.92   30.04</time>
   <energy>
    <i name="e_fr_energy">    -54.83182481 </i>
    <i name="e_wo_entrp">    -54.83182481 </i>
    <i name="e_0_energy">    -54.83182481 </i>
   </energy>
  </scstep>
  <scstep>
   <time name="dav">   31.23   31.81</time>
   <time name="total">   33.27   33.85</time>
   <energy>
    <i name="e_fr_energy">    -54.95875391 </i>
    <i name="e_wo_entrp">    -54.95875391 </i>
    <i name="e_0_energy">    -54.95875391 </i>
   </energy>
  </scstep>
  <scstep>
   <time name="dav">   30.26   30.61</time>
   <time name="total">   84.30   85.06</time>
   <energy>
    <i name="e_fr_energy">   -127.27199216 </i>
    <i name="e_wo_entrp">   -127.27199216 </i>
    <i name="e_0_energy">   -127.27199216 </i>
   </energy>
  </scstep>
  <scstep>
   <time name="dav">   26.53   26.64</time>
   <time name="total">   80.12   80.56</time>
   <energy>
    <i name="e_fr_energy">    -43.25556737 </i>
    <i name="e_wo_entrp">    -43.25556737 </i>
    <i name="e_0_energy">    -43.25556737 </i>
   </energy>
  </scstep>
  <scstep>
   <time name="dav">   27.50   28.35</time>
   <time name="total">   81.09   82.51</time>
   <energy>
    <i name="e_fr_energy">    -44.35748314 </i>
    <i name="e_wo_entrp">    -44.35748314 </i>
    <i name="e_0_energy">    -44.35748314 </i>
   </energy>
  </scstep>
  <scstep>
   <time name="dav">   31.14   32.24</time>
   <time name="total">   83.66   86.16</time>
   <energy>
    <i name="e_fr_energy">    -46.40920703 </i>
    <i name="e_wo_entrp">    -46.40920703 </i>
    <i name="e_0_energy">    -46.40920703 </i>
   </energy>
  </scstep>
  <scstep>
   <time name="dav">   31.74   32.05</time>
   <time name="total">   84.70   85.25</time>
   <energy>
    <i name="e_fr_energy">    -46.96078821 </i>
    <i name="e_wo_entrp">    -46.96078821 </i>
    <i name="e_0_energy">    -46.96078821 </i>
   </energy>
  </scstep>
  <scstep>
   <time name="dav">   30.59   30.79</time>
   <time name="total">   83.16   83.95</time>
   <energy>
    <i name="e_fr_energy">    -47.16625354 </i>
    <i name="e_wo_entrp">    -47.16625354 </i>
    <i name="e_0_energy">    -47.16625354 </i>
   </energy>
  </scstep>
  <scstep>
   <time name="dav">   31.31   31.47</time>
   <time name="total">   84.14   84.54</time>
   <energy>
    <i name="e_fr_energy">    -47.42187832 </i>
    <i name="e_wo_entrp">    -47.42187832 </i>
    <i name="e_0_energy">    -47.42187832 </i>
   </energy>
  </scstep>
  <scstep>
   <time name="dav">   31.54   31.84</time>
   <time name="total">   84.39   84.89</time>
   <energy>
    <i name="e_fr_energy">    -47.69368200 </i>
    <i name="e_wo_entrp">    -47.69368200 </i>
    <i name="e_0_energy">    -47.69368200 </i>
   </energy>
  </scstep>
  <scstep>
   <time name="dav">   27.48   27.65</time>
   <time name="total">   80.62   80.89</time>
   <energy>
    <i name="e_fr_energy">    -47.76324917 </i>
    <i name="e_wo_entrp">    -47.76324917 </i>
    <i name="e_0_energy">    -47.76324917 </i>
   </energy>
  </scstep>
  <scstep>
   <time name="dav">   28.63   28.83</time>
   <time name="total">   81.61   82.07</time>
   <energy>
    <i name="e_fr_energy">    -47.77860582 </i>
    <i name="e_wo_entrp">    -47.77860582 </i>
    <i name="e_0_energy">    -47.77860582 </i>
   </energy>
  </scstep>
  <scstep>
   <time name="dav">   26.36   26.66</time>
   <time name="total">   79.20   79.69</time>
   <energy>
    <i name="e_fr_energy">    -47.78080897 </i>
    <i name="e_wo_entrp">    -47.78080897 </i>
    <i name="e_0_energy">    -47.78080897 </i>
   </energy>
  </scstep>
  <scstep>
   <time name="dav">   25.44   25.67</time>
   <time name="total">   78.30   78.81</time>
   <energy>
    <i name="e_fr_energy">    -47.78117533 </i>
    <i name="e_wo_entrp">    -47.78117533 </i>
    <i name="e_0_energy">    -47.78117533 </i>
   </energy>
  </scstep>
  <scstep>
   <time name="dav">   20.88   20.90</time>
   <time name="total">   71.88   72.23</time>
   <energy>
    <i name="alphaZ">     19.68084336 </i>
    <i name="ewald">   6462.22987265 </i>
    <i name="hartreedc">  -8724.77337780 </i>
    <i name="XCdc">     35.90406291 </i>
    <i name="pawpsdc">   1127.45489981 </i>
    <i name="pawaedc">  -1046.77867622 </i>
    <i name="eentropy">      0.00000000 </i>
    <i name="bandstr">   -497.97246612 </i>
    <i name="atom">   2576.47363623 </i>
    <i name="e_fr_energy">    -47.78120518 </i>
    <i name="e_wo_entrp">    -47.78120518 </i>
    <i name="e_0_energy">    -47.78120518 </i>
   </energy>
  </scstep>
  <structure>
   <crystal>
    <varray name="basis" >
     <v>       6.90777700      -0.00000000       0.00000000 </v>
     <v>       3.45388800       5.98231000       0.00000000 </v>
     <v>       0.00000000       0.00000000      23.44458800 </v>
    </varray>
    <i name="volume">    968.83501932 </i>
    <varray name="rec_basis" >
     <v>       0.14476437      -0.08357974       0.00000000 </v>
     <v>       0.00000000       0.16715951      -0.00000000 </v>
     <v>      -0.00000000       0.00000000       0.04265377 </v>
    </varray>
   </crystal>
   <varray name="positions" >
    <v>       0.33333300       0.33333300       0.49992500 </v>
    <v>       0.66666700       0.66666700       0.50007500 </v>
    <v>       0.00000000       0.00000000       0.44821600 </v>
    <v>       0.00000000       0.00000000       0.55178400 </v>
    <v>       0.62635700       0.00042000       0.57375200 </v>
    <v>       0.00042000       0.37322400       0.57375200 </v>
    <v>       0.37322400       0.62635700       0.57375200 </v>
    <v>       0.37364300       0.99958000       0.42624800 </v>
    <v>       0.99958000       0.62677600       0.42624800 </v>
    <v>       0.62677600       0.37364300       0.42624800 </v>
   </varray>
  </structure>
  <varray name="forces" >
   <v>       0.00000000       0.00000000       0.01016809 </v>
   <v>       0.00000000       0.00000000      -0.01016809 </v>
   <v>       0.00000000       0.00000000       0.26313171 </v>
   <v>       0.00000000      -0.00000000      -0.26313171 </v>
   <v>       0.68197632      -0.00403344      -1.84712579 </v>
   <v>      -0.34448117      -0.58859206      -1.84712579 </v>
   <v>      -0.33749514       0.59262550      -1.84712579 </v>
   <v>      -0.68197632       0.00403344       1.84712579 </v>
   <v>       0.34448117       0.58859206       1.84712579 </v>
   <v>       0.33749514      -0.59262550       1.84712579 </v>
  </varray>
  <varray name="stress" >
   <v>     -44.18106849       0.00000374      -0.00000000 </v>
   <v>       0.00000365     -44.18106309       0.00000000 </v>
   <v>       0.00000000      -0.00000000     -33.20794403 </v>
  </varray>
  <energy>
   <i name="e_fr_energy">    -47.78120518 </i>
   <i name="e_wo_entrp">    -47.78120518 </i>
   <i name="e_0_energy">      0.00000000 </i>
  </energy>
  <time name="totalsc"> 1400.55 1413.49</time>
 </calculation>
 <calculation>
  <scstep>
   <time name="dav">   29.02   29.14</time>
   <time name="total">   83.22   83.39</time>
   <energy>
    <i name="alphaZ">     28.71747096 </i>
    <i name="ewald">   8055.35128699 </i>
    <i name="hartreedc"> -10590.82100074 </i>
    <i name="XCdc">     53.88633871 </i>
    <i name="pawpsdc">   1127.51986672 </i>
    <i name="pawaedc">  -1046.84562078 </i>
    <i name="eentropy">      0.00000000 </i>
    <i name="bandstr">   -283.25347699 </i>
    <i name="atom">   2576.47363623 </i>
    <i name="e_fr_energy">    -78.97149890 </i>
    <i name="e_wo_entrp">    -78.97149890 </i>
    <i name="e_0_energy">    -78.97149890 </i>
   </energy>
  </scstep>
  <scstep>
   <time name="dav">   32.46   32.59</time>
   <time name="total">   86.52   86.83</time>
   <energy>
    <i name="e_fr_energy">    -61.09393311 </i>
    <i name="e_wo_entrp">    -61.09393311 </i>
    <i name="e_0_energy">    -61.09393311 </i>
   </energy>
  </scstep>
  <scstep>
   <time name="dav">   34.82   35.03</time>
   <time name="total">   88.85   89.27</time>
   <energy>
    <i name="e_fr_energy">    -63.19617382 </i>
    <i name="e_wo_entrp">    -63.19617382 </i>
    <i name="e_0_energy">    -63.19617382 </i>
   </energy>
  </scstep>
  <scstep>
   <time name="dav">   32.63   32.77</time>
   <time name="total">   86.79   87.17</time>
   <energy>
    <i name="e_fr_energy">    -53.78160720 </i>
    <i name="e_wo_entrp">    -53.78160720 </i>
    <i name="e_0_energy">    -53.78160720 </i>
   </energy>
  </scstep>
  <scstep>
   <time name="dav">   33.60   34.82</time>
   <time name="total">   87.85   89.15</time>
   <energy>
    <i name="e_fr_energy">    -54.11047235 </i>
    <i name="e_wo_entrp">    -54.11047235 </i>
    <i name="e_0_energy">    -54.11047235 </i>
   </energy>
  </scstep>
  <scstep>
   <time name="dav">   33.36   33.97</time>
   <time name="total">   87.47   88.32</time>
   <energy>
    <i name="e_fr_energy">    -54.37878206 </i>
    <i name="e_wo_entrp">    -54.37878206 </i>
    <i name="e_0_energy">    -54.37878206 </i>
   </energy>
  </scstep>
  <scstep>
   <time name="dav">   33.62   34.03</time>
   <time name="total">   87.59   88.34</time>
   <energy>
    <i name="e_fr_energy">    -54.36529440 </i>
    <i name="e_wo_entrp">    -54.36529440 </i>
    <i name="e_0_energy">    -54.36529440 </i>
   </energy>
  </scstep>
  <scstep>
   <time name="dav">   31.52   31.64</time>
   <time name="total">   85.35   86.02</time>
   <energy>
    <i name="e_fr_energy">    -54.38776811 </i>
    <i name="e_wo_entrp">    -54.38776811 </i>
    <i name="e_0_energy">    -54.38776811 </i>
   </energy>
  </scstep>
  <scstep>
   <time name="dav">   29.48   29.95</time>
   <time name="total">   83.62   84.19</time>
   <energy>
    <i name="e_fr_energy">    -54.38743693 </i>
    <i name="e_wo_entrp">    -54.38743693 </i>
    <i name="e_0_energy">    -54.38743693 </i>
   </energy>
  </scstep>
  <scstep>
   <time name="dav">   26.91   27.02</time>
   <time name="total">   80.78   81.31</time>
   <energy>
    <i name="e_fr_energy">    -54.38565716 </i>
    <i name="e_wo_entrp">    -54.38565716 </i>
    <i name="e_0_energy">    -54.38565716 </i>
   </energy>
  </scstep>
  <scstep>
   <time name="dav">   25.34   25.59</time>
   <time name="total">   79.44   79.95</time>
   <energy>
    <i name="e_fr_energy">    -54.38375436 </i>
    <i name="e_wo_entrp">    -54.38375436 </i>
    <i name="e_0_energy">    -54.38375436 </i>
   </energy>
  </scstep>
  <scstep>
   <time name="dav">   23.52   23.65</time>
   <time name="total">   77.65   78.07</time>
   <energy>
    <i name="e_fr_energy">    -54.38070734 </i>
    <i name="e_wo_entrp">    -54.38070734 </i>
    <i name="e_0_energy">    -54.38070734 </i>
   </energy>
  </scstep>
  <scstep>
   <time name="dav">   24.23   24.32</time>
   <time name="total">   78.36   78.63</time>
   <energy>
    <i name="e_fr_energy">    -54.37452312 </i>
    <i name="e_wo_entrp">    -54.37452312 </i>
    <i name="e_0_energy">    -54.37452312 </i>
   </energy>
  </scstep>
  <scstep>
   <time name="dav">   25.86   26.06</time>
   <time name="total">   79.95   80.27</time>
   <energy>
    <i name="e_fr_energy">    -54.37174628 </i>
    <i name="e_wo_entrp">    -54.37174628 </i>
    <i name="e_0_energy">    -54.37174628 </i>
   </energy>
  </scstep>
  <scstep>
   <time name="dav">   23.51   23.57</time>
   <time name="total">   77.66   77.85</time>
   <energy>
    <i name="e_fr_energy">    -54.36884781 </i>
    <i name="e_wo_entrp">    -54.36884781 </i>
    <i name="e_0_energy">    -54.36884781 </i>
   </energy>
  </scstep>
  <scstep>
   <time name="dav">   22.05   22.11</time>
   <time name="total">   76.00   76.32</time>
   <energy>
    <i name="e_fr_energy">    -54.36561099 </i>
    <i name="e_wo_entrp">    -54.36561099 </i>
    <i name="e_0_energy">    -54.36561099 </i>
   </energy>
  </scstep>
  <scstep>
   <time name="dav">   21.89   22.03</time>
   <time name="total">   76.03   76.48</time>
   <energy>
    <i name="e_fr_energy">    -54.36292123 </i>
    <i name="e_wo_entrp">    -54.36292123 </i>
    <i name="e_0_energy">    -54.36292123 </i>
   </energy>
  </scstep>
  <scstep>
   <time name="dav">   22.80   22.98</time>
   <time name="total">   76.94   77.30</time>
   <energy>
    <i name="e_fr_energy">    -54.36185649 </i>
    <i name="e_wo_entrp">    -54.36185649 </i>
    <i name="e_0_energy">    -54.36185649 </i>
   </energy>
  </scstep>
  <scstep>
   <time name="dav">   21.78   21.92</time>
   <time name="total">   75.76   76.16</time>
   <energy>
    <i name="e_fr_energy">    -54.36225372 </i>
    <i name="e_wo_entrp">    -54.36225372 </i>
    <i name="e_0_energy">    -54.36225372 </i>
   </energy>
  </scstep>
  <scstep>
   <time name="dav">   21.36   21.56</time>
   <time name="total">   75.38   75.82</time>
   <energy>
    <i name="e_fr_energy">    -54.36280783 </i>
    <i name="e_wo_entrp">    -54.36280783 </i>
    <i name="e_0_energy">    -54.36280783 </i>
   </energy>
  </scstep>
  <scstep>
   <time name="dav">   19.78   19.85</time>
   <time name="total">   73.75   74.11</time>
   <energy>
    <i name="e_fr_energy">    -54.36323916 </i>
    <i name="e_wo_entrp">    -54.36323916 </i>
    <i name="e_0_energy">    -54.36323916 </i>
   </energy>
  </scstep>
  <scstep>
   <time name="dav">   20.16   20.41</time>
   <time name="total">   73.97   75.18</time>
   <energy>
    <i name="e_fr_energy">    -54.36353940 </i>
    <i name="e_wo_entrp">    -54.36353940 </i>
    <i name="e_0_energy">    -54.36353940 </i>
   </energy>
  </scstep>
  <scstep>
   <time name="dav">   18.97   19.47</time>
   <time name="total">   70.72   72.29</time>
   <energy>
    <i name="alphaZ">     28.71747096 </i>
    <i name="ewald">   8055.35128699 </i>
    <i name="hartreedc"> -10356.90536628 </i>
    <i name="XCdc">     42.41762666 </i>
    <i name="pawpsdc">   1254.73732146 </i>
    <i name="pawaedc">  -1175.68026523 </i>
    <i name="eentropy">      0.00000000 </i>
    <i name="bandstr">   -479.47534929 </i>
    <i name="atom">   2576.47363623 </i>
    <i name="e_fr_energy">    -54.36363850 </i>
    <i name="e_wo_entrp">    -54.36363850 </i>
    <i name="e_0_energy">    -54.36363850 </i>
   </energy>
  </scstep>
  <structure>
   <crystal>
    <varray name="basis" >
     <v>       6.01745939       0.00000008      -0.00000000 </v>
     <v>       3.00872932       5.21127251      -0.00000000 </v>
     <v>       0.00000000      -0.00000000      21.17338982 </v>
    </varray>
    <i name="volume">    663.96829595 </i>
    <varray name="rec_basis" >
     <v>       0.16618309      -0.09594584      -0.00000000 </v>
     <v>      -0.00000000       0.19189171       0.00000000 </v>
     <v>       0.00000000      -0.00000000       0.04722909 </v>
    </varray>
   </crystal>
   <varray name="positions" >
    <v>       0.33333300       0.33333300       0.49992500 </v>
    <v>       0.66666700       0.66666700       0.50007500 </v>
    <v>       0.00000000       0.00000000       0.44875745 </v>
    <v>       0.00000000      -0.00000000       0.55124255 </v>
    <v>       0.63113606       0.00038747       0.56995111 </v>
    <v>       0.00038747       0.36847747       0.56995111 </v>
    <v>       0.36847747       0.63113606       0.56995111 </v>
    <v>       0.36886394       0.99961253       0.43004889 </v>
    <v>       0.99961253       0.63152253       0.43004889 </v>
    <v>       0.63152253       0.36886394       0.43004889 </v>
   </varray>
  </structure>
  <varray name="forces" >
   <v>      -0.00000000      -0.00000000      -0.00078099 </v>
   <v>      -0.00000000      -0.00000000       0.00078099 </v>
   <v>      -0.00000000      -0.00000000      -1.31036823 </v>
   <v>      -0.00000000      -0.00000000       1.31036823 </v>
   <v>       0.46209223      -0.00904611      -0.31440839 </v>
   <v>      -0.23888025      -0.39566054      -0.31440839 </v>
   <v>      -0.22321198       0.40470664      -0.31440839 </v>
   <v>      -0.46209223       0.00904611       0.31440839 </v>
   <v>       0.23888025       0.39566054       0.31440839 </v>
   <v>       0.22321198      -0.40470664       0.31440839 </v>
  </varray>
  <varray name="stress" >
   <v>      -5.14549700       0.00000068       0.00000000 </v>
   <v>      -0.00000008      -5.14549655       0.00000000 </v>
   <v>       0.00000000       0.00000000       0.13974265 </v>
  </varray>
  <energy>
   <i name="e_fr_energy">    -54.36363850 </i>
   <i name="e_wo_entrp">    -54.36363850 </i>
   <i name="e_0_energy">      0.00000000 </i>
  </energy>
  <time name="totalsc"> 1985.69 1999.48</time>
 </calculation>
 <calculation>
  <scstep>
   <time name="dav">   28.62   28.68</time>
   <time name="total">   82.66   82.89</time>
   <energy>
    <i name="alphaZ">     29.25401177 </i>
    <i name="ewald">   8144.22188367 </i>
    <i name="hartreedc"> -10458.08418905 </i>
    <i name="XCdc">     43.28888450 </i>
    <i name="pawpsdc">   1254.74047544 </i>
    <i name="pawaedc">  -1175.68355668 </i>
    <i name="eentropy">      0.00000000 </i>
    <i name="bandstr">   -468.63904152 </i>
    <i name="atom">   2576.47363623 </i>
    <i name="e_fr_energy">    -54.42789565 </i>
    <i name="e_wo_entrp">    -54.42789565 </i>
    <i name="e_0_energy">    -54.42789565 </i>
   </energy>
  </scstep>
  <scstep>
   <time name="dav">   29.47   29.51</time>
   <time name="total">   83.99   84.28</time>
   <energy>
    <i name="e_fr_energy">    -54.38719309 </i>
    <i name="e_wo_entrp">    -54.38719309 </i>
    <i name="e_0_energy">    -54.38719309 </i>
   </energy>
  </scstep>
  <scstep>
   <time name="dav">   33.46   33.64</time>
   <time name="total">   87.56   87.90</time>
   <energy>
    <i name="e_fr_energy">    -54.38420756 </i>
    <i name="e_wo_entrp">    -54.38420756 </i>
    <i name="e_0_energy">    -54.38420756 </i>
   </energy>
  </scstep>
  <scstep>
   <time name="dav">   32.06   32.34</time>
   <time name="total">   86.16   86.67</time>
   <energy>
    <i name="e_fr_energy">    -54.37477791 </i>
    <i name="e_wo_entrp">    -54.37477791 </i>
    <i name="e_0_energy">    -54.37477791 </i>
   </energy>
  </scstep>
  <scstep>
   <time name="dav">   29.04   29.26</time>
   <time name="total">   82.88   83.56</time>
   <energy>
    <i name="e_fr_energy">    -54.37416702 </i>
    <i name="e_wo_entrp">    -54.37416702 </i>
    <i name="e_0_energy">    -54.37416702 </i>
   </energy>
  </scstep>
  <scstep>
   <time name="dav">   22.63   22.84</time>
   <time name="total">   74.79   75.15</time>
   <energy>
    <i name="alphaZ">     29.25401177 </i>
    <i name="ewald">   8144.22188367 </i>
    <i name="hartreedc"> -10450.01797247 </i>
    <i name="XCdc">     42.84013596 </i>
    <i name="pawpsdc">   1263.47227611 </i>
    <i name="pawaedc">  -1184.52875294 </i>
    <i name="eentropy">      0.00000000 </i>
    <i name="bandstr">   -476.08938283 </i>
    <i name="atom">   2576.47363623 </i>
    <i name="e_fr_energy">    -54.37416450 </i>
    <i name="e_wo_entrp">    -54.37416450 </i>
    <i name="e_0_energy">    -54.37416450 </i>
   </energy>
  </scstep>
  <structure>
   <crystal>
    <varray name="basis" >
     <v>       5.97671083       0.00000008      -0.00000000 </v>
     <v>       2.98835505       5.17598323      -0.00000000 </v>
     <v>       0.00000000      -0.00000000      21.06944033 </v>
    </varray>
    <i name="volume">    651.79061275 </i>
    <varray name="rec_basis" >
     <v>       0.16731611      -0.09659999      -0.00000000 </v>
     <v>      -0.00000000       0.19320001       0.00000000 </v>
     <v>       0.00000000      -0.00000000       0.04746211 </v>
    </varray>
   </crystal>
   <varray name="positions" >
    <v>       0.33333300       0.33333300       0.49992500 </v>
    <v>       0.66666700       0.66666700       0.50007500 </v>
    <v>       0.00000000       0.00000000       0.44878489 </v>
    <v>       0.00000000      -0.00000000       0.55121511 </v>
    <v>       0.63138715       0.00038576       0.56975849 </v>
    <v>       0.00038576       0.36822808       0.56975849 </v>
    <v>       0.36822808       0.63138715       0.56975849 </v>
    <v>       0.36861285       0.99961424       0.43024151 </v>
    <v>       0.99961424       0.63177192       0.43024151 </v>
    <v>       0.63177192       0.36861285       0.43024151 </v>
   </varray>
  </structure>
  <varray name="forces" >
   <v>      -0.00000000       0.00000000      -0.00168785 </v>
   <v>      -0.00000000      -0.00000000       0.00168785 </v>
   <v>      -0.00000000       0.00000000      -1.42118653 </v>
   <v>      -0.00000000      -0.00000000       1.42118653 </v>
   <v>       0.47477544      -0.00981432      -0.15828203 </v>
   <v>      -0.24588715      -0.40626041      -0.15828203 </v>
   <v>      -0.22888829       0.41607473      -0.15828203 </v>
   <v>      -0.47477544       0.00981432       0.15828203 </v>
   <v>       0.24588715       0.40626041       0.15828203 </v>
   <v>       0.22888829      -0.41607473       0.15828203 </v>
  </varray>
  <varray name="stress" >
   <v>      -0.40390476      -0.00000049       0.00000000 </v>
   <v>       0.00000053      -0.40390473      -0.00000000 </v>
   <v>      -0.00000000      -0.00000000       3.66278415 </v>
  </varray>
  <energy>
   <i name="e_fr_energy">    -54.37416450 </i>
   <i name="e_wo_entrp">    -54.37416450 </i>
   <i name="e_0_energy">      0.00000000 </i>
  </energy>
  <time name="totalsc">  634.48  637.59</time>
 </calculation>
 <calculation>
  <scstep>
   <time name="dav">   23.08   23.35</time>
   <time name="total">   77.27   77.69</time>
   <energy>
    <i name="alphaZ">     29.33978083 </i>
    <i name="ewald">   8269.31790030 </i>
    <i name="hartreedc"> -10569.03310247 </i>
    <i name="XCdc">     43.05001611 </i>
    <i name="pawpsdc">   1264.42118915 </i>
    <i name="pawaedc">  -1185.50628878 </i>
    <i name="eentropy">      0.00000000 </i>
    <i name="bandstr">   -482.49483045 </i>
    <i name="atom">   2576.47363623 </i>
    <i name="e_fr_energy">    -54.43169909 </i>
    <i name="e_wo_entrp">    -54.43169909 </i>
    <i name="e_0_energy">    -54.43169909 </i>
   </energy>
  </scstep>
  <scstep>
   <time name="dav">   30.67   30.73</time>
   <time name="total">   84.70   85.15</time>
   <energy>
    <i name="e_fr_energy">    -54.52330924 </i>
    <i name="e_wo_entrp">    -54.52330924 </i>
    <i name="e_0_energy">    -54.52330924 </i>
   </energy>
  </scstep>
  <scstep>
   <time name="dav">   32.70   32.99</time>
   <time name="total">   86.66   87.46</time>
   <energy>
    <i name="e_fr_energy">    -54.50806628 </i>
    <i name="e_wo_entrp">    -54.50806628 </i>
    <i name="e_0_energy">    -54.50806628 </i>
   </energy>
  </scstep>
  <scstep>
   <time name="dav">   31.39   31.69</time>
   <time name="total">   85.50   85.95</time>
   <energy>
    <i name="e_fr_energy">    -54.50413125 </i>
    <i name="e_wo_entrp">    -54.50413125 </i>
    <i name="e_0_energy">    -54.50413125 </i>
   </energy>
  </scstep>
  <scstep>
   <time name="dav">   27.70   27.86</time>
   <time name="total">   81.64   82.13</time>
   <energy>
    <i name="e_fr_energy">    -54.50328646 </i>
    <i name="e_wo_entrp">    -54.50328646 </i>
    <i name="e_0_energy">    -54.50328646 </i>
   </energy>
  </scstep>
  <scstep>
   <time name="dav">   26.84   27.03</time>
   <time name="total">   80.73   81.18</time>
   <energy>
    <i name="e_fr_energy">    -54.50325452 </i>
    <i name="e_wo_entrp">    -54.50325452 </i>
    <i name="e_0_energy">    -54.50325452 </i>
   </energy>
  </scstep>
  <scstep>
   <time name="dav">   19.32   19.43</time>
   <time name="total">   71.56   71.76</time>
   <energy>
    <i name="alphaZ">     29.33978083 </i>
    <i name="ewald">   8269.31790030 </i>
    <i name="hartreedc"> -10571.11120389 </i>
    <i name="XCdc">     43.04175309 </i>
    <i name="pawpsdc">   1267.98756788 </i>
    <i name="pawaedc">  -1189.16665852 </i>
    <i name="eentropy">      0.00000000 </i>
    <i name="bandstr">   -480.38594348 </i>
    <i name="atom">   2576.47363623 </i>
    <i name="e_fr_energy">    -54.50316757 </i>
    <i name="e_wo_entrp">    -54.50316757 </i>
    <i name="e_0_energy">    -54.50316757 </i>
   </energy>
  </scstep>
  <structure>
   <crystal>
    <varray name="basis" >
     <v>       5.95334856       0.00000007      -0.00000000 </v>
     <v>       2.97667392       5.15575091      -0.00000000 </v>
     <v>      -0.00000000      -0.00000000      21.17305049 </v>
    </varray>
    <i name="volume">    649.88523157 </i>
    <varray name="rec_basis" >
     <v>       0.16797270      -0.09697907       0.00000000 </v>
     <v>      -0.00000000       0.19395817       0.00000000 </v>
     <v>       0.00000000       0.00000000       0.04722985 </v>
    </varray>
   </crystal>
   <varray name="positions" >
    <v>       0.33333300       0.33333300       0.49992500 </v>
    <v>       0.66666700       0.66666700       0.50007500 </v>
    <v>       0.00000000       0.00000000       0.44551555 </v>
    <v>       0.00000000      -0.00000000       0.55448445 </v>
    <v>       0.63543391       0.00029255       0.56929074 </v>
    <v>       0.00029255       0.36427455       0.56929074 </v>
    <v>       0.36427455       0.63543391       0.56929074 </v>
    <v>       0.36456609       0.99970745       0.43070926 </v>
    <v>       0.99970745       0.63572545       0.43070926 </v>
    <v>       0.63572545       0.36456609       0.43070926 </v>
   </varray>
  </structure>
  <varray name="forces" >
   <v>       0.00000000       0.00000000       0.00186788 </v>
   <v>       0.00000000      -0.00000000      -0.00186788 </v>
   <v>       0.00000000      -0.00000000       0.32083509 </v>
   <v>       0.00000000       0.00000000      -0.32083509 </v>
   <v>       0.33976726      -0.00597776       0.01034654 </v>
   <v>      -0.17506050      -0.29125819       0.01034654 </v>
   <v>      -0.16470676       0.29723595       0.01034654 </v>
   <v>      -0.33976726       0.00597776      -0.01034654 </v>
   <v>       0.17506050       0.29125819      -0.01034654 </v>
   <v>       0.16470676      -0.29723595      -0.01034654 </v>
  </varray>
  <varray name="stress" >
   <v>       2.04962936       0.00000017      -0.00000000 </v>
   <v>      -0.00000040       2.04962919      -0.00000000 </v>
   <v>       0.00000000      -0.00000000      -1.24454714 </v>
  </varray>
  <energy>
   <i name="e_fr_energy">    -54.50316757 </i>
   <i name="e_wo_entrp">    -54.50316757 </i>
   <i name="e_0_energy">      0.00000000 </i>
  </energy>
  <time name="totalsc">  705.04  708.62</time>
 </calculation>
 <calculation>
  <scstep>
   <time name="dav">   24.95   25.07</time>
   <time name="total">   79.14   79.47</time>
   <energy>
    <i name="alphaZ">     29.33789520 </i>
    <i name="ewald">   8266.58434053 </i>
    <i name="hartreedc"> -10568.70959479 </i>
    <i name="XCdc">     43.03993851 </i>
    <i name="pawpsdc">   1267.95507050 </i>
    <i name="pawaedc">  -1189.13456983 </i>
    <i name="eentropy">      0.00000000 </i>
    <i name="bandstr">   -480.04977103 </i>
    <i name="atom">   2576.47363623 </i>
    <i name="e_fr_energy">    -54.50305466 </i>
    <i name="e_wo_entrp">    -54.50305466 </i>
    <i name="e_0_energy">    -54.50305466 </i>
   </energy>
  </scstep>
  <scstep>
   <time name="dav">   25.16   25.65</time>
   <time name="total">   77.09   77.94</time>
   <energy>
    <i name="alphaZ">     29.33789520 </i>
    <i name="ewald">   8266.58434053 </i>
    <i name="hartreedc"> -10568.78247041 </i>
    <i name="XCdc">     43.04132787 </i>
    <i name="pawpsdc">   1267.89571063 </i>
    <i name="pawaedc">  -1189.07232261 </i>
    <i name="eentropy">      0.00000000 </i>
    <i name="bandstr">   -479.98121657 </i>
    <i name="atom">   2576.47363623 </i>
    <i name="e_fr_energy">    -54.50309912 </i>
    <i name="e_wo_entrp">    -54.50309912 </i>
    <i name="e_0_energy">    -54.50309912 </i>
   </energy>
  </scstep>
  <structure>
   <crystal>
    <varray name="basis" >
     <v>       5.95385679       0.00000007      -0.00000000 </v>
     <v>       2.97692804       5.15619105      -0.00000000 </v>
     <v>      -0.00000000      -0.00000000      21.17079651 </v>
    </varray>
    <i name="volume">    649.92700133 </i>
    <varray name="rec_basis" >
     <v>       0.16795836      -0.09697079       0.00000000 </v>
     <v>      -0.00000000       0.19394161       0.00000000 </v>
     <v>       0.00000000       0.00000000       0.04723488 </v>
    </varray>
   </crystal>
   <varray name="positions" >
    <v>       0.33333300       0.33333300       0.49992500 </v>
    <v>       0.66666700       0.66666700       0.50007500 </v>
    <v>       0.00000000       0.00000000       0.44558633 </v>
    <v>       0.00000000      -0.00000000       0.55441367 </v>
    <v>       0.63534553       0.00029458       0.56930086 </v>
    <v>       0.00029458       0.36436089       0.56930086 </v>
    <v>       0.36436089       0.63534553       0.56930086 </v>
    <v>       0.36465447       0.99970542       0.43069914 </v>
    <v>       0.99970542       0.63563911       0.43069914 </v>
    <v>       0.63563911       0.36465447       0.43069914 </v>
   </varray>
  </structure>
  <varray name="forces" >
   <v>      -0.00000000       0.00000000       0.00183199 </v>
   <v>       0.00000000       0.00000000      -0.00183199 </v>
   <v>       0.00000000       0.00000000       0.29034230 </v>
   <v>       0.00000000       0.00000000      -0.29034230 </v>
   <v>       0.35070684      -0.00644135       0.00570617 </v>
   <v>      -0.18093177      -0.30050034       0.00570617 </v>
   <v>      -0.16977506       0.30694169       0.00570617 </v>
   <v>      -0.35070684       0.00644135      -0.00570617 </v>
   <v>       0.18093177       0.30050034      -0.00570617 </v>
   <v>       0.16977506      -0.30694169      -0.00570617 </v>
  </varray>
  <varray name="stress" >
   <v>       1.97600454      -0.00000010       0.00000000 </v>
   <v>      -0.00000012       1.97600437       0.00000000 </v>
   <v>       0.00000000       0.00000000      -1.35177622 </v>
  </varray>
  <energy>
   <i name="e_fr_energy">    -54.50309912 </i>
   <i name="e_wo_entrp">    -54.50309912 </i>
   <i name="e_0_energy">      0.00000000 </i>
  </energy>
  <time name="totalsc">  292.86  294.70</time>
 </calculation>
 <calculation>
  <scstep>
   <time name="dav">   22.98   23.07</time>
   <time name="total">   77.17   77.46</time>
   <energy>
    <i name="alphaZ">     29.20330751 </i>
    <i name="ewald">   8188.32445268 </i>
    <i name="hartreedc"> -10490.12355793 </i>
    <i name="XCdc">     42.99217102 </i>
    <i name="pawpsdc">   1267.87882119 </i>
    <i name="pawaedc">  -1189.05750941 </i>
    <i name="eentropy">      0.00000000 </i>
    <i name="bandstr">   -480.23200681 </i>
    <i name="atom">   2576.47363623 </i>
    <i name="e_fr_energy">    -54.54068551 </i>
    <i name="e_wo_entrp">    -54.54068551 </i>
    <i name="e_0_energy">    -54.54068551 </i>
   </energy>
  </scstep>
  <scstep>
   <time name="dav">   29.09   29.58</time>
   <time name="total">   83.27   83.91</time>
   <energy>
    <i name="e_fr_energy">    -54.55874055 </i>
    <i name="e_wo_entrp">    -54.55874055 </i>
    <i name="e_0_energy">    -54.55874055 </i>
   </energy>
  </scstep>
  <scstep>
   <time name="dav">   31.52   31.92</time>
   <time name="total">   85.30   86.34</time>
   <energy>
    <i name="e_fr_energy">    -54.55685300 </i>
    <i name="e_wo_entrp">    -54.55685300 </i>
    <i name="e_0_energy">    -54.55685300 </i>
   </energy>
  </scstep>
  <scstep>
   <time name="dav">   30.81   31.02</time>
   <time name="total">   85.32   85.69</time>
   <energy>
    <i name="e_fr_energy">    -54.55688484 </i>
    <i name="e_wo_entrp">    -54.55688484 </i>
    <i name="e_0_energy">    -54.55688484 </i>
   </energy>
  </scstep>
  <scstep>
   <time name="dav">   31.61   31.86</time>
   <time name="total">   85.94   86.32</time>
   <energy>
    <i name="e_fr_energy">    -54.55613447 </i>
    <i name="e_wo_entrp">    -54.55613447 </i>
    <i name="e_0_energy">    -54.55613447 </i>
   </energy>
  </scstep>
  <scstep>
   <time name="dav">   20.74   20.83</time>
   <time name="total">   72.98   73.22</time>
   <energy>
    <i name="alphaZ">     29.20330751 </i>
    <i name="ewald">   8188.32445268 </i>
    <i name="hartreedc"> -10490.75512551 </i>
    <i name="XCdc">     43.12129122 </i>
    <i name="pawpsdc">   1265.37215263 </i>
    <i name="pawaedc">  -1186.54898990 </i>
    <i name="eentropy">      0.00000000 </i>
    <i name="bandstr">   -479.74686949 </i>
    <i name="atom">   2576.47363623 </i>
    <i name="e_fr_energy">    -54.55614463 </i>
    <i name="e_wo_entrp">    -54.55614463 </i>
    <i name="e_0_energy">    -54.55614463 </i>
   </energy>
  </scstep>
  <structure>
   <crystal>
    <varray name="basis" >
     <v>       5.97295465       0.00000007      -0.00000000 </v>
     <v>       2.98647697       5.17273029       0.00000000 </v>
     <v>       0.00000000       0.00000000      21.13257615 </v>
    </varray>
    <i name="volume">    652.92228451 </i>
    <varray name="rec_basis" >
     <v>       0.16742133      -0.09666074       0.00000000 </v>
     <v>      -0.00000000       0.19332151      -0.00000000 </v>
     <v>       0.00000000      -0.00000000       0.04732031 </v>
    </varray>
   </crystal>
   <varray name="positions" >
    <v>       0.33333300       0.33333300       0.49992500 </v>
    <v>       0.66666700       0.66666700       0.50007500 </v>
    <v>      -0.00000000       0.00000000       0.44568693 </v>
    <v>      -0.00000000       0.00000000       0.55431307 </v>
    <v>       0.63893539       0.00021780       0.56923321 </v>
    <v>       0.00021780       0.36084781       0.56923321 </v>
    <v>       0.36084781       0.63893539       0.56923321 </v>
    <v>       0.36106461       0.99978220       0.43076679 </v>
    <v>       0.99978220       0.63915219       0.43076679 </v>
    <v>       0.63915219       0.36106461       0.43076679 </v>
   </varray>
  </structure>
  <varray name="forces" >
   <v>       0.00000000      -0.00000000       0.00531729 </v>
   <v>       0.00000000      -0.00000000      -0.00531729 </v>
   <v>       0.00000000      -0.00000000       0.28780410 </v>
   <v>       0.00000000      -0.00000000      -0.28780410 </v>
   <v>       0.26669703      -0.00255451       0.01808527 </v>
   <v>      -0.13556077      -0.22968913       0.01808527 </v>
   <v>      -0.13113625       0.23224365       0.01808527 </v>
   <v>      -0.26669703       0.00255451      -0.01808527 </v>
   <v>       0.13556077       0.22968913      -0.01808527 </v>
   <v>       0.13113625      -0.23224365      -0.01808527 </v>
  </varray>
  <varray name="stress" >
   <v>      -0.10231290       0.00000153       0.00000000 </v>
   <v>      -0.00000152      -0.10231289       0.00000000 </v>
   <v>       0.00000000       0.00000000      -1.94028599 </v>
  </varray>
  <energy>
   <i name="e_fr_energy">    -54.55614463 </i>
   <i name="e_wo_entrp">    -54.55614463 </i>
   <i name="e_0_energy">      0.00000000 </i>
  </energy>
  <time name="totalsc">  626.43  630.00</time>
 </calculation>
 <calculation>
  <scstep>
   <time name="dav">   22.91   22.98</time>
   <time name="total">   77.10   77.33</time>
   <energy>
    <i name="alphaZ">     28.90009122 </i>
    <i name="ewald">   8013.47826207 </i>
    <i name="hartreedc"> -10314.38239255 </i>
    <i name="XCdc">     43.02938991 </i>
    <i name="pawpsdc">   1265.11996963 </i>
    <i name="pawaedc">  -1186.28593607 </i>
    <i name="eentropy">      0.00000000 </i>
    <i name="bandstr">   -480.85389573 </i>
    <i name="atom">   2576.47363623 </i>
    <i name="e_fr_energy">    -54.52087529 </i>
    <i name="e_wo_entrp">    -54.52087529 </i>
    <i name="e_0_energy">    -54.52087529 </i>
   </energy>
  </scstep>
  <scstep>
   <time name="dav">   32.41   32.68</time>
   <time name="total">   86.57   87.03</time>
   <energy>
    <i name="e_fr_energy">    -54.61639813 </i>
    <i name="e_wo_entrp">    -54.61639813 </i>
    <i name="e_0_energy">    -54.61639813 </i>
   </energy>
  </scstep>
  <scstep>
   <time name="dav">   32.04   32.23</time>
   <time name="total">   86.03   86.39</time>
   <energy>
    <i name="e_fr_energy">    -54.60645155 </i>
    <i name="e_wo_entrp">    -54.60645155 </i>
    <i name="e_0_energy">    -54.60645155 </i>
   </energy>
  </scstep>
  <scstep>
   <time name="dav">   33.73   33.96</time>
   <time name="total">   87.97   88.29</time>
   <energy>
    <i name="e_fr_energy">    -54.60418786 </i>
    <i name="e_wo_entrp">    -54.60418786 </i>
    <i name="e_0_energy">    -54.60418786 </i>
   </energy>
  </scstep>
  <scstep>
   <time name="dav">   31.12   31.16</time>
   <time name="total">   85.38   85.59</time>
   <energy>
    <i name="e_fr_energy">    -54.60088340 </i>
    <i name="e_wo_entrp">    -54.60088340 </i>
    <i name="e_0_energy">    -54.60088340 </i>
   </energy>
  </scstep>
  <scstep>
   <time name="dav">   24.77   24.90</time>
   <time name="total">   78.80   79.21</time>
   <energy>
    <i name="e_fr_energy">    -54.60092101 </i>
    <i name="e_wo_entrp">    -54.60092101 </i>
    <i name="e_0_energy">    -54.60092101 </i>
   </energy>
  </scstep>
  <scstep>
   <time name="dav">   20.01   20.16</time>
   <time name="total">   74.08   74.48</time>
   <energy>
    <i name="e_fr_energy">    -54.60106668 </i>
    <i name="e_wo_entrp">    -54.60106668 </i>
    <i name="e_0_energy">    -54.60106668 </i>
   </energy>
  </scstep>
  <scstep>
   <time name="dav">   19.94   20.12</time>
   <time name="total">   74.06   74.34</time>
   <energy>
    <i name="e_fr_energy">    -54.60120599 </i>
    <i name="e_wo_entrp">    -54.60120599 </i>
    <i name="e_0_energy">    -54.60120599 </i>
   </energy>
  </scstep>
  <scstep>
   <time name="dav">   19.65   19.80</time>
   <time name="total">   73.89   74.25</time>
   <energy>
    <i name="e_fr_energy">    -54.60141123 </i>
    <i name="e_wo_entrp">    -54.60141123 </i>
    <i name="e_0_energy">    -54.60141123 </i>
   </energy>
  </scstep>
  <scstep>
   <time name="dav">   21.74   21.80</time>
   <time name="total">   75.90   76.19</time>
   <energy>
    <i name="e_fr_energy">    -54.60167353 </i>
    <i name="e_wo_entrp">    -54.60167353 </i>
    <i name="e_0_energy">    -54.60167353 </i>
   </energy>
  </scstep>
  <scstep>
   <time name="dav">   21.01   21.33</time>
   <time name="total">   74.96   75.72</time>
   <energy>
    <i name="e_fr_energy">    -54.60188839 </i>
    <i name="e_wo_entrp">    -54.60188839 </i>
    <i name="e_0_energy">    -54.60188839 </i>
   </energy>
  </scstep>
  <scstep>
   <time name="dav">   22.47   22.56</time>
   <time name="total">   76.44   76.83</time>
   <energy>
    <i name="e_fr_energy">    -54.60202424 </i>
    <i name="e_wo_entrp">    -54.60202424 </i>
    <i name="e_0_energy">    -54.60202424 </i>
   </energy>
  </scstep>
  <scstep>
   <time name="dav">   22.06   22.35</time>
   <time name="total">   74.32   74.96</time>
   <energy>
    <i name="alphaZ">     28.90009122 </i>
    <i name="ewald">   8013.47826207 </i>
    <i name="hartreedc"> -10312.55147699 </i>
    <i name="XCdc">     43.27716406 </i>
    <i name="pawpsdc">   1259.63086994 </i>
    <i name="pawaedc">  -1180.76378668 </i>
    <i name="eentropy">      0.00000000 </i>
    <i name="bandstr">   -483.04677972 </i>
    <i name="atom">   2576.47363623 </i>
    <i name="e_fr_energy">    -54.60201987 </i>
    <i name="e_wo_entrp">    -54.60201987 </i>
    <i name="e_0_energy">    -54.60201987 </i>
   </energy>
  </scstep>
  <structure>
   <crystal>
    <varray name="basis" >
     <v>       6.01667537       0.00000007       0.00000000 </v>
     <v>       3.00833733       5.21059353       0.00000000 </v>
     <v>       0.00000000       0.00000000      21.04507831 </v>
    </varray>
    <i name="volume">    659.77266683 </i>
    <varray name="rec_basis" >
     <v>       0.16620475      -0.09595835      -0.00000000 </v>
     <v>      -0.00000000       0.19191672      -0.00000000 </v>
     <v>      -0.00000000      -0.00000000       0.04751705 </v>
    </varray>
   </crystal>
   <varray name="positions" >
    <v>       0.33333300       0.33333300       0.49992500 </v>
    <v>       0.66666700       0.66666700       0.50007500 </v>
    <v>      -0.00000000       0.00000000       0.44591767 </v>
    <v>      -0.00000000       0.00000000       0.55408233 </v>
    <v>       0.64712739       0.00004259       0.56907806 </v>
    <v>       0.00004259       0.35283101       0.56907806 </v>
    <v>       0.35283101       0.64712739       0.56907806 </v>
    <v>       0.35287261       0.99995741       0.43092194 </v>
    <v>       0.99995741       0.64716899       0.43092194 </v>
    <v>       0.64716899       0.35287261       0.43092194 </v>
   </varray>
  </structure>
  <varray name="forces" >
   <v>       0.00000000      -0.00000000       0.01154725 </v>
   <v>       0.00000000      -0.00000000      -0.01154725 </v>
   <v>       0.00000000      -0.00000000       0.33844208 </v>
   <v>       0.00000000      -0.00000000      -0.33844208 </v>
   <v>       0.04742990       0.00243288       0.06744121 </v>
   <v>      -0.02160801      -0.04229194       0.06744121 </v>
   <v>      -0.02582189       0.03985906       0.06744121 </v>
   <v>      -0.04742990      -0.00243288      -0.06744121 </v>
   <v>       0.02160801       0.04229194      -0.06744121 </v>
   <v>       0.02582189      -0.03985906      -0.06744121 </v>
  </varray>
  <varray name="stress" >
   <v>      -3.34280701       0.00000053       0.00000000 </v>
   <v>      -0.00000015      -3.34280672      -0.00000000 </v>
   <v>       0.00000000      -0.00000000      -0.60151921 </v>
  </varray>
  <energy>
   <i name="e_fr_energy">    -54.60201987 </i>
   <i name="e_wo_entrp">    -54.60201987 </i>
   <i name="e_0_energy">      0.00000000 </i>
  </energy>
  <time name="totalsc"> 1161.70 1167.67</time>
 </calculation>
 <calculation>
  <scstep>
   <time name="dav">   28.30   28.44</time>
   <time name="total">   82.40   82.94</time>
   <energy>
    <i name="alphaZ">     29.41643965 </i>
    <i name="ewald">   8128.17925084 </i>
    <i name="hartreedc"> -10435.73184316 </i>
    <i name="XCdc">     44.21798527 </i>
    <i name="pawpsdc">   1259.62446490 </i>
    <i name="pawaedc">  -1180.75715632 </i>
    <i name="eentropy">      0.00000000 </i>
    <i name="bandstr">   -476.06070901 </i>
    <i name="atom">   2576.47363623 </i>
    <i name="e_fr_energy">    -54.63793161 </i>
    <i name="e_wo_entrp">    -54.63793161 </i>
    <i name="e_0_energy">    -54.63793161 </i>
   </energy>
  </scstep>
  <scstep>
   <time name="dav">   25.46   25.67</time>
   <time name="total">   80.05   80.55</time>
   <energy>
    <i name="e_fr_energy">    -54.63053355 </i>
    <i name="e_wo_entrp">    -54.63053355 </i>
    <i name="e_0_energy">    -54.63053355 </i>
   </energy>
  </scstep>
  <scstep>
   <time name="dav">   32.35   32.71</time>
   <time name="total">   86.52   87.14</time>
   <energy>
    <i name="e_fr_energy">    -54.62380427 </i>
    <i name="e_wo_entrp">    -54.62380427 </i>
    <i name="e_0_energy">    -54.62380427 </i>
   </energy>
  </scstep>
  <scstep>
   <time name="dav">   33.41   33.77</time>
   <time name="total">   87.87   88.42</time>
   <energy>
    <i name="e_fr_energy">    -54.62218770 </i>
    <i name="e_wo_entrp">    -54.62218770 </i>
    <i name="e_0_energy">    -54.62218770 </i>
   </energy>
  </scstep>
  <scstep>
   <time name="dav">   29.85   29.99</time>
   <time name="total">   84.10   84.44</time>
   <energy>
    <i name="e_fr_energy">    -54.62029104 </i>
    <i name="e_wo_entrp">    -54.62029104 </i>
    <i name="e_0_energy">    -54.62029104 </i>
   </energy>
  </scstep>
  <scstep>
   <time name="dav">   25.40   25.55</time>
   <time name="total">   77.74   78.03</time>
   <energy>
    <i name="alphaZ">     29.41643965 </i>
    <i name="ewald">   8128.17925084 </i>
    <i name="hartreedc"> -10429.21196796 </i>
    <i name="XCdc">     43.83471291 </i>
    <i name="pawpsdc">   1267.02253898 </i>
    <i name="pawaedc">  -1188.26376496 </i>
    <i name="eentropy">      0.00000000 </i>
    <i name="bandstr">   -482.07118353 </i>
    <i name="atom">   2576.47363623 </i>
    <i name="e_fr_energy">    -54.62033784 </i>
    <i name="e_wo_entrp">    -54.62033784 </i>
    <i name="e_0_energy">    -54.62033784 </i>
   </energy>
  </scstep>
  <structure>
   <crystal>
    <varray name="basis" >
     <v>       5.97302837       0.00000008       0.00000000 </v>
     <v>       2.98651382       5.17279413       0.00000000 </v>
     <v>       0.00000000       0.00000000      20.97894560 </v>
    </varray>
    <i name="volume">    648.19163983 </i>
    <varray name="rec_basis" >
     <v>       0.16741926      -0.09665955      -0.00000000 </v>
     <v>      -0.00000000       0.19331912      -0.00000000 </v>
     <v>      -0.00000000      -0.00000000       0.04766684 </v>
    </varray>
   </crystal>
   <varray name="positions" >
    <v>       0.33333300       0.33333300       0.49992500 </v>
    <v>       0.66666700       0.66666700       0.50007500 </v>
    <v>      -0.00000000       0.00000000       0.44713214 </v>
    <v>      -0.00000000       0.00000000       0.55286786 </v>
    <v>       0.65040703       0.00001701       0.56925204 </v>
    <v>       0.00001701       0.34957696       0.56925204 </v>
    <v>       0.34957696       0.65040703       0.56925204 </v>
    <v>       0.34959297       0.99998299       0.43074796 </v>
    <v>       0.99998299       0.65042304       0.43074796 </v>
    <v>       0.65042304       0.34959297       0.43074796 </v>
   </varray>
  </structure>
  <varray name="forces" >
   <v>       0.00000000       0.00000000       0.01323474 </v>
   <v>       0.00000000      -0.00000000      -0.01323474 </v>
   <v>       0.00000000      -0.00000000      -0.08826066 </v>
   <v>       0.00000000       0.00000000       0.08826066 </v>
   <v>      -0.06050001       0.00370912       0.18234149 </v>
   <v>       0.03346219       0.05053998       0.18234149 </v>
   <v>       0.02703782      -0.05424910       0.18234149 </v>
   <v>       0.06050001      -0.00370912      -0.18234149 </v>
   <v>      -0.03346219      -0.05053998      -0.18234149 </v>
   <v>      -0.02703782       0.05424910      -0.18234149 </v>
  </varray>
  <varray name="stress" >
   <v>       1.07555263      -0.00000005       0.00000000 </v>
   <v>      -0.00000007       1.07555254      -0.00000000 </v>
   <v>       0.00000000       0.00000000       4.15330636 </v>
  </varray>
  <energy>
   <i name="e_fr_energy">    -54.62033784 </i>
   <i name="e_wo_entrp">    -54.62033784 </i>
   <i name="e_0_energy">      0.00000000 </i>
  </energy>
  <time name="totalsc">  637.10  640.78</time>
 </calculation>
 <calculation>
  <scstep>
   <time name="dav">   26.88   27.06</time>
   <time name="total">   81.08   81.43</time>
   <energy>
    <i name="alphaZ">     29.30463521 </i>
    <i name="ewald">   8103.35561297 </i>
    <i name="hartreedc"> -10402.43373812 </i>
    <i name="XCdc">     43.63203120 </i>
    <i name="pawpsdc">   1267.57631455 </i>
    <i name="pawaedc">  -1188.83458496 </i>
    <i name="eentropy">      0.00000000 </i>
    <i name="bandstr">   -483.69328688 </i>
    <i name="atom">   2576.47363623 </i>
    <i name="e_fr_energy">    -54.61937981 </i>
    <i name="e_wo_entrp">    -54.61937981 </i>
    <i name="e_0_energy">    -54.61937981 </i>
   </energy>
  </scstep>
  <scstep>
   <time name="dav">   24.84   25.02</time>
   <time name="total">   79.04   79.33</time>
   <energy>
    <i name="e_fr_energy">    -54.61914698 </i>
    <i name="e_wo_entrp">    -54.61914698 </i>
    <i name="e_0_energy">    -54.61914698 </i>
   </energy>
  </scstep>
  <scstep>
   <time name="dav">   31.52   31.64</time>
   <time name="total">   85.87   86.09</time>
   <energy>
    <i name="e_fr_energy">    -54.61892671 </i>
    <i name="e_wo_entrp">    -54.61892671 </i>
    <i name="e_0_energy">    -54.61892671 </i>
   </energy>
  </scstep>
  <scstep>
   <time name="dav">   27.41   27.55</time>
   <time name="total">   81.66   81.95</time>
   <energy>
    <i name="e_fr_energy">    -54.61878392 </i>
    <i name="e_wo_entrp">    -54.61878392 </i>
    <i name="e_0_energy">    -54.61878392 </i>
   </energy>
  </scstep>
  <scstep>
   <time name="dav">   23.12   23.31</time>
   <time name="total">   75.32   75.58</time>
   <energy>
    <i name="alphaZ">     29.30463521 </i>
    <i name="ewald">   8103.35561297 </i>
    <i name="hartreedc"> -10403.49759351 </i>
    <i name="XCdc">     43.69868630 </i>
    <i name="pawpsdc">   1266.65660125 </i>
    <i name="pawaedc">  -1187.90388092 </i>
    <i name="eentropy">      0.00000000 </i>
    <i name="bandstr">   -482.70641615 </i>
    <i name="atom">   2576.47363623 </i>
    <i name="e_fr_energy">    -54.61871863 </i>
    <i name="e_wo_entrp">    -54.61871863 </i>
    <i name="e_0_energy">    -54.61871863 </i>
   </energy>
  </scstep>
  <structure>
   <crystal>
    <varray name="basis" >
     <v>       5.98238977       0.00000007       0.00000000 </v>
     <v>       2.99119452       5.18090134       0.00000000 </v>
     <v>       0.00000000       0.00000000      20.99312973 </v>
    </varray>
    <i name="volume">    650.66465157 </i>
    <varray name="rec_basis" >
     <v>       0.16715728      -0.09650829      -0.00000000 </v>
     <v>      -0.00000000       0.19301661      -0.00000000 </v>
     <v>      -0.00000000      -0.00000000       0.04763463 </v>
    </varray>
   </crystal>
   <varray name="positions" >
    <v>       0.33333300       0.33333300       0.49992500 </v>
    <v>       0.66666700       0.66666700       0.50007500 </v>
    <v>      -0.00000000       0.00000000       0.44687084 </v>
    <v>      -0.00000000       0.00000000       0.55312916 </v>
    <v>       0.64969847       0.00002253       0.56921461 </v>
    <v>       0.00002253       0.35027999       0.56921461 </v>
    <v>       0.35027999       0.64969847       0.56921461 </v>
    <v>       0.35030153       0.99997747       0.43078539 </v>
    <v>       0.99997747       0.64972001       0.43078539 </v>
    <v>       0.64972001       0.35030153       0.43078539 </v>
   </varray>
  </structure>
  <varray name="forces" >
   <v>       0.00000000      -0.00000000       0.01294087 </v>
   <v>       0.00000000      -0.00000000      -0.01294087 </v>
   <v>       0.00000000      -0.00000000       0.01370748 </v>
   <v>       0.00000000      -0.00000000      -0.01370748 </v>
   <v>      -0.03857663       0.00332690       0.15160055 </v>
   <v>       0.02216949       0.03174489       0.15160055 </v>
   <v>       0.01640714      -0.03507179       0.15160055 </v>
   <v>       0.03857663      -0.00332690      -0.15160055 </v>
   <v>      -0.02216949      -0.03174489      -0.15160055 </v>
   <v>      -0.01640714       0.03507179      -0.15160055 </v>
  </varray>
  <varray name="stress" >
   <v>       0.14233242       0.00000027       0.00000000 </v>
   <v>      -0.00000029       0.14233241       0.00000000 </v>
   <v>      -0.00000000       0.00000000       3.08596359 </v>
  </varray>
  <energy>
   <i name="e_fr_energy">    -54.61871863 </i>
   <i name="e_wo_entrp">    -54.61871863 </i>
   <i name="e_0_energy">      0.00000000 </i>
  </energy>
  <time name="totalsc">  540.13  541.97</time>
 </calculation>
 <calculation>
  <scstep>
   <time name="dav">   27.41   27.53</time>
   <time name="total">   81.67   81.91</time>
   <energy>
    <i name="alphaZ">     29.25521831 </i>
    <i name="ewald">   8215.01449993 </i>
    <i name="hartreedc"> -10505.69386176 </i>
    <i name="XCdc">     43.55826253 </i>
    <i name="pawpsdc">   1266.45502022 </i>
    <i name="pawaedc">  -1187.69661419 </i>
    <i name="eentropy">      0.00000000 </i>
    <i name="bandstr">   -492.01721788 </i>
    <i name="atom">   2576.47363623 </i>
    <i name="e_fr_energy">    -54.65105660 </i>
    <i name="e_wo_entrp">    -54.65105660 </i>
    <i name="e_0_energy">    -54.65105660 </i>
   </energy>
  </scstep>
  <scstep>
   <time name="dav">   30.93   31.35</time>
   <time name="total">   85.03   85.75</time>
   <energy>
    <i name="e_fr_energy">    -54.64985526 </i>
    <i name="e_wo_entrp">    -54.64985526 </i>
    <i name="e_0_energy">    -54.64985526 </i>
   </energy>
  </scstep>
  <scstep>
   <time name="dav">   33.44   33.84</time>
   <time name="total">   87.25   88.28</time>
   <energy>
    <i name="e_fr_energy">    -54.64559717 </i>
    <i name="e_wo_entrp">    -54.64559717 </i>
    <i name="e_0_energy">    -54.64559717 </i>
   </energy>
  </scstep>
  <scstep>
   <time name="dav">   31.62   31.82</time>
   <time name="total">   85.67   86.21</time>
   <energy>
    <i name="e_fr_energy">    -54.64109969 </i>
    <i name="e_wo_entrp">    -54.64109969 </i>
    <i name="e_0_energy">    -54.64109969 </i>
   </energy>
  </scstep>
  <scstep>
   <time name="dav">   30.43   30.64</time>
   <time name="total">   84.61   85.15</time>
   <energy>
    <i name="e_fr_energy">    -54.64138324 </i>
    <i name="e_wo_entrp">    -54.64138324 </i>
    <i name="e_0_energy">    -54.64138324 </i>
   </energy>
  </scstep>
  <scstep>
   <time name="dav">   23.38   23.50</time>
   <time name="total">   75.75   75.99</time>
   <energy>
    <i name="alphaZ">     29.25521831 </i>
    <i name="ewald">   8215.01449993 </i>
    <i name="hartreedc"> -10510.88659968 </i>
    <i name="XCdc">     43.84710474 </i>
    <i name="pawpsdc">   1263.83626698 </i>
    <i name="pawaedc">  -1185.14658437 </i>
    <i name="eentropy">      0.00000000 </i>
    <i name="bandstr">   -487.03497280 </i>
    <i name="atom">   2576.47363623 </i>
    <i name="e_fr_energy">    -54.64143065 </i>
    <i name="e_wo_entrp">    -54.64143065 </i>
    <i name="e_0_energy">    -54.64143065 </i>
   </energy>
  </scstep>
  <structure>
   <crystal>
    <varray name="basis" >
     <v>       5.96619559       0.00000008       0.00000000 </v>
     <v>       2.98309743       5.16687677       0.00000000 </v>
     <v>       0.00000000       0.00000000      21.14290226 </v>
    </varray>
    <i name="volume">    651.76373160 </i>
    <varray name="rec_basis" >
     <v>       0.16761100      -0.09677025      -0.00000000 </v>
     <v>      -0.00000000       0.19354052      -0.00000000 </v>
     <v>      -0.00000000      -0.00000000       0.04729720 </v>
    </varray>
   </crystal>
   <varray name="positions" >
    <v>       0.33333300       0.33333300       0.49992500 </v>
    <v>       0.66666700       0.66666700       0.50007500 </v>
    <v>      -0.00000000       0.00000000       0.44743491 </v>
    <v>      -0.00000000       0.00000000       0.55256509 </v>
    <v>       0.65064920       0.00005498       0.56977751 </v>
    <v>       0.00005498       0.34929682       0.56977751 </v>
    <v>       0.34929682       0.65064920       0.56977751 </v>
    <v>       0.34935080       0.99994502       0.43022249 </v>
    <v>       0.99994502       0.65070318       0.43022249 </v>
    <v>       0.65070318       0.34935080       0.43022249 </v>
   </varray>
  </structure>
  <varray name="forces" >
   <v>       0.00000000      -0.00000000       0.01090595 </v>
   <v>       0.00000000      -0.00000000      -0.01090595 </v>
   <v>       0.00000000      -0.00000000      -0.04517373 </v>
   <v>       0.00000000      -0.00000000       0.04517373 </v>
   <v>       0.00859612       0.00208608       0.08132599 </v>
   <v>      -0.00249147      -0.00848750       0.08132599 </v>
   <v>      -0.00610466       0.00640142       0.08132599 </v>
   <v>      -0.00859612      -0.00208608      -0.08132599 </v>
   <v>       0.00249147       0.00848750      -0.08132599 </v>
   <v>       0.00610466      -0.00640142      -0.08132599 </v>
  </varray>
  <varray name="stress" >
   <v>       0.22754980      -0.00000022       0.00000000 </v>
   <v>       0.00000019       0.22754978       0.00000000 </v>
   <v>      -0.00000000       0.00000000       3.44641581 </v>
  </varray>
  <energy>
   <i name="e_fr_energy">    -54.64143065 </i>
   <i name="e_wo_entrp">    -54.64143065 </i>
   <i name="e_0_energy">      0.00000000 </i>
  </energy>
  <time name="totalsc">  635.72  640.55</time>
 </calculation>
 <calculation>
  <scstep>
   <time name="dav">   26.73   27.08</time>
   <time name="total">   81.04   81.49</time>
   <energy>
    <i name="alphaZ">     29.11873454 </i>
    <i name="ewald">   8552.64081122 </i>
    <i name="hartreedc"> -10821.31944891 </i>
    <i name="XCdc">     43.44947116 </i>
    <i name="pawpsdc">   1263.34912992 </i>
    <i name="pawaedc">  -1184.65327811 </i>
    <i name="eentropy">      0.00000000 </i>
    <i name="bandstr">   -513.77844979 </i>
    <i name="atom">   2576.47363623 </i>
    <i name="e_fr_energy">    -54.71939374 </i>
    <i name="e_wo_entrp">    -54.71939374 </i>
    <i name="e_0_energy">    -54.71939374 </i>
   </energy>
  </scstep>
  <scstep>
   <time name="dav">   33.61   33.82</time>
   <time name="total">   87.97   88.35</time>
   <energy>
    <i name="e_fr_energy">    -54.69299473 </i>
    <i name="e_wo_entrp">    -54.69299473 </i>
    <i name="e_0_energy">    -54.69299473 </i>
   </energy>
  </scstep>
  <scstep>
   <time name="dav">   33.81   34.02</time>
   <time name="total">   87.85   88.17</time>
   <energy>
    <i name="e_fr_energy">    -54.66534291 </i>
    <i name="e_wo_entrp">    -54.66534291 </i>
    <i name="e_0_energy">    -54.66534291 </i>
   </energy>
  </scstep>
[...]
        <r>  0.0076  0.0006  0.0013  0.0304  0.0000  0.0000  0.0000  0.0000  0.0000 </r>
        <r>  0.0048  0.0239  0.0053  0.0080  0.0000  0.0000  0.0000  0.0000  0.0000 </r>
        <r>  0.0077  0.0198  0.0013  0.0113  0.0000  0.0000  0.0000  0.0000  0.0000 </r>
       </set>
       <set comment="band 30">
        <r>  0.0000  0.0001  0.0001  0.0002  0.0241  0.0271  0.0372  0.0254  0.0636 </r>
        <r>  0.0000  0.0001  0.0001  0.0002  0.0241  0.0271  0.0372  0.0254  0.0636 </r>
        <r>  0.0402  0.0033  0.0295  0.0011  0.0000  0.0000  0.0000  0.0000  0.0000 </r>
        <r>  0.0402  0.0033  0.0295  0.0011  0.0000  0.0000  0.0000  0.0000  0.0000 </r>
        <r>  0.0014  0.0015  0.0016  0.0144  0.0000  0.0000  0.0000  0.0000  0.0000 </r>
        <r>  0.0038  0.0178  0.0006  0.0059  0.0000  0.0000  0.0000  0.0000  0.0000 </r>
        <r>  0.0014  0.0080  0.0016  0.0079  0.0000  0.0000  0.0000  0.0000  0.0000 </r>
        <r>  0.0014  0.0015  0.0016  0.0144  0.0000  0.0000  0.0000  0.0000  0.0000 </r>
        <r>  0.0038  0.0178  0.0006  0.0059  0.0000  0.0000  0.0000  0.0000  0.0000 </r>
        <r>  0.0014  0.0080  0.0016  0.0079  0.0000  0.0000  0.0000  0.0000  0.0000 </r>
       </set>
       <set comment="band 31">
        <r>  0.0024  0.0002  0.0018  0.0005  0.1829  0.0318  0.0030  0.0311  0.0838 </r>
        <r>  0.0024  0.0002  0.0018  0.0005  0.1829  0.0318  0.0030  0.0311  0.0838 </r>
        <r>  0.0000  0.0045  0.0000  0.0138  0.0000  0.0000  0.0000  0.0000  0.0000 </r>
        <r>  0.0000  0.0045  0.0000  0.0138  0.0000  0.0000  0.0000  0.0000  0.0000 </r>
        <r>  0.0034  0.0036  0.0029  0.0059  0.0000  0.0000  0.0000  0.0000  0.0000 </r>
        <r>  0.0000  0.0009  0.0000  0.0028  0.0000  0.0000  0.0000  0.0000  0.0000 </r>
        <r>  0.0034  0.0013  0.0029  0.0080  0.0000  0.0000  0.0000  0.0000  0.0000 </r>
        <r>  0.0034  0.0036  0.0029  0.0059  0.0000  0.0000  0.0000  0.0000  0.0000 </r>
        <r>  0.0000  0.0009  0.0000  0.0028  0.0000  0.0000  0.0000  0.0000  0.0000 </r>
        <r>  0.0034  0.0013  0.0029  0.0080  0.0000  0.0000  0.0000  0.0000  0.0000 </r>
       </set>
       <set comment="band 32">
        <r>  0.0012  0.0001  0.0006  0.0001  0.0708  0.0325  0.0852  0.0164  0.2098 </r>
        <r>  0.0012  0.0001  0.0006  0.0001  0.0708  0.0325  0.0852  0.0164  0.2098 </r>
        <r>  0.0000  0.0021  0.0000  0.0063  0.0000  0.0000  0.0000  0.0000  0.0000 </r>
        <r>  0.0000  0.0021  0.0000  0.0063  0.0000  0.0000  0.0000  0.0000  0.0000 </r>
        <r>  0.0011  0.0031  0.0016  0.0014  0.0000  0.0000  0.0000  0.0000  0.0000 </r>
        <r>  0.0000  0.0003  0.0000  0.0011  0.0000  0.0000  0.0000  0.0000  0.0000 </r>
        <r>  0.0011  0.0028  0.0016  0.0019  0.0000  0.0000  0.0000  0.0000  0.0000 </r>
        <r>  0.0011  0.0031  0.0016  0.0014  0.0000  0.0000  0.0000  0.0000  0.0000 </r>
        <r>  0.0000  0.0003  0.0000  0.0011  0.0000  0.0000  0.0000  0.0000  0.0000 </r>
        <r>  0.0011  0.0028  0.0016  0.0019  0.0000  0.0000  0.0000  0.0000  0.0000 </r>
       </set>
       <set comment="band 33">
        <r>  0.0009  0.0004  0.0004  0.0003  0.0910  0.0125  0.1941  0.0369  0.0489 </r>
        <r>  0.0009  0.0004  0.0004  0.0003  0.0910  0.0125  0.1941  0.0369  0.0489 </r>
        <r>  0.0021  0.0056  0.0105  0.0018  0.0000  0.0000  0.0000  0.0000  0.0000 </r>
        <r>  0.0021  0.0056  0.0105  0.0018  0.0000  0.0000  0.0000  0.0000  0.0000 </r>
        <r>  0.0007  0.0014  0.0016  0.0001  0.0000  0.0000  0.0000  0.0000  0.0000 </r>
        <r>  0.0014  0.0004  0.0032  0.0001  0.0000  0.0000  0.0000  0.0000  0.0000 </r>
        <r>  0.0007  0.0002  0.0016  0.0014  0.0000  0.0000  0.0000  0.0000  0.0000 </r>
        <r>  0.0007  0.0014  0.0016  0.0001  0.0000  0.0000  0.0000  0.0000  0.0000 </r>
        <r>  0.0014  0.0004  0.0032  0.0001  0.0000  0.0000  0.0000  0.0000  0.0000 </r>
        <r>  0.0007  0.0002  0.0016  0.0014  0.0000  0.0000  0.0000  0.0000  0.0000 </r>
       </set>
       <set comment="band 34">
        <r>  0.0000  0.0001  0.0008  0.0000  0.0562  0.1105  0.1525  0.0386  0.0204 </r>
        <r>  0.0000  0.0001  0.0008  0.0000  0.0562  0.1105  0.1525  0.0386  0.0204 </r>
        <r>  0.0000  0.0004  0.0000  0.0013  0.0000  0.0000  0.0000  0.0000  0.0000 </r>
        <r>  0.0000  0.0004  0.0000  0.0013  0.0000  0.0000  0.0000  0.0000  0.0000 </r>
        <r>  0.0015  0.0001  0.0057  0.0051  0.0000  0.0000  0.0000  0.0000  0.0000 </r>
        <r>  0.0000  0.0012  0.0000  0.0038  0.0000  0.0000  0.0000  0.0000  0.0000 </r>
        <r>  0.0015  0.0041  0.0057  0.0012  0.0000  0.0000  0.0000  0.0000  0.0000 </r>
        <r>  0.0015  0.0001  0.0057  0.0051  0.0000  0.0000  0.0000  0.0000  0.0000 </r>
        <r>  0.0000  0.0012  0.0000  0.0038  0.0000  0.0000  0.0000  0.0000  0.0000 </r>
        <r>  0.0015  0.0041  0.0057  0.0012  0.0000  0.0000  0.0000  0.0000  0.0000 </r>
       </set>
       <set comment="band 35">
        <r>  0.0049  0.0002  0.0050  0.0004  0.0196  0.0341  0.0030  0.0483  0.0064 </r>
        <r>  0.0049  0.0002  0.0050  0.0004  0.0196  0.0341  0.0030  0.0483  0.0064 </r>
        <r>  0.0013  0.0336  0.0004  0.0112  0.0000  0.0000  0.0000  0.0000  0.0000 </r>
        <r>  0.0013  0.0336  0.0004  0.0112  0.0000  0.0000  0.0000  0.0000  0.0000 </r>
        <r>  0.0009  0.0001  0.0046  0.0061  0.0000  0.0000  0.0000  0.0000  0.0000 </r>
        <r>  0.0092  0.0403  0.0091  0.0134  0.0000  0.0000  0.0000  0.0000  0.0000 </r>
        <r>  0.0009  0.0042  0.0046  0.0021  0.0000  0.0000  0.0000  0.0000  0.0000 </r>
        <r>  0.0009  0.0001  0.0046  0.0061  0.0000  0.0000  0.0000  0.0000  0.0000 </r>
        <r>  0.0092  0.0403  0.0091  0.0134  0.0000  0.0000  0.0000  0.0000  0.0000 </r>
        <r>  0.0009  0.0042  0.0046  0.0021  0.0000  0.0000  0.0000  0.0000  0.0000 </r>
       </set>
       <set comment="band 36">
        <r>  0.0007  0.0002  0.0000  0.0001  0.0118  0.0840  0.0080  0.1976  0.0349 </r>
        <r>  0.0007  0.0002  0.0000  0.0001  0.0118  0.0840  0.0080  0.1976  0.0349 </r>
        <r>  0.0000  0.0008  0.0000  0.0025  0.0000  0.0000  0.0000  0.0000  0.0000 </r>
        <r>  0.0000  0.0008  0.0000  0.0025  0.0000  0.0000  0.0000  0.0000  0.0000 </r>
        <r>  0.0027  0.0251  0.0020  0.0004  0.0000  0.0000  0.0000  0.0000  0.0000 </r>
        <r>  0.0000  0.0045  0.0000  0.0132  0.0000  0.0000  0.0000  0.0000  0.0000 </r>
        <r>  0.0027  0.0042  0.0019  0.0213  0.0000  0.0000  0.0000  0.0000  0.0000 </r>
        <r>  0.0027  0.0251  0.0020  0.0004  0.0000  0.0000  0.0000  0.0000  0.0000 </r>
        <r>  0.0000  0.0045  0.0000  0.0132  0.0000  0.0000  0.0000  0.0000  0.0000 </r>
        <r>  0.0027  0.0042  0.0019  0.0213  0.0000  0.0000  0.0000  0.0000  0.0000 </r>
       </set>
       <set comment="band 37">
        <r>  0.0017  0.0002  0.0003  0.0006  0.0612  0.0582  0.0070  0.0782  0.0268 </r>
        <r>  0.0017  0.0002  0.0003  0.0006  0.0612  0.0582  0.0070  0.0782  0.0268 </r>
        <r>  0.0030  0.0133  0.0022  0.0045  0.0000  0.0000  0.0000  0.0000  0.0000 </r>
        <r>  0.0030  0.0133  0.0022  0.0045  0.0000  0.0000  0.0000  0.0000  0.0000 </r>
        <r>  0.0040  0.0114  0.0034  0.0029  0.0000  0.0000  0.0000  0.0000  0.0000 </r>
        <r>  0.0105  0.0179  0.0115  0.0060  0.0000  0.0000  0.0000  0.0000  0.0000 </r>
        <r>  0.0040  0.0001  0.0034  0.0141  0.0000  0.0000  0.0000  0.0000  0.0000 </r>
        <r>  0.0040  0.0114  0.0034  0.0029  0.0000  0.0000  0.0000  0.0000  0.0000 </r>
        <r>  0.0105  0.0179  0.0115  0.0060  0.0000  0.0000  0.0000  0.0000  0.0000 </r>
        <r>  0.0040  0.0001  0.0034  0.0141  0.0000  0.0000  0.0000  0.0000  0.0000 </r>
       </set>
       <set comment="band 38">
        <r>  0.0000  0.0006  0.0001  0.0006  0.0366  0.1236  0.0051  0.0465  0.0343 </r>
        <r>  0.0000  0.0006  0.0001  0.0006  0.0366  0.1236  0.0051  0.0465  0.0343 </r>
        <r>  0.0207  0.0002  0.0281  0.0001  0.0000  0.0000  0.0000  0.0000  0.0000 </r>
        <r>  0.0207  0.0002  0.0281  0.0001  0.0000  0.0000  0.0000  0.0000  0.0000 </r>
        <r>  0.0002  0.0006  0.0035  0.0342  0.0000  0.0000  0.0000  0.0000  0.0000 </r>
        <r>  0.0012  0.0143  0.0003  0.0048  0.0000  0.0000  0.0000  0.0000  0.0000 </r>
        <r>  0.0003  0.0246  0.0035  0.0102  0.0000  0.0000  0.0000  0.0000  0.0000 </r>
        <r>  0.0002  0.0006  0.0035  0.0342  0.0000  0.0000  0.0000  0.0000  0.0000 </r>
        <r>  0.0012  0.0143  0.0003  0.0048  0.0000  0.0000  0.0000  0.0000  0.0000 </r>
        <r>  0.0003  0.0246  0.0035  0.0102  0.0000  0.0000  0.0000  0.0000  0.0000 </r>
       </set>
       <set comment="band 39">
        <r>  0.0083  0.0009  0.0006  0.0005  0.0174  0.0500  0.0076  0.0168  0.0061 </r>
        <r>  0.0083  0.0009  0.0006  0.0005  0.0174  0.0500  0.0076  0.0168  0.0061 </r>
        <r>  0.0000  0.0103  0.0000  0.0308  0.0000  0.0000  0.0000  0.0000  0.0000 </r>
        <r>  0.0000  0.0103  0.0000  0.0308  0.0000  0.0000  0.0000  0.0000  0.0000 </r>
        <r>  0.0056  0.0168  0.0033  0.0257  0.0000  0.0000  0.0000  0.0000  0.0000 </r>
        <r>  0.0000  0.0052  0.0000  0.0157  0.0000  0.0000  0.0000  0.0000  0.0000 </r>
        <r>  0.0056  0.0416  0.0033  0.0010  0.0000  0.0000  0.0000  0.0000  0.0000 </r>
        <r>  0.0056  0.0168  0.0033  0.0257  0.0000  0.0000  0.0000  0.0000  0.0000 </r>
        <r>  0.0000  0.0052  0.0000  0.0157  0.0000  0.0000  0.0000  0.0000  0.0000 </r>
        <r>  0.0056  0.0416  0.0033  0.0010  0.0000  0.0000  0.0000  0.0000  0.0000 </r>
       </set>
       <set comment="band 40">
        <r>  0.0131  0.0029  0.0027  0.0020  0.0159  0.0178  0.0236  0.0089  0.0404 </r>
        <r>  0.0131  0.0029  0.0027  0.0020  0.0159  0.0178  0.0236  0.0089  0.0404 </r>
        <r>  0.0099  0.0281  0.0308  0.0093  0.0000  0.0000  0.0000  0.0000  0.0000 </r>
        <r>  0.0099  0.0281  0.0308  0.0093  0.0000  0.0000  0.0000  0.0000  0.0000 </r>
        <r>  0.0008  0.0024  0.0096  0.0022  0.0000  0.0000  0.0000  0.0000  0.0000 </r>
        <r>  0.0133  0.0086  0.0128  0.0029  0.0000  0.0000  0.0000  0.0000  0.0000 </r>
        <r>  0.0008  0.0004  0.0096  0.0043  0.0000  0.0000  0.0000  0.0000  0.0000 </r>
        <r>  0.0008  0.0024  0.0096  0.0022  0.0000  0.0000  0.0000  0.0000  0.0000 </r>
        <r>  0.0133  0.0086  0.0128  0.0029  0.0000  0.0000  0.0000  0.0000  0.0000 </r>
        <r>  0.0008  0.0004  0.0096  0.0043  0.0000  0.0000  0.0000  0.0000  0.0000 </r>
       </set>
       <set comment="band 41">
        <r>  0.0123  0.0022  0.0002  0.0012  0.0353  0.0222  0.0289  0.0445  0.0203 </r>
        <r>  0.0123  0.0022  0.0002  0.0012  0.0353  0.0222  0.0289  0.0445  0.0203 </r>
        <r>  0.0075  0.0237  0.0238  0.0080  0.0000  0.0000  0.0000  0.0000  0.0000 </r>
        <r>  0.0075  0.0237  0.0238  0.0080  0.0000  0.0000  0.0000  0.0000  0.0000 </r>
        <r>  0.0021  0.0044  0.0083  0.0014  0.0000  0.0000  0.0000  0.0000  0.0000 </r>
        <r>  0.0074  0.0117  0.0203  0.0039  0.0000  0.0000  0.0000  0.0000  0.0000 </r>
        <r>  0.0021  0.0021  0.0083  0.0037  0.0000  0.0000  0.0000  0.0000  0.0000 </r>
        <r>  0.0021  0.0044  0.0083  0.0014  0.0000  0.0000  0.0000  0.0000  0.0000 </r>
        <r>  0.0074  0.0117  0.0203  0.0039  0.0000  0.0000  0.0000  0.0000  0.0000 </r>
        <r>  0.0021  0.0021  0.0083  0.0037  0.0000  0.0000  0.0000  0.0000  0.0000 </r>
       </set>
       <set comment="band 42">
        <r>  0.0093  0.0006  0.0010  0.0002  0.0079  0.0198  0.0107  0.0340  0.0149 </r>
        <r>  0.0093  0.0006  0.0010  0.0002  0.0079  0.0198  0.0107  0.0340  0.0149 </r>
        <r>  0.0000  0.0163  0.0000  0.0487  0.0000  0.0000  0.0000  0.0000  0.0000 </r>
        <r>  0.0000  0.0163  0.0000  0.0487  0.0000  0.0000  0.0000  0.0000  0.0000 </r>
        <r>  0.0045  0.0054  0.0010  0.0245  0.0000  0.0000  0.0000  0.0000  0.0000 </r>
        <r>  0.0000  0.0068  0.0000  0.0205  0.0000  0.0000  0.0000  0.0000  0.0000 </r>
        <r>  0.0045  0.0284  0.0010  0.0015  0.0000  0.0000  0.0000  0.0000  0.0000 </r>
        <r>  0.0045  0.0054  0.0010  0.0245  0.0000  0.0000  0.0000  0.0000  0.0000 </r>
        <r>  0.0000  0.0068  0.0000  0.0205  0.0000  0.0000  0.0000  0.0000  0.0000 </r>
        <r>  0.0045  0.0284  0.0010  0.0015  0.0000  0.0000  0.0000  0.0000  0.0000 </r>
       </set>
       <set comment="band 43">
        <r>  0.0004  0.0021  0.0007  0.0041  0.0025  0.0042  0.0053  0.0020  0.0024 </r>
        <r>  0.0004  0.0021  0.0007  0.0041  0.0025  0.0042  0.0053  0.0020  0.0024 </r>
        <r>  0.0021  0.0016  0.0062  0.0005  0.0000  0.0000  0.0000  0.0000  0.0000 </r>
        <r>  0.0021  0.0016  0.0062  0.0005  0.0000  0.0000  0.0000  0.0000  0.0000 </r>
        <r>  0.0010  0.0004  0.0031  0.0037  0.0000  0.0000  0.0000  0.0000  0.0000 </r>
        <r>  0.0029  0.0023  0.0026  0.0007  0.0000  0.0000  0.0000  0.0000  0.0000 </r>
        <r>  0.0010  0.0020  0.0031  0.0020  0.0000  0.0000  0.0000  0.0000  0.0000 </r>
        <r>  0.0010  0.0004  0.0031  0.0037  0.0000  0.0000  0.0000  0.0000  0.0000 </r>
        <r>  0.0029  0.0023  0.0026  0.0007  0.0000  0.0000  0.0000  0.0000  0.0000 </r>
        <r>  0.0010  0.0020  0.0031  0.0020  0.0000  0.0000  0.0000  0.0000  0.0000 </r>
       </set>
       <set comment="band 44">
        <r>  0.0024  0.0028  0.0041  0.0013  0.0061  0.0011  0.0000  0.0008  0.0077 </r>
        <r>  0.0024  0.0028  0.0041  0.0013  0.0061  0.0011  0.0000  0.0008  0.0077 </r>
        <r>  0.0000  0.0014  0.0000  0.0043  0.0000  0.0000  0.0000  0.0000  0.0000 </r>
        <r>  0.0000  0.0014  0.0000  0.0043  0.0000  0.0000  0.0000  0.0000  0.0000 </r>
        <r>  0.0013  0.0012  0.0074  0.0028  0.0000  0.0000  0.0000  0.0000  0.0000 </r>
        <r>  0.0000  0.0007  0.0000  0.0021  0.0000  0.0000  0.0000  0.0000  0.0000 </r>
        <r>  0.0013  0.0038  0.0074  0.0002  0.0000  0.0000  0.0000  0.0000  0.0000 </r>
        <r>  0.0013  0.0012  0.0074  0.0028  0.0000  0.0000  0.0000  0.0000  0.0000 </r>
        <r>  0.0000  0.0007  0.0000  0.0021  0.0000  0.0000  0.0000  0.0000  0.0000 </r>
        <r>  0.0013  0.0038  0.0074  0.0002  0.0000  0.0000  0.0000  0.0000  0.0000 </r>
       </set>
       <set comment="band 45">
        <r>  0.0113  0.0000  0.0139  0.0000  0.0082  0.0007  0.0077  0.0006  0.0166 </r>
        <r>  0.0113  0.0000  0.0139  0.0000  0.0082  0.0007  0.0077  0.0006  0.0166 </r>
        <r>  0.0001  0.0033  0.0007  0.0011  0.0000  0.0000  0.0000  0.0000  0.0000 </r>
        <r>  0.0001  0.0033  0.0007  0.0011  0.0000  0.0000  0.0000  0.0000  0.0000 </r>
        <r>  0.0003  0.0020  0.0007  0.0005  0.0000  0.0000  0.0000  0.0000  0.0000 </r>
        <r>  0.0012  0.0011  0.0065  0.0004  0.0000  0.0000  0.0000  0.0000  0.0000 </r>
        <r>  0.0002  0.0000  0.0007  0.0025  0.0000  0.0000  0.0000  0.0000  0.0000 </r>
        <r>  0.0003  0.0020  0.0007  0.0005  0.0000  0.0000  0.0000  0.0000  0.0000 </r>
        <r>  0.0012  0.0011  0.0065  0.0004  0.0000  0.0000  0.0000  0.0000  0.0000 </r>
        <r>  0.0002  0.0000  0.0007  0.0025  0.0000  0.0000  0.0000  0.0000  0.0000 </r>
       </set>
       <set comment="band 46">
        <r>  0.0005  0.0001  0.0003  0.0001  0.0002  0.0002  0.0042  0.0001  0.0005 </r>
        <r>  0.0005  0.0001  0.0003  0.0001  0.0002  0.0002  0.0042  0.0001  0.0005 </r>
        <r>  0.0000  0.0004  0.0000  0.0013  0.0000  0.0000  0.0000  0.0000  0.0000 </r>
        <r>  0.0000  0.0004  0.0000  0.0013  0.0000  0.0000  0.0000  0.0000  0.0000 </r>
        <r>  0.0017  0.0006  0.0038  0.0017  0.0000  0.0000  0.0000  0.0000  0.0000 </r>
        <r>  0.0000  0.0004  0.0000  0.0011  0.0000  0.0000  0.0000  0.0000  0.0000 </r>
        <r>  0.0017  0.0019  0.0038  0.0003  0.0000  0.0000  0.0000  0.0000  0.0000 </r>
        <r>  0.0017  0.0006  0.0038  0.0017  0.0000  0.0000  0.0000  0.0000  0.0000 </r>
        <r>  0.0000  0.0004  0.0000  0.0011  0.0000  0.0000  0.0000  0.0000  0.0000 </r>
        <r>  0.0017  0.0019  0.0038  0.0003  0.0000  0.0000  0.0000  0.0000  0.0000 </r>
       </set>
       <set comment="band 47">
        <r>  0.0410  0.0021  0.0010  0.0021  0.0016  0.0003  0.0002  0.0006  0.0025 </r>
        <r>  0.0410  0.0021  0.0010  0.0021  0.0016  0.0003  0.0002  0.0006  0.0025 </r>
        <r>  0.0004  0.0071  0.0036  0.0024  0.0000  0.0000  0.0000  0.0000  0.0000 </r>
        <r>  0.0004  0.0071  0.0036  0.0024  0.0000  0.0000  0.0000  0.0000  0.0000 </r>
        <r>  0.0005  0.0016  0.0057  0.0006  0.0000  0.0000  0.0000  0.0000  0.0000 </r>
        <r>  0.0003  0.0015  0.0086  0.0005  0.0000  0.0000  0.0000  0.0000  0.0000 </r>
        <r>  0.0005  0.0000  0.0057  0.0022  0.0000  0.0000  0.0000  0.0000  0.0000 </r>
        <r>  0.0005  0.0016  0.0057  0.0006  0.0000  0.0000  0.0000  0.0000  0.0000 </r>
        <r>  0.0003  0.0015  0.0086  0.0005  0.0000  0.0000  0.0000  0.0000  0.0000 </r>
        <r>  0.0005  0.0000  0.0057  0.0022  0.0000  0.0000  0.0000  0.0000  0.0000 </r>
       </set>
       <set comment="band 48">
        <r>  0.0074  0.0014  0.0146  0.0020  0.0020  0.0002  0.0008  0.0001  0.0021 </r>
        <r>  0.0074  0.0014  0.0146  0.0020  0.0020  0.0002  0.0008  0.0001  0.0021 </r>
        <r>  0.0009  0.0025  0.0094  0.0008  0.0000  0.0000  0.0000  0.0000  0.0000 </r>
        <r>  0.0009  0.0025  0.0094  0.0008  0.0000  0.0000  0.0000  0.0000  0.0000 </r>
        <r>  0.0002  0.0003  0.0012  0.0010  0.0000  0.0000  0.0000  0.0000  0.0000 </r>
        <r>  0.0013  0.0004  0.0106  0.0001  0.0000  0.0000  0.0000  0.0000  0.0000 </r>
        <r>  0.0002  0.0007  0.0013  0.0006  0.0000  0.0000  0.0000  0.0000  0.0000 </r>
        <r>  0.0002  0.0003  0.0012  0.0010  0.0000  0.0000  0.0000  0.0000  0.0000 </r>
        <r>  0.0013  0.0004  0.0106  0.0001  0.0000  0.0000  0.0000  0.0000  0.0000 </r>
        <r>  0.0002  0.0007  0.0013  0.0006  0.0000  0.0000  0.0000  0.0000  0.0000 </r>
       </set>
      </set>
     </set>
    </set>
   </array>
  </projected>
 </calculation>
 <structure name="finalpos" >
  <crystal>
   <varray name="basis" >
    <v>       5.94994480       0.00000010       0.00000000 </v>
    <v>       2.97497202       5.15280318       0.00000000 </v>
    <v>       0.00000000       0.00000000      21.37519005 </v>
   </varray>
   <i name="volume">    655.33968961 </i>
   <varray name="rec_basis" >
    <v>       0.16806879      -0.09703455      -0.00000000 </v>
    <v>      -0.00000000       0.19406913      -0.00000000 </v>
    <v>      -0.00000000      -0.00000000       0.04678321 </v>
   </varray>
  </crystal>
  <varray name="positions" >
   <v>       0.33333300       0.33333300       0.49992500 </v>
   <v>       0.66666700       0.66666700       0.50007500 </v>
   <v>      -0.00000000       0.00000000       0.44785300 </v>
   <v>      -0.00000000       0.00000000       0.55214700 </v>
   <v>       0.65286976       0.00011401       0.57057704 </v>
   <v>       0.00011401       0.34701723       0.57057704 </v>
   <v>       0.34701723       0.65286976       0.57057704 </v>
   <v>       0.34713024       0.99988599       0.42942296 </v>
   <v>       0.99988599       0.65298277       0.42942296 </v>
   <v>       0.65298277       0.34713024       0.42942296 </v>
  </varray>
  <varray name="selective"  type="logical" >
   <v type="logical" >  F  F  F </v>
   <v type="logical" >  F  F  F </v>
   <v type="logical" >  T  T  T </v>
   <v type="logical" >  T  T  T </v>
   <v type="logical" >  T  T  T </v>
   <v type="logical" >  T  T  T </v>
   <v type="logical" >  T  T  T </v>
   <v type="logical" >  T  T  T </v>
   <v type="logical" >  T  T  T </v>
   <v type="logical" >  T  T  T </v>
  </varray>
  <nose>
   <v>      -3.00000000       0.00000000       0.00010000       0.00010000 </v>
  </nose>
 </structure>
</modeling>
