unknown system                          
           1
     6.907777   -0.000000    0.000000
     3.453888    5.982310    0.000000
     0.000000    0.000000   23.444588
   Cr   P    S 
   2   2   6
Direct configuration=     1
   0.33333300  0.33333300  0.49992500
   0.66666700  0.66666700  0.50007500
   0.00000000  0.00000000  0.44821600
   0.00000000  0.00000000  0.55178400
   0.62635700  0.00042000  0.57375200
   0.00042000  0.37322400  0.57375200
   0.37322400  0.62635700  0.57375200
   0.37364300  0.99958000  0.42624800
   0.99958000  0.62677600  0.42624800
   0.62677600  0.37364300  0.42624800
unknown system                          
           1
     6.017459    0.000000   -0.000000
     3.008729    5.211273   -0.000000
     0.000000   -0.000000   21.173390
   Cr   P    S 
   2   2   6
Direct configuration=     2
   0.33333300  0.33333300  0.49992500
   0.66666700  0.66666700  0.50007500
   0.00000000  0.00000000  0.44875745
   0.00000000 -0.00000000  0.55124255
   0.63113606  0.00038747  0.56995111
   0.00038747  0.36847747  0.56995111
   0.36847747  0.63113606  0.56995111
   0.36886394  0.99961253  0.43004889
   0.99961253  0.63152253  0.43004889
   0.63152253  0.36886394  0.43004889
unknown system                          
           1
     5.976711    0.000000   -0.000000
     2.988355    5.175983   -0.000000
     0.000000   -0.000000   21.069440
   Cr   P    S 
   2   2   6
Direct configuration=     3
   0.33333300  0.33333300  0.49992500
   0.66666700  0.66666700  0.50007500
   0.00000000  0.00000000  0.44878489
   0.00000000 -0.00000000  0.55121511
   0.63138715  0.00038576  0.56975849
   0.00038576  0.36822808  0.56975849
   0.36822808  0.63138715  0.56975849
   0.36861285  0.99961424  0.43024151
   0.99961424  0.63177192  0.43024151
   0.63177192  0.36861285  0.43024151
unknown system                          
           1
     5.953349    0.000000   -0.000000
     2.976674    5.155751   -0.000000
    -0.000000   -0.000000   21.173050
   Cr   P    S 
   2   2   6
Direct configuration=     4
   0.33333300  0.33333300  0.49992500
   0.66666700  0.66666700  0.50007500
   0.00000000  0.00000000  0.44551555
   0.00000000 -0.00000000  0.55448445
   0.63543391  0.00029255  0.56929074
   0.00029255  0.36427455  0.56929074
   0.36427455  0.63543391  0.56929074
   0.36456609  0.99970745  0.43070926
   0.99970745  0.63572545  0.43070926
   0.63572545  0.36456609  0.43070926
unknown system                          
           1
     5.953857    0.000000   -0.000000
     2.976928    5.156191   -0.000000
    -0.000000   -0.000000   21.170797
   Cr   P    S 
   2   2   6
Direct configuration=     5
   0.33333300  0.33333300  0.49992500
   0.66666700  0.66666700  0.50007500
   0.00000000  0.00000000  0.44558633
   0.00000000 -0.00000000  0.55441367
   0.63534553  0.00029458  0.56930086
   0.00029458  0.36436089  0.56930086
   0.36436089  0.63534553  0.56930086
   0.36465447  0.99970542  0.43069914
   0.99970542  0.63563911  0.43069914
   0.63563911  0.36465447  0.43069914
unknown system                          
           1
     5.972955    0.000000   -0.000000
     2.986477    5.172730    0.000000
     0.000000    0.000000   21.132576
   Cr   P    S 
   2   2   6
Direct configuration=     6
   0.33333300  0.33333300  0.49992500
   0.66666700  0.66666700  0.50007500
  -0.00000000  0.00000000  0.44568693
  -0.00000000  0.00000000  0.55431307
   0.63893539  0.00021780  0.56923321
   0.00021780  0.36084781  0.56923321
   0.36084781  0.63893539  0.56923321
   0.36106461  0.99978220  0.43076679
   0.99978220  0.63915219  0.43076679
   0.63915219  0.36106461  0.43076679
unknown system                          
           1
     6.016675    0.000000    0.000000
     3.008337    5.210594    0.000000
     0.000000    0.000000   21.045078
   Cr   P    S 
   2   2   6
Direct configuration=     7
   0.33333300  0.33333300  0.49992500
   0.66666700  0.66666700  0.50007500
  -0.00000000  0.00000000  0.44591767
  -0.00000000  0.00000000  0.55408233
   0.64712739  0.00004259  0.56907806
   0.00004259  0.35283101  0.56907806
   0.35283101  0.64712739  0.56907806
   0.35287261  0.99995741  0.43092194
   0.99995741  0.64716899  0.43092194
   0.64716899  0.35287261  0.43092194
unknown system                          
           1
     5.973028    0.000000    0.000000
     2.986514    5.172794    0.000000
     0.000000    0.000000   20.978946
   Cr   P    S 
   2   2   6
Direct configuration=     8
   0.33333300  0.33333300  0.49992500
   0.66666700  0.66666700  0.50007500
  -0.00000000  0.00000000  0.44713214
  -0.00000000  0.00000000  0.55286786
   0.65040703  0.00001701  0.56925204
   0.00001701  0.34957696  0.56925204
   0.34957696  0.65040703  0.56925204
   0.34959297  0.99998299  0.43074796
   0.99998299  0.65042304  0.43074796
   0.65042304  0.34959297  0.43074796
unknown system                          
           1
     5.982390    0.000000    0.000000
     2.991195    5.180901    0.000000
     0.000000    0.000000   20.993130
   Cr   P    S 
   2   2   6
Direct configuration=     9
   0.33333300  0.33333300  0.49992500
   0.66666700  0.66666700  0.50007500
  -0.00000000  0.00000000  0.44687084
  -0.00000000  0.00000000  0.55312916
   0.64969847  0.00002253  0.56921461
   0.00002253  0.35027999  0.56921461
   0.35027999  0.64969847  0.56921461
   0.35030153  0.99997747  0.43078539
   0.99997747  0.64972001  0.43078539
   0.64972001  0.35030153  0.43078539
unknown system                          
           1
     5.966196    0.000000    0.000000
     2.983097    5.166877    0.000000
     0.000000    0.000000   21.142902
   Cr   P    S 
   2   2   6
Direct configuration=    10
   0.33333300  0.33333300  0.49992500
   0.66666700  0.66666700  0.50007500
  -0.00000000  0.00000000  0.44743491
  -0.00000000  0.00000000  0.55256509
   0.65064920  0.00005498  0.56977751
   0.00005498  0.34929682  0.56977751
   0.34929682  0.65064920  0.56977751
   0.34935080  0.99994502  0.43022249
   0.99994502  0.65070318  0.43022249
   0.65070318  0.34935080  0.43022249
unknown system                          
           1
     5.917613    0.000000    0.000000
     2.958806    5.124803    0.000000
     0.000000    0.000000   21.592220
   Cr   P    S 
   2   2   6
Direct configuration=    11
   0.33333300  0.33333300  0.49992500
   0.66666700  0.66666700  0.50007500
  -0.00000000  0.00000000  0.44911516
  -0.00000000  0.00000000  0.55088484
   0.65350913  0.00015256  0.57145425
   0.00015256  0.34633930  0.57145425
   0.34633930  0.65350913  0.57145425
   0.34649087  0.99984744  0.42854575
   0.99984744  0.65366070  0.42854575
   0.65366070  0.34649087  0.42854575
unknown system                          
           1
     5.948528    0.000000    0.000000
     2.974263    5.151576    0.000000
     0.000000    0.000000   21.306306
   Cr   P    S 
   2   2   6
Direct configuration=    12
   0.33333300  0.33333300  0.49992500
   0.66666700  0.66666700  0.50007500
  -0.00000000  0.00000000  0.44806822
  -0.00000000  0.00000000  0.55193178
   0.65167433  0.00008996  0.57040949
   0.00008996  0.34823671  0.57040949
   0.34823671  0.65167433  0.57040949
   0.34832567  0.99991004  0.42959051
   0.99991004  0.65176329  0.42959051
   0.65176329  0.34832567  0.42959051
unknown system                          
           1
     5.946499    0.000000    0.000000
     2.973249    5.149819    0.000000
     0.000000    0.000000   21.435426
   Cr   P    S 
   2   2   6
Direct configuration=    13
   0.33333300  0.33333300  0.49992500
   0.66666700  0.66666700  0.50007500
  -0.00000000  0.00000000  0.44754641
  -0.00000000  0.00000000  0.55245359
   0.65318963  0.00012084  0.57066377
   0.00012084  0.34669053  0.57066377
   0.34669053  0.65318963  0.57066377
   0.34681037  0.99987916  0.42933623
   0.99987916  0.65330947  0.42933623
   0.65330947  0.34681037  0.42933623
unknown system                          
           1
     5.947091    0.000000    0.000000
     2.973545    5.150332    0.000000
     0.000000    0.000000   21.397743
   Cr   P    S 
   2   2   6
Direct configuration=    14
   0.33333300  0.33333300  0.49992500
   0.66666700  0.66666700  0.50007500
  -0.00000000  0.00000000  0.44769778
  -0.00000000  0.00000000  0.55230222
   0.65274725  0.00011183  0.57059001
   0.00011183  0.34714192  0.57059001
   0.34714192  0.65274725  0.57059001
   0.34725275  0.99988817  0.42940999
   0.99988817  0.65285808  0.42940999
   0.65285808  0.34725275  0.42940999
unknown system                          
           1
     5.955206    0.000000    0.000000
     2.977603    5.157359    0.000000
     0.000000    0.000000   21.333611
   Cr   P    S 
   2   2   6
Direct configuration=    15
   0.33333300  0.33333300  0.49992500
   0.66666700  0.66666700  0.50007500
  -0.00000000  0.00000000  0.44814162
  -0.00000000  0.00000000  0.55185838
   0.65309475  0.00011802  0.57055292
   0.00011802  0.34678824  0.57055292
   0.34678824  0.65309475  0.57055292
   0.34690525  0.99988198  0.42944708
   0.99988198  0.65321176  0.42944708
   0.65321176  0.34690525  0.42944708
unknown system                          
           1
     5.949945    0.000000    0.000000
     2.974972    5.152803    0.000000
     0.000000    0.000000   21.375190
   Cr   P    S 
   2   2   6
Direct configuration=    16
   0.33333300  0.33333300  0.49992500
   0.66666700  0.66666700  0.50007500
  -0.00000000  0.00000000  0.44785300
  -0.00000000  0.00000000  0.55214700
   0.65286976  0.00011401  0.57057704
   0.00011401  0.34701723  0.57057704
   0.34701723  0.65286976  0.57057704
   0.34713024  0.99988599  0.42942296
   0.99988599  0.65298277  0.42942296
   0.65298277  0.34713024  0.42942296
