 vasp.5.4.4.18Apr17-6-g9f103f2a35 (build May  1 2020 15:48:39) complex           
 executed on             LinuxGNU date 2020.07.09  20:57:41
 running on   16 total cores
 distrk:  each k-point on   16 cores,    1 groups
 distr:  one band on NCORES_PER_BAND=   1 cores,   16 groups


--------------------------------------------------------------------------------------------------------


 INCAR:
 POTCAR:   PAW_PBE Mn 06Sep2000                   
 POTCAR:   PAW_PBE Ge 05Jan2001                   
 POTCAR:    PAW_PBE P 17Jan2003                   
 POTCAR:    PAW_PBE S 17Jan2003                   

 ----------------------------------------------------------------------------- 
|                                                                             |
|           W    W    AA    RRRRR   N    N  II  N    N   GGGG   !!!           |
|           W    W   A  A   R    R  NN   N  II  NN   N  G    G  !!!           |
|           W    W  A    A  R    R  N N  N  II  N N  N  G       !!!           |
|           W WW W  AAAAAA  RRRRR   N  N N  II  N  N N  G  GGG   !            |
|           WW  WW  A    A  R   R   N   NN  II  N   NN  G    G                |
|           W    W  A    A  R    R  N    N  II  N    N   GGGG   !!!           |
|                                                                             |
|      For optimal performance we recommend to set                            |
|        NCORE= 4 - approx SQRT( number of cores)                             |
|      NCORE specifies how many cores store one orbital (NPAR=cpu/NCORE).     |
|      This setting can  greatly improve the performance of VASP for DFT.     |
|      The default,   NCORE=1            might be grossly inefficient         |
|      on modern multi-core architectures or massively parallel machines.     |
|      Do your own testing !!!!                                               |
|      Unfortunately you need to use the default for GW and RPA calculations. |
|      (for HF NCORE is supported but not extensively tested yet)             |
|                                                                             |
 ----------------------------------------------------------------------------- 


 ----------------------------------------------------------------------------- 
|                                                                             |
|  ADVICE TO THIS USER RUNNING 'VASP/VAMP'   (HEAR YOUR MASTER'S VOICE ...):  |
|                                                                             |
|      You have switched on vdW-DFT.                                          |
|      This routine was written and supplied by Jiri Klimes.                  |
|      We recommed that you carefully read and cite the following             |
|      publication                                                            |
|      J. Klimes, D.R. Bowler, A. Michelides                                  |
|        J. Phys.: Cond Matt. 22 022201 (2010)                                |
|      J. Klimes, D.R. Bowler, A. Michelides                                  |
|        Phys. Rev. B. 83, 195131 (2011)                                      |
|      and references therein.                                                |
|                                                                             |
 ----------------------------------------------------------------------------- 

 POTCAR:   PAW_PBE Mn 06Sep2000                   
   VRHFIN =Mn: d6 s1                                                            
   LEXCH  = PE                                                                  
   EATOM  =   416.8732 eV,   30.6393 Ry                                         
                                                                                
   TITEL  = PAW_PBE Mn 06Sep2000                                                
   LULTRA =        F    use ultrasoft PP ?                                      
   IUNSCR =        1    unscreen: 0-lin 1-nonlin 2-no                           
   RPACOR =    2.000    partial core radius                                     
   POMASS =   54.938; ZVAL   =    7.000    mass and valenz                      
   RCORE  =    2.300    outmost cutoff radius                                   
   RWIGS  =    2.500; RWIGS  =    1.323    wigner-seitz radius (au A)           
   ENMAX  =  269.865; ENMIN  =  202.399 eV                                      
   RCLOC  =    1.725    cutoff for local pot                                    
   LCOR   =        T    correct aug charges                                     
   LPAW   =        T    paw PP                                                  
   EAUG   =  500.711                                                            
   DEXC   =    -.071                                                            
   RMAX   =    2.807    core radius for proj-oper                               
   RAUG   =    1.300    factor for augmentation sphere                          
   RDEP   =    2.338    radius for radial grids                                 
   QCUT   =   -4.454; QGAM   =    8.907    optimization parameters              
                                                                                
   Description                                                                  
     l     E      TYP  RCUT    TYP  RCUT                                        
     2   .000     23  2.300                                                     
     2   .000     23  2.300                                                     
     0   .000     23  2.300                                                     
     0   .000     23  2.300                                                     
     1  -.200     23  2.300                                                     
     1  1.500     23  2.300                                                     
     3   .000      7   .000                                                     
  local pseudopotential read in
  partial core-charges read in
  atomic valenz-charges read in
  non local Contribution for L=           2  read in
    real space projection operators read in
  non local Contribution for L=           2  read in
    real space projection operators read in
  non local Contribution for L=           0  read in
    real space projection operators read in
  non local Contribution for L=           0  read in
    real space projection operators read in
  non local Contribution for L=           1  read in
    real space projection operators read in
  non local Contribution for L=           1  read in
    real space projection operators read in
    PAW grid and wavefunctions read in

   number of l-projection  operators is LMAX  =           6
   number of lm-projection operators is LMMAX =          18

 POTCAR:   PAW_PBE Ge 05Jan2001                   
   VRHFIN =Ge: s2p2                                                             
   LEXCH  = PE                                                                  
   EATOM  =   104.9960 eV,    7.7170 Ry                                         
                                                                                
   TITEL  = PAW_PBE Ge 05Jan2001                                                
   LULTRA =        F    use ultrasoft PP ?                                      
   IUNSCR =        1    unscreen: 0-lin 1-nonlin 2-no                           
   RPACOR =    2.170    partial core radius                                     
   POMASS =   72.610; ZVAL   =    4.000    mass and valenz                      
   RCORE  =    2.300    outmost cutoff radius                                   
   RWIGS  =    2.300; RWIGS  =    1.217    wigner-seitz radius (au A)           
   ENMAX  =  173.807; ENMIN  =  130.355 eV                                      
   ICORE  =        3    local potential                                         
   LCOR   =        T    correct aug charges                                     
   LPAW   =        T    paw PP                                                  
   EAUG   =  385.843                                                            
   DEXC   =    -.138                                                            
   RMAX   =    3.497    core radius for proj-oper                               
   RAUG   =    1.300    factor for augmentation sphere                          
   RDEP   =    2.318    radius for radial grids                                 
   QCUT   =   -3.574; QGAM   =    7.148    optimization parameters              
                                                                                
   Description                                                                  
     l     E      TYP  RCUT    TYP  RCUT                                        
     0   .000     23  2.300                                                     
     0   .000     23  2.300                                                     
     1   .000     23  2.300                                                     
     1   .000     23  2.300                                                     
     2   .000     23  2.300                                                     
     3  -.100      7  2.300                                                     
  local pseudopotential read in
  partial core-charges read in
  atomic valenz-charges read in
  non local Contribution for L=           0  read in
    real space projection operators read in
  non local Contribution for L=           0  read in
    real space projection operators read in
  non local Contribution for L=           1  read in
    real space projection operators read in
  non local Contribution for L=           1  read in
    real space projection operators read in
  non local Contribution for L=           2  read in
    real space projection operators read in
    PAW grid and wavefunctions read in

   number of l-projection  operators is LMAX  =           5
   number of lm-projection operators is LMMAX =          13

 POTCAR:    PAW_PBE P 17Jan2003                   
   VRHFIN =P : s2p3                                                             
   LEXCH  = PE                                                                  
   EATOM  =   176.0430 eV,   12.9388 Ry                                         
                                                                                
   TITEL  = PAW_PBE P 17Jan2003                                                 
   LULTRA =        F    use ultrasoft PP ?                                      
   IUNSCR =        1    unscreen: 0-lin 1-nonlin 2-no                           
   RPACOR =    1.500    partial core radius                                     
   POMASS =   30.974; ZVAL   =    5.000    mass and valenz                      
   RCORE  =    1.900    outmost cutoff radius                                   
   RWIGS  =    2.330; RWIGS  =    1.233    wigner-seitz radius (au A)           
   ENMAX  =  270.000; ENMIN  =  191.280 eV                                      
   ICORE  =        2    local potential                                         
   LCOR   =        T    correct aug charges                                     
   LPAW   =        T    paw PP                                                  
   EAUG   =  342.924                                                            
   DEXC   =    -.002                                                            
   RMAX   =    2.887    core radius for proj-oper                               
   RAUG   =    1.300    factor for augmentation sphere                          
   RDEP   =    1.931    radius for radial grids                                 
   QCUT   =   -4.330; QGAM   =    8.659    optimization parameters              
                                                                                
   Description                                                                  
     l     E      TYP  RCUT    TYP  RCUT                                        
     0   .000     23  1.900                                                     
     0   .000     23  1.900                                                     
     1   .000     23  1.900                                                     
     1   .000     23  1.900                                                     
     2   .000     23  1.900                                                     
  local pseudopotential read in
  partial core-charges read in
  atomic valenz-charges read in
  non local Contribution for L=           0  read in
    real space projection operators read in
  non local Contribution for L=           0  read in
    real space projection operators read in
  non local Contribution for L=           1  read in
    real space projection operators read in
  non local Contribution for L=           1  read in
    real space projection operators read in
    PAW grid and wavefunctions read in

   number of l-projection  operators is LMAX  =           4
   number of lm-projection operators is LMMAX =           8

 POTCAR:    PAW_PBE S 17Jan2003                   
   VRHFIN =S : s2p4                                                             
   LEXCH  = PE                                                                  
   EATOM  =   276.8230 eV,   20.3459 Ry                                         
                                                                                
   TITEL  = PAW_PBE S 17Jan2003                                                 
   LULTRA =        F    use ultrasoft PP ?                                      
   IUNSCR =        1    unscreen: 0-lin 1-nonlin 2-no                           
   RPACOR =    1.500    partial core radius                                     
   POMASS =   32.066; ZVAL   =    6.000    mass and valenz                      
   RCORE  =    1.900    outmost cutoff radius                                   
   RWIGS  =    2.200; RWIGS  =    1.164    wigner-seitz radius (au A)           
   ENMAX  =  280.000; ENMIN  =  194.016 eV                                      
   ICORE  =        2    local potential                                         
   LCOR   =        T    correct aug charges                                     
   LPAW   =        T    paw PP                                                  
   EAUG   =  335.092                                                            
   DEXC   =     .000                                                            
   RMAX   =    2.867    core radius for proj-oper                               
   RAUG   =    1.300    factor for augmentation sphere                          
   RDEP   =    1.954    radius for radial grids                                 
   QCUT   =   -4.360; QGAM   =    8.721    optimization parameters              
                                                                                
   Description                                                                  
     l     E      TYP  RCUT    TYP  RCUT                                        
     0   .000     23  1.900                                                     
     0   .000     23  1.900                                                     
     1   .000     23  1.900                                                     
     1   .000     23  1.900                                                     
     2   .000     23  1.900                                                     
  local pseudopotential read in
  partial core-charges read in
  atomic valenz-charges read in
  non local Contribution for L=           0  read in
    real space projection operators read in
  non local Contribution for L=           0  read in
    real space projection operators read in
  non local Contribution for L=           1  read in
    real space projection operators read in
  non local Contribution for L=           1  read in
    real space projection operators read in
    PAW grid and wavefunctions read in

   number of l-projection  operators is LMAX  =           4
   number of lm-projection operators is LMMAX =           8

 Optimization of the real space projectors (new method)

 maximal supplied QI-value         = 16.25
 optimisation between [QCUT,QGAM] = [ 11.54, 23.24] = [ 37.28,151.24] Ry 
 Optimized for a Real-space Cutoff    1.53 Angstroem

   l    n(q)    QCUT    max X(q) W(low)/X(q) W(high)/X(q)  e(spline) 
   2     10    11.539     4.144    0.87E-05    0.14E-04    0.48E-07
   2     10    11.539    35.116    0.12E-03    0.13E-03    0.25E-06
   0     11    11.539    20.431    0.20E-04    0.18E-05    0.19E-07
   0     11    11.539    61.159    0.37E-04    0.19E-04    0.29E-06
   1     10    11.539     6.695    0.11E-04    0.24E-05    0.29E-07
   1     10    11.539     8.642    0.41E-04    0.18E-04    0.11E-06
 Optimization of the real space projectors (new method)

 maximal supplied QI-value         = 16.25
 optimisation between [QCUT,QGAM] = [ 11.54, 23.24] = [ 37.28,151.24] Ry 
 Optimized for a Real-space Cutoff    1.28 Angstroem

   l    n(q)    QCUT    max X(q) W(low)/X(q) W(high)/X(q)  e(spline) 
   0      9    11.539     8.651    0.22E-04    0.16E-04    0.10E-07
   0      9    11.539    33.192    0.11E-03    0.16E-03    0.65E-07
   1      8    11.539     5.899    0.37E-04    0.28E-04    0.43E-07
   1      8    11.539    27.289    0.22E-03    0.28E-04    0.14E-06
   2      8    11.539     4.673    0.11E-03    0.18E-03    0.58E-07
 Optimization of the real space projectors (new method)

 maximal supplied QI-value         = 19.84
 optimisation between [QCUT,QGAM] = [ 11.51, 23.22] = [ 37.09,150.92] Ry 
 Optimized for a Real-space Cutoff    1.21 Angstroem

   l    n(q)    QCUT    max X(q) W(low)/X(q) W(high)/X(q)  e(spline) 
   0      8    11.508     6.651    0.19E-04    0.31E-05    0.49E-08
   0      8    11.508    90.285    0.95E-04    0.17E-03    0.51E-07
   1      8    11.508     4.328    0.14E-04    0.32E-04    0.22E-07
   1      8    11.508    54.583    0.16E-03    0.71E-04    0.89E-07
 Optimization of the real space projectors (new method)

 maximal supplied QI-value         = 19.84
 optimisation between [QCUT,QGAM] = [ 11.51, 23.22] = [ 37.09,150.92] Ry 
 Optimized for a Real-space Cutoff    1.21 Angstroem

   l    n(q)    QCUT    max X(q) W(low)/X(q) W(high)/X(q)  e(spline) 
   0      8    11.508     5.487    0.18E-04    0.22E-05    0.47E-08
   0      8    11.508    85.627    0.96E-04    0.18E-03    0.54E-07
   1      8    11.508     3.530    0.17E-04    0.28E-04    0.21E-07
   1      8    11.508    42.714    0.18E-03    0.63E-04    0.92E-07

 ----------------------------------------------------------------------------- 
|                                                                             |
|  ADVICE TO THIS USER RUNNING 'VASP/VAMP'   (HEAR YOUR MASTER'S VOICE ...):  |
|                                                                             |
|      You enforced a specific xc-type in the INCAR file,                     |
|      a different type was found on the POTCAR file                          |
|          I HOPE YOU KNOW, WHAT YOU ARE  DOING                               |
|                                                                             |
 ----------------------------------------------------------------------------- 

 PAW_PBE Mn 06Sep2000                   :
 energy of atom  1       EATOM= -416.8732
 kinetic energy error for atom=    0.0024 (will be added to EATOM!!)
 PAW_PBE Ge 05Jan2001                   :
 energy of atom  2       EATOM= -104.9960
 kinetic energy error for atom=    0.0002 (will be added to EATOM!!)
  PAW_PBE P 17Jan2003                   :
 energy of atom  3       EATOM= -176.0430
 kinetic energy error for atom=    0.0011 (will be added to EATOM!!)
  PAW_PBE S 17Jan2003                   :
 energy of atom  4       EATOM= -276.8230
 kinetic energy error for atom=    0.0016 (will be added to EATOM!!)


 POSCAR: Mn2 Ge P S6                             
  positions in direct lattice
  velocities in cartesian coordinates
  No initial velocities read in
 exchange correlation table for  LEXCH =       42
   RHO(1)=    0.500       N(1)  =     2000
   RHO(2)=  100.500       N(2)  =     4000



--------------------------------------------------------------------------------------------------------


 ion  position               nearest neighbor table
   1  0.333  0.333  0.500-   6 2.78   5 2.78   7 2.78   8 2.78  10 2.78   9 2.78
   2  0.667  0.667  0.500-   9 2.78   8 2.78  10 2.78   5 2.78   7 2.78   6 2.78
   3  0.000  0.000  0.448-   4 2.43   8 2.63  10 2.63   9 2.63
   4  0.000  0.000  0.552-   3 2.43   5 2.63   7 2.63   6 2.63
   5  0.626  0.000  0.574-   4 2.63   1 2.78   2 2.78
   6  0.000  0.373  0.574-   4 2.63   1 2.78   2 2.78
   7  0.373  0.626  0.574-   4 2.63   1 2.78   2 2.78
   8  0.374  1.000  0.426-   3 2.63   2 2.78   1 2.78
   9  1.000  0.627  0.426-   3 2.63   2 2.78   1 2.78
  10  0.627  0.374  0.426-   3 2.63   2 2.78   1 2.78

  LATTYP: Found a hexagonal cell.
 ALAT       =     6.9077769333
 C/A-ratio  =     3.3939410937
  
  Lattice vectors:
  
 A1 = (   3.4538890000,  -5.9823100000,   0.0000000000)
 A2 = (  -6.9077770000,   0.0000000000,   0.0000000000)
 A3 = (   0.0000000000,   0.0000000000, -23.4445880000)


Analysis of symmetry for initial positions (statically):
=====================================================================
 Subroutine PRICEL returns:
 Original cell was already a primitive cell.
 

 Routine SETGRP: Setting up the symmetry group for a 
 hexagonal supercell.


 Subroutine GETGRP returns: Found  3 space group operations
 (whereof  3 operations were pure point group operations)
 out of a pool of 24 trial point group operations.


The static configuration has the point symmetry C_3 .


Analysis of symmetry for dynamics (positions and initial velocities):
=====================================================================
 Subroutine PRICEL returns:
 Original cell was already a primitive cell.
 

 Routine SETGRP: Setting up the symmetry group for a 
 hexagonal supercell.


 Subroutine GETGRP returns: Found  3 space group operations
 (whereof  3 operations were pure point group operations)
 out of a pool of 24 trial point group operations.


The dynamic configuration has the point symmetry C_3 .


Analysis of constrained symmetry for selective dynamics:
=====================================================================
 Subroutine PRICEL returns:
 Original cell was already a primitive cell.
 

 Routine SETGRP: Setting up the symmetry group for a 
 hexagonal supercell.


 Subroutine GETGRP returns: Found  3 space group operations
 (whereof  3 operations were pure point group operations)
 out of a pool of 24 trial point group operations.


The constrained configuration has the point symmetry C_3 .


Analysis of structural, dynamic, and magnetic symmetry:
=====================================================================
 Subroutine PRICEL returns:
 Original cell was already a primitive cell.
 

 Routine SETGRP: Setting up the symmetry group for a 
 hexagonal supercell.


 Subroutine GETGRP returns: Found  3 space group operations
 (whereof  3 operations were pure point group operations)
 out of a pool of 24 trial point group operations.


The magnetic configuration has the point symmetry C_3 .


 Subroutine INISYM returns: Found  3 space group operations
 (whereof  3 operations are pure point group operations),
 and found     1 'primitive' translations



 KPOINTS: Kpoints from vasprun.xml                

Automatic generation of k-mesh.
Space group operators:
 irot       det(A)        alpha          n_x          n_y          n_z        tau_x        tau_y        tau_z
    1     1.000000     0.000000     1.000000     0.000000     0.000000     0.000000     0.000000     0.000000
    2     1.000000   120.000000     0.000000     0.000000     1.000000     0.000000     0.000000     0.000000
    3     1.000000   120.000000     0.000000     0.000000    -1.000000     0.000000     0.000000     0.000000
 
 Subroutine IBZKPT returns following result:
 ===========================================
 
 Found      5 irreducible k-points:
 
 Following reciprocal coordinates:
            Coordinates               Weight
  0.000000  0.000000  0.000000      1.000000
  0.200000  0.000000  0.000000      6.000000
  0.400000  0.000000  0.000000      6.000000
  0.400000  0.200000  0.000000      6.000000
 -0.400000  0.200000  0.000000      6.000000
 
 Following cartesian coordinates:
            Coordinates               Weight
  0.000000  0.000000  0.000000      1.000000
  0.028953 -0.016716  0.000000      6.000000
  0.057906 -0.033432  0.000000      6.000000
  0.057906  0.000000  0.000000      6.000000
 -0.057906  0.066864  0.000000      6.000000
 
 TETIRR: Found     15 inequivalent tetrahedra from      150


--------------------------------------------------------------------------------------------------------




 Dimension of arrays:
   k-points           NKPTS =      5   k-points in BZ     NKDIM =      5   number of bands    NBANDS=     48
   number of dos      NEDOS =    301   number of ions     NIONS =     10
   non local maximal  LDIM  =      6   non local SUM 2l+1 LMDIM =     18
   total plane-waves  NPLWV = 524880
   max r-space proj   IRMAX =   8238   max aug-charges    IRDMAX=  29641
   dimension x,y,z NGX =    54 NGY =   54 NGZ =  180
   dimension x,y,z NGXF=   108 NGYF=  108 NGZF=  360
   support grid    NGXF=   108 NGYF=  108 NGZF=  360
   ions per type =               2   1   1   6
   NGX,Y,Z   is equivalent  to a cutoff of  13.00, 13.00, 12.76 a.u.
   NGXF,Y,Z  is equivalent  to a cutoff of  25.99, 25.99, 25.53 a.u.

 SYSTEM =  unknown system                          
 POSCAR =  Mn2 Ge P S6                             

 Startparameter for this run:
   NWRITE =      2    write-flag & timer
   PREC   = accura    normal or accurate (medium, high low for compatibility)
   ISTART =      0    job   : 0-new  1-cont  2-samecut
   ICHARG =      2    charge: 1-file 2-atom 10-const
   ISPIN  =      2    spin polarized calculation?
   LNONCOLLINEAR =      F non collinear calculations
   LSORBIT =      F    spin-orbit coupling
   INIWAV =      1    electr: 0-lowe 1-rand  2-diag
   LASPH  =      F    aspherical Exc in radial PAW
   METAGGA=      F    non-selfconsistent MetaGGA calc.

 Electronic Relaxation 1
   ENCUT  =  520.0 eV  38.22 Ry    6.18 a.u.  12.84 12.84 43.59*2*pi/ulx,y,z
   ENINI  =  520.0     initial cutoff
   ENAUG  =  500.7 eV  augmentation charge cutoff
   NELM   =    400;   NELMIN=  2; NELMDL=  0     # of ELM steps 
   EDIFF  = 0.1E-03   stopping-criterion for ELM
   LREAL  =      T    real-space projection
   NLSPLINE    = F    spline interpolate recip. space projectors
   LCOMPAT=      F    compatible to vasp.4.4
   GGA_COMPAT  = T    GGA compatible to vasp.4.4-vasp.4.6
   LMAXPAW     = -100 max onsite density
   LMAXMIX     =    2 max onsite mixed and CHGCAR
   VOSKOWN=      0    Vosko Wilk Nusair interpolation
   ROPT   =   -0.00025  -0.00025  -0.00025  -0.00025
 Ionic relaxation
   EDIFFG = 0.1E-02   stopping-criterion for IOM
   NSW    =     99    number of steps for IOM
   NBLOCK =      1;   KBLOCK =     99    inner block; outer block 
   IBRION =      2    ionic relax: 0-MD 1-quasi-New 2-CG
   NFREE  =      1    steps in history (QN), initial steepest desc. (CG)
   ISIF   =      3    stress and relaxation
   IWAVPR =     11    prediction:  0-non 1-charg 2-wave 3-comb
   ISYM   =      2    0-nonsym 1-usesym 2-fastsym
   LCORR  =      T    Harris-Foulkes like correction to forces

   POTIM  = 0.5000    time-step for ionic-motion
   TEIN   =    0.0    initial temperature
   TEBEG  =    0.0;   TEEND  =   0.0 temperature during run
   SMASS  =  -3.00    Nose mass-parameter (am)
   estimated Nose-frequenzy (Omega)   =  0.10E-29 period in steps =****** mass=  -0.109E-26a.u.
   SCALEE = 1.0000    scale energy and forces
   NPACO  =    256;   APACO  = 16.0  distance and # of slots for P.C.
   PSTRESS=    0.0 pullay stress

  Mass of Ions in am
   POMASS =  54.94 72.61 30.97 32.07
  Ionic Valenz
   ZVAL   =   7.00  4.00  5.00  6.00
  Atomic Wigner-Seitz radii
   RWIGS  =  -1.00 -1.00 -1.00 -1.00
  virtual crystal weights 
   VCA    =   1.00  1.00  1.00  1.00
   NELECT =      59.0000    total number of electrons
   NUPDOWN=      -1.0000    fix difference up-down

 DOS related values:
   EMIN   =  10.00;   EMAX   =-10.00  energy-range for DOS
   EFERMI =   0.00
   ISMEAR =    -5;   SIGMA  =   0.05  broadening in eV -4-tet -1-fermi 0-gaus

 Electronic relaxation 2 (details)
   IALGO  =     38    algorithm
   LDIAG  =      T    sub-space diagonalisation (order eigenvalues)
   LSUBROT=      F    optimize rotation matrix (better conditioning)
   TURBO    =      0    0=normal 1=particle mesh
   IRESTART =      0    0=no restart 2=restart with 2 vectors
   NREBOOT  =      0    no. of reboots
   NMIN     =      0    reboot dimension
   EREF     =   0.00    reference energy to select bands
   IMIX   =      4    mixing-type and parameters
     AMIX     =   0.40;   BMIX     =  1.00
     AMIX_MAG =   1.60;   BMIX_MAG =  1.00
     AMIN     =   0.01
     WC   =   100.;   INIMIX=   1;  MIXPRE=   1;  MAXMIX= -45

 Intra band minimization:
   WEIMIN = 0.0010     energy-eigenvalue tresh-hold
   EBREAK =  0.52E-06  absolut break condition
   DEPER  =   0.30     relativ break condition  

   TIME   =   0.40     timestep for ELM

  volume/ion in A,a.u.               =      96.88       653.80
  Fermi-wavevector in a.u.,A,eV,Ry     =   0.644084  1.217141  5.644291  0.414844
  Thomas-Fermi vector in A             =   1.711295

 Write flags
   LWAVE        =      F    write WAVECAR
   LDOWNSAMPLE  =      F    k-point downsampling of WAVECAR
   LCHARG       =      T    write CHGCAR
   LVTOT        =      F    write LOCPOT, total local potential
   LVHAR        =      F    write LOCPOT, Hartree potential only
   LELF         =      F    write electronic localiz. function (ELF)
   LORBIT       =     11    0 simple, 1 ext, 2 COOP (PROOUT), +10 PAW based schemes


 Dipole corrections
   LMONO  =      F    monopole corrections only (constant potential shift)
   LDIPOL =      F    correct potential (dipole corrections)
   IDIPOL =      0    1-x, 2-y, 3-z, 4-all directions 
   EPSILON=  1.0000000 bulk dielectric constant

 Exchange correlation treatment:
   GGA     =    BO    GGA type
   LEXCH   =    42    internal setting for exchange type
   VOSKOWN=      0    Vosko Wilk Nusair interpolation
   LHFCALC =     F    Hartree Fock is set to
   LHFONE  =     F    Hartree Fock one center treatment
   AEXX    =    0.0000 exact exchange contribution

 vdW DFT:
   LUSE_VDW   =     T    switch on vdW DFT
   Zab_VDW    =-.8491    correlation parameter
   PARAM1     =0.1833
   PARAM2     =0.2200
   PARAM3     =0.0000
   -- rVV10 --
   BPARAM     = 6.3000
   CPARAM     = 0.0093

 Linear response parameters
   LEPSILON=     F    determine dielectric tensor
   LRPA    =     F    only Hartree local field effects (RPA)
   LNABLA  =     F    use nabla operator in PAW spheres
   LVEL    =     F    velocity operator in full k-point grid
   LINTERFAST=   F  fast interpolation
   KINTER  =     0    interpolate to denser k-point grid
   CSHIFT  =0.1000    complex shift for real part using Kramers Kronig
   OMEGAMAX=  -1.0    maximum frequency
   DEG_THRESHOLD= 0.2000000E-02 threshold for treating states as degnerate
   RTIME   =   -0.100 relaxation time in fs
  (WPLASMAI=    0.000 imaginary part of plasma frequency in eV, 0.658/RTIME)
   DFIELD  = 0.0000000 0.0000000 0.0000000 field for delta impulse in time

 Orbital magnetization related:
   ORBITALMAG=     F  switch on orbital magnetization
   LCHIMAG   =     F  perturbation theory with respect to B field
   DQ        =  0.001000  dq finite difference perturbation B field
   LLRAUG    =     F  two centre corrections for induced B field



--------------------------------------------------------------------------------------------------------


 conjugate gradient relaxation of ions
   using selective dynamics as specified on POSCAR
 charge density and potential will be updated during run
 spin polarized calculation
 Variant of blocked Davidson
 Davidson routine will perform the subspace rotation
 perform sub-space diagonalisation
    after iterative eigenvector-optimisation
 modified Broyden-mixing scheme, WC =      100.0
 initial mixing is a Kerker type mixing with AMIX =  0.4000 and BMIX =      1.0000
 Hartree-type preconditioning will be used
 using additional bands           18
 real space projection scheme for non local part
 use partial core corrections
 calculate Harris-corrections to forces   (improved forces if not selfconsistent)
 use gradient corrections 
 use of overlap-Matrix (Vanderbilt PP)
 Fermi weights with tetrahedron method with Bloechl corrections


--------------------------------------------------------------------------------------------------------


  energy-cutoff  :      520.00
  volume of cell :      968.84
      direct lattice vectors                 reciprocal lattice vectors
     6.907777000 -0.000000000  0.000000000     0.144764372 -0.083579742  0.000000000
     3.453888000  5.982310000  0.000000000     0.000000000  0.167159509 -0.000000000
     0.000000000  0.000000000 23.444588000    -0.000000000  0.000000000  0.042653767

  length of vectors
     6.907777000  6.907776433 23.444588000     0.167159495  0.167159509  0.042653767



 k-points in units of 2pi/SCALE and weight: Kpoints from vasprun.xml                
   0.00000000  0.00000000  0.00000000       0.040
   0.02895287 -0.01671595  0.00000000       0.240
   0.05790575 -0.03343190  0.00000000       0.240
   0.05790575  0.00000000  0.00000000       0.240
  -0.05790575  0.06686380  0.00000000       0.240

 k-points in reciprocal lattice and weights: Kpoints from vasprun.xml                
   0.00000000  0.00000000  0.00000000       0.040
   0.20000000  0.00000000  0.00000000       0.240
   0.40000000  0.00000000  0.00000000       0.240
   0.40000000  0.20000000  0.00000000       0.240
  -0.40000000  0.20000000  0.00000000       0.240

 position of ions in fractional coordinates (direct lattice) 
   0.33333300  0.33333300  0.49992500
   0.66666700  0.66666700  0.50007500
   0.00000000  0.00000000  0.44821600
   0.00000000  0.00000000  0.55178400
   0.62635700  0.00042000  0.57375200
   0.00042000  0.37322400  0.57375200
   0.37322400  0.62635700  0.57375200
   0.37364300  0.99958000  0.42624800
   0.99958000  0.62677600  0.42624800
   0.62677600  0.37364300  0.42624800

 position of ions in cartesian coordinates  (Angst):
   3.45388488  1.99410134 11.72053566
   6.90778012  3.98820866 11.72405234
   0.00000000  0.00000000 10.50823946
   0.00000000  0.00000000 12.93634854
   4.32818511  0.00251257 13.45137925
   1.29197516  2.23274167 13.45137925
   4.74151509  3.74706174 13.45137925
   6.03347989  5.97979743  9.99320875
   9.06968984  3.74956833  9.99320875
   5.62014991  2.23524826  9.99320875



--------------------------------------------------------------------------------------------------------


 k-point  1 :   0.0000 0.0000 0.0000  plane waves:   26073
 k-point  2 :   0.2000 0.0000 0.0000  plane waves:   26070
 k-point  3 :   0.4000 0.0000 0.0000  plane waves:   26086
 k-point  4 :   0.4000 0.2000 0.0000  plane waves:   26085
 k-point  5 :  -0.4000 0.2000 0.0000  plane waves:   26115

 maximum and minimum number of plane-waves per node :     26115    26070

 maximum number of plane-waves:     26115
 maximum index in each direction: 
   IXMAX=   13   IYMAX=   12   IZMAX=   43
   IXMIN=  -13   IYMIN=  -13   IZMIN=  -43


 serial   3D FFT for wavefunctions
 parallel 3D FFT for charge:
    minimum data exchange during FFTs selected (reduces bandwidth)


 total amount of memory used by VASP MPI-rank0   128855. kBytes
=======================================================================

   base      :      30000. kBytes
   nonlr-proj:       6370. kBytes
   fftplans  :      11247. kBytes
   grid      :      68332. kBytes
   one-center:        311. kBytes
   wavefun   :      12595. kBytes

     INWAV:  cpu time    0.0000: real time    0.0009
 Broyden mixing: mesh for mixing (old mesh)
   NGX = 25   NGY = 25   NGZ = 87
  (NGX  =108   NGY  =108   NGZ  =360)
  gives a total of  54375 points

 initial charge density was supplied:
 charge density of overlapping atoms calculated
 number of electron      59.0000000 magnetization       7.0000000
 keeping initial charge density in first step


--------------------------------------------------------------------------------------------------------


 Maximum index for non-local projection operator         7925
 Maximum index for augmentation-charges         2133 (set IRDMAX)


--------------------------------------------------------------------------------------------------------


 First call to EWALD:  gamma=   0.179
 Maximum number of real-space cells 4x 4x 1
 Maximum number of reciprocal cells 2x 2x 6

    FEWALD:  cpu time    0.0000: real time    0.0015


--------------------------------------- Iteration      1(   1)  ---------------------------------------


vdW kernel read from vdw_kernel.bindat
  0.0000  0.2424  0.5071  0.7962  1.1119  1.4567  1.8333  2.2446  2.6937  3.1842
  3.7199  4.3049  4.9438  5.6415  6.4036  7.2358  8.1446  9.1372 10.2212 11.4050
 12.6979 14.1099 15.6519 17.3360 19.1751 21.1837 23.3773 25.7729 28.3892 31.2465
 34.3669 37.7748 41.4965 45.5611 50.0000

    POTLOK:  cpu time   53.2280: real time   53.3828
    SETDIJ:  cpu time    0.0400: real time    0.0395
     EDDAV:  cpu time   22.7120: real time   22.8278
 BZINTS: Fermi energy:  5.916584; 59.000000 electrons
         Band energy: -12.755852;  BLOECHL correction: -0.054150
       DOS:  cpu time    0.0080: real time    0.0069
    --------------------------------------------
      LOOP:  cpu time   75.9880: real time   76.2570

 eigenvalue-minimisations  :   960
 total energy-change (2. order) : 0.4256496E+03  (-0.1718599E+04)
 number of electron      59.0000000 magnetization       7.0000000
 augmentation part       59.0000000 magnetization       7.0000000

 Free energy of the ion-electron system (eV)
  ---------------------------------------------------
  alpha Z        PSCENC =        22.92469884
  Ewald energy   TEWEN  =      6735.59374366
  -Hartree energ DENC   =     -9221.42981618
  -exchange      EXHF   =         0.00000000
  -V(xc)+E(xc)   XCENC  =        37.05538180
  PAW double counting   =      1344.23949686    -1266.68145952
  entropy T*S    EENTRO =         0.00000000
  eigenvalues    EBANDS =       -12.75585222
  atomic energy  EATOM  =      2786.70337683
  Solvation  Ediel_sol  =         0.00000000
  ---------------------------------------------------
  free energy    TOTEN  =       425.64957007 eV

  energy without entropy =      425.64957007  energy(sigma->0) =      425.64957007


--------------------------------------------------------------------------------------------------------




--------------------------------------- Iteration      1(   2)  ---------------------------------------


     EDDAV:  cpu time   27.2400: real time   27.8540
 BZINTS: Fermi energy: -0.985986; 59.000000 electrons
         Band energy:-402.512370;  BLOECHL correction: -0.126404
       DOS:  cpu time    0.0040: real time    0.0061
    --------------------------------------------
      LOOP:  cpu time   27.2440: real time   27.8602

 eigenvalue-minimisations  :  1200
 total energy-change (2. order) :-0.3897565E+03  (-0.3589475E+03)
 number of electron      59.0000000 magnetization       7.0000000
 augmentation part       59.0000000 magnetization       7.0000000

 Free energy of the ion-electron system (eV)
  ---------------------------------------------------
  alpha Z        PSCENC =        22.92469884
  Ewald energy   TEWEN  =      6735.59374366
  -Hartree energ DENC   =     -9221.42981618
  -exchange      EXHF   =         0.00000000
  -V(xc)+E(xc)   XCENC  =        37.05538180
  PAW double counting   =      1344.23949686    -1266.68145952
  entropy T*S    EENTRO =         0.00000000
  eigenvalues    EBANDS =      -402.51237014
  atomic energy  EATOM  =      2786.70337683
  Solvation  Ediel_sol  =         0.00000000
  ---------------------------------------------------
  free energy    TOTEN  =        35.89305215 eV

  energy without entropy =       35.89305215  energy(sigma->0) =       35.89305215


--------------------------------------------------------------------------------------------------------




--------------------------------------- Iteration      1(   3)  ---------------------------------------


     EDDAV:  cpu time   31.2200: real time   31.4864
 BZINTS: Fermi energy: -2.826356; 59.000000 electrons
         Band energy:-489.302544;  BLOECHL correction: -0.000335
       DOS:  cpu time    0.0040: real time    0.0045
    --------------------------------------------
      LOOP:  cpu time   31.2240: real time   31.4909

 eigenvalue-minimisations  :  1376
 total energy-change (2. order) :-0.8679017E+02  (-0.8310570E+02)
 number of electron      59.0000000 magnetization       7.0000000
 augmentation part       59.0000000 magnetization       7.0000000

 Free energy of the ion-electron system (eV)
  ---------------------------------------------------
  alpha Z        PSCENC =        22.92469884
  Ewald energy   TEWEN  =      6735.59374366
  -Hartree energ DENC   =     -9221.42981618
  -exchange      EXHF   =         0.00000000
  -V(xc)+E(xc)   XCENC  =        37.05538180
  PAW double counting   =      1344.23949686    -1266.68145952
  entropy T*S    EENTRO =         0.00000000
  eigenvalues    EBANDS =      -489.30254369
  atomic energy  EATOM  =      2786.70337683
  Solvation  Ediel_sol  =         0.00000000
  ---------------------------------------------------
  free energy    TOTEN  =       -50.89712140 eV

  energy without entropy =      -50.89712140  energy(sigma->0) =      -50.89712140


--------------------------------------------------------------------------------------------------------




--------------------------------------- Iteration      1(   4)  ---------------------------------------


     EDDAV:  cpu time   31.4960: real time   32.0778
 BZINTS: Fermi energy: -2.864934; 58.969102 electrons
         Band energy:-494.089952;  BLOECHL correction: -0.001132
       DOS:  cpu time    0.0040: real time    0.0088
    --------------------------------------------
      LOOP:  cpu time   31.5000: real time   32.0866

 eigenvalue-minimisations  :  1408
 total energy-change (2. order) :-0.4787408E+01  (-0.4745378E+01)
 number of electron      59.0000000 magnetization       7.0000000
 augmentation part       59.0000000 magnetization       7.0000000

 Free energy of the ion-electron system (eV)
  ---------------------------------------------------
  alpha Z        PSCENC =        22.92469884
  Ewald energy   TEWEN  =      6735.59374366
  -Hartree energ DENC   =     -9221.42981618
  -exchange      EXHF   =         0.00000000
  -V(xc)+E(xc)   XCENC  =        37.05538180
  PAW double counting   =      1344.23949686    -1266.68145952
  entropy T*S    EENTRO =         0.00000000
  eigenvalues    EBANDS =      -494.08995156
  atomic energy  EATOM  =      2786.70337683
  Solvation  Ediel_sol  =         0.00000000
  ---------------------------------------------------
  free energy    TOTEN  =       -55.68452928 eV

  energy without entropy =      -55.68452928  energy(sigma->0) =      -55.68452928


--------------------------------------------------------------------------------------------------------




--------------------------------------- Iteration      1(   5)  ---------------------------------------


     EDDAV:  cpu time   28.9760: real time   29.3130
 BZINTS: Fermi energy: -2.866228; 58.968995 electrons
         Band energy:-494.206495;  BLOECHL correction: -0.001181
       DOS:  cpu time    0.0080: real time    0.0069
    CHARGE:  cpu time    1.9600: real time    1.9633
    MIXING:  cpu time    0.0400: real time    0.0432
    --------------------------------------------
      LOOP:  cpu time   30.9840: real time   31.3265

 eigenvalue-minimisations  :  1280
 total energy-change (2. order) :-0.1165434E+00  (-0.1165834E+00)
 number of electron      58.9689940 magnetization       6.7822381
 augmentation part       -3.4088974 magnetization       4.9378478

 Broyden mixing:
  rms(total) = 0.26924E+01    rms(broyden)= 0.26922E+01
  rms(prec ) = 0.30136E+01
  weight for this iteration     100.00

 Free energy of the ion-electron system (eV)
  ---------------------------------------------------
  alpha Z        PSCENC =        22.92469884
  Ewald energy   TEWEN  =      6735.59374366
  -Hartree energ DENC   =     -9221.42981618
  -exchange      EXHF   =         0.00000000
  -V(xc)+E(xc)   XCENC  =        37.05538180
  PAW double counting   =      1344.23949686    -1266.68145952
  entropy T*S    EENTRO =         0.00000000
  eigenvalues    EBANDS =      -494.20649501
  atomic energy  EATOM  =      2786.70337683
  Solvation  Ediel_sol  =         0.00000000
  ---------------------------------------------------
  free energy    TOTEN  =       -55.80107273 eV

  energy without entropy =      -55.80107273  energy(sigma->0) =      -55.80107273


--------------------------------------------------------------------------------------------------------




--------------------------------------- Iteration      1(   6)  ---------------------------------------


    POTLOK:  cpu time   52.0080: real time   52.9143
    SETDIJ:  cpu time    0.0320: real time    0.0378
     EDDAV:  cpu time   32.2320: real time   34.0307
 BZINTS: Fermi energy: -5.047668; 59.000000 electrons
         Band energy:-703.406946;  BLOECHL correction: -0.027672
       DOS:  cpu time    0.0040: real time    0.0068
    CHARGE:  cpu time    1.9880: real time    1.9987
    MIXING:  cpu time    0.0720: real time    0.0725
    --------------------------------------------
      LOOP:  cpu time   86.3360: real time   89.0608

 eigenvalue-minimisations  :  1488
 total energy-change (2. order) :-0.1275070E+03  (-0.8130357E+02)
 number of electron      59.0000000 magnetization       6.5907670
 augmentation part        9.1027552 magnetization       6.5126769

 Broyden mixing:
  rms(total) = 0.70937E+01    rms(broyden)= 0.70845E+01
  rms(prec ) = 0.77268E+01
  weight for this iteration     100.00

 eigenvalues of (default mixing * dielectric matrix)
  average eigenvalue GAMMA=   0.2093
  0.2093

 Free energy of the ion-electron system (eV)
  ---------------------------------------------------
  alpha Z        PSCENC =        22.92469884
  Ewald energy   TEWEN  =      6735.59374366
  -Hartree energ DENC   =     -9148.44153885
  -exchange      EXHF   =         0.00000000
  -V(xc)+E(xc)   XCENC  =        36.96314105
  PAW double counting   =      1219.13562627    -1132.78022354
  entropy T*S    EENTRO =         0.00000000
  eigenvalues    EBANDS =      -703.40694588
  atomic energy  EATOM  =      2786.70337683
  Solvation  Ediel_sol  =         0.00000000
  ---------------------------------------------------
  free energy    TOTEN  =      -183.30812162 eV

  energy without entropy =     -183.30812162  energy(sigma->0) =     -183.30812162


--------------------------------------------------------------------------------------------------------




--------------------------------------- Iteration      1(   7)  ---------------------------------------


    POTLOK:  cpu time   51.5440: real time   52.4827
    SETDIJ:  cpu time    0.0400: real time    0.0426
     EDDAV:  cpu time   26.2640: real time   26.3857
 BZINTS: Fermi energy: -4.842487; 58.962743 electrons
         Band energy:-512.107558;  BLOECHL correction: -0.001360
       DOS:  cpu time    0.0080: real time    0.0089
    CHARGE:  cpu time    1.9760: real time    1.9776
    MIXING:  cpu time    0.0400: real time    0.0462
    --------------------------------------------
      LOOP:  cpu time   79.8720: real time   80.9437

 eigenvalue-minimisations  :  1136
 total energy-change (2. order) : 0.1388327E+03  (-0.1244081E+03)
 number of electron      58.9627429 magnetization       6.4897349
 augmentation part        3.6026568 magnetization       5.4945449

 Broyden mixing:
  rms(total) = 0.23449E+01    rms(broyden)= 0.23272E+01
  rms(prec ) = 0.25886E+01
  weight for this iteration     100.00

 eigenvalues of (default mixing * dielectric matrix)
  average eigenvalue GAMMA=   0.3344
  0.3344  0.3344

 Free energy of the ion-electron system (eV)
  ---------------------------------------------------
  alpha Z        PSCENC =        22.92469884
  Ewald energy   TEWEN  =      6735.59374366
  -Hartree energ DENC   =     -9192.79038092
  -exchange      EXHF   =         0.00000000
  -V(xc)+E(xc)   XCENC  =        37.07295862
  PAW double counting   =      1300.77872135    -1222.65094339
  entropy T*S    EENTRO =         0.00000000
  eigenvalues    EBANDS =      -512.10755794
  atomic energy  EATOM  =      2786.70337683
  Solvation  Ediel_sol  =         0.00000000
  ---------------------------------------------------
  free energy    TOTEN  =       -44.47538294 eV

  energy without entropy =      -44.47538294  energy(sigma->0) =      -44.47538294


--------------------------------------------------------------------------------------------------------




--------------------------------------- Iteration      1(   8)  ---------------------------------------


    POTLOK:  cpu time   52.1320: real time   52.2758
    SETDIJ:  cpu time    0.0440: real time    0.0411
     EDDAV:  cpu time   30.8680: real time   31.6771
 BZINTS: Fermi energy: -3.777944; 59.000000 electrons
         Band energy:-498.174764;  BLOECHL correction: -0.010693
       DOS:  cpu time    0.0080: real time    0.0071
    CHARGE:  cpu time    2.0160: real time    2.0336
    MIXING:  cpu time    0.0360: real time    0.0419
    --------------------------------------------
      LOOP:  cpu time   85.1040: real time   86.0766

 eigenvalue-minimisations  :  1408
 total energy-change (2. order) :-0.8240811E-01  (-0.3054670E+01)
 number of electron      58.9999996 magnetization       6.4804053
 augmentation part       -0.6364275 magnetization       4.4829940

 Broyden mixing:
  rms(total) = 0.15395E+01    rms(broyden)= 0.15382E+01
  rms(prec ) = 0.15865E+01
  weight for this iteration     100.00

 eigenvalues of (default mixing * dielectric matrix)
  average eigenvalue GAMMA=   0.3000
  0.3370  0.2815  0.2815

 Free energy of the ion-electron system (eV)
  ---------------------------------------------------
  alpha Z        PSCENC =        22.92469884
  Ewald energy   TEWEN  =      6735.59374366
  -Hartree energ DENC   =     -9205.00728628
  -exchange      EXHF   =         0.00000000
  -V(xc)+E(xc)   XCENC  =        36.19947209
  PAW double counting   =      1322.73987833    -1245.53691003
  entropy T*S    EENTRO =         0.00000000
  eigenvalues    EBANDS =      -498.17476449
  atomic energy  EATOM  =      2786.70337683
  Solvation  Ediel_sol  =         0.00000000
  ---------------------------------------------------
  free energy    TOTEN  =       -44.55779105 eV

  energy without entropy =      -44.55779105  energy(sigma->0) =      -44.55779105


--------------------------------------------------------------------------------------------------------




--------------------------------------- Iteration      1(   9)  ---------------------------------------


    POTLOK:  cpu time   51.5360: real time   51.9142
    SETDIJ:  cpu time    0.0600: real time    0.0613
     EDDAV:  cpu time   29.6000: real time   29.8112
 BZINTS: Fermi energy: -3.923020; 59.000000 electrons
         Band energy:-501.672759;  BLOECHL correction: -0.008246
       DOS:  cpu time    0.0040: real time    0.0050
    CHARGE:  cpu time    1.8880: real time    2.0456
    MIXING:  cpu time    0.0440: real time    0.0454
    --------------------------------------------
      LOOP:  cpu time   83.1320: real time   83.8827

 eigenvalue-minimisations  :  1296
 total energy-change (2. order) :-0.2565897E+00  (-0.3578755E+00)
 number of electron      58.9999997 magnetization       6.4919714
 augmentation part       -0.1595473 magnetization       4.1923062

 Broyden mixing:
  rms(total) = 0.13204E+01    rms(broyden)= 0.13202E+01
  rms(prec ) = 0.13491E+01
  weight for this iteration     100.00

 eigenvalues of (default mixing * dielectric matrix)
  average eigenvalue GAMMA=   0.2526
  0.2388  0.2388  0.2663  0.2663

 Free energy of the ion-electron system (eV)
  ---------------------------------------------------
  alpha Z        PSCENC =        22.92469884
  Ewald energy   TEWEN  =      6735.59374366
  -Hartree energ DENC   =     -9202.27651441
  -exchange      EXHF   =         0.00000000
  -V(xc)+E(xc)   XCENC  =        36.71527928
  PAW double counting   =      1316.97286909    -1239.77507512
  entropy T*S    EENTRO =         0.00000000
  eigenvalues    EBANDS =      -501.67275889
  atomic energy  EATOM  =      2786.70337683
  Solvation  Ediel_sol  =         0.00000000
  ---------------------------------------------------
  free energy    TOTEN  =       -44.81438072 eV

  energy without entropy =      -44.81438072  energy(sigma->0) =      -44.81438072


--------------------------------------------------------------------------------------------------------




--------------------------------------- Iteration      1(  10)  ---------------------------------------


    POTLOK:  cpu time   51.1440: real time   52.0940
    SETDIJ:  cpu time    0.0440: real time    0.0416
     EDDAV:  cpu time   34.9320: real time   35.2871
 BZINTS: Fermi energy: -3.940504; 59.000000 electrons
         Band energy:-501.980694;  BLOECHL correction: -0.006375
       DOS:  cpu time    0.0040: real time    0.0066
    CHARGE:  cpu time    1.9920: real time    1.9958
    MIXING:  cpu time    0.0440: real time    0.0447
    --------------------------------------------
      LOOP:  cpu time   88.1600: real time   89.4698

 eigenvalue-minimisations  :  1568
 total energy-change (2. order) :-0.9106784E-02  (-0.1393955E+00)
 number of electron      58.9999997 magnetization       6.6029954
 augmentation part       -0.0769232 magnetization       4.2565721

 Broyden mixing:
  rms(total) = 0.12673E+01    rms(broyden)= 0.12673E+01
  rms(prec ) = 0.12867E+01
  weight for this iteration     100.00

 eigenvalues of (default mixing * dielectric matrix)
  average eigenvalue GAMMA=   0.3613
  0.5280  0.5280  0.3223  0.3223  0.1055

 Free energy of the ion-electron system (eV)
  ---------------------------------------------------
  alpha Z        PSCENC =        22.92469884
  Ewald energy   TEWEN  =      6735.59374366
  -Hartree energ DENC   =     -9202.09003044
  -exchange      EXHF   =         0.00000000
  -V(xc)+E(xc)   XCENC  =        36.88662078
  PAW double counting   =      1316.43054925    -1239.29175230
  entropy T*S    EENTRO =         0.00000000
  eigenvalues    EBANDS =      -501.98069413
  atomic energy  EATOM  =      2786.70337683
  Solvation  Ediel_sol  =         0.00000000
  ---------------------------------------------------
  free energy    TOTEN  =       -44.82348750 eV

  energy without entropy =      -44.82348750  energy(sigma->0) =      -44.82348750


--------------------------------------------------------------------------------------------------------




--------------------------------------- Iteration      1(  11)  ---------------------------------------


    POTLOK:  cpu time   52.0960: real time   52.2537
    SETDIJ:  cpu time    0.0400: real time    0.0420
     EDDAV:  cpu time   34.4840: real time   34.6781
 BZINTS: Fermi energy: -4.044880; 59.000000 electrons
         Band energy:-502.334374;  BLOECHL correction: -0.009812
       DOS:  cpu time    0.0040: real time    0.0070
    CHARGE:  cpu time    1.9640: real time    1.9868
    MIXING:  cpu time    0.0480: real time    0.0463
    --------------------------------------------
      LOOP:  cpu time   88.6360: real time   89.0139

 eigenvalue-minimisations  :  1536
 total energy-change (2. order) :-0.4510212E+00  (-0.3657501E-01)
 number of electron      58.9999997 magnetization       6.8922704
 augmentation part        0.2167527 magnetization       4.7576948

 Broyden mixing:
  rms(total) = 0.98074E+00    rms(broyden)= 0.98073E+00
  rms(prec ) = 0.98686E+00
  weight for this iteration     100.00

 eigenvalues of (default mixing * dielectric matrix)
  average eigenvalue GAMMA=   0.5392
  0.9933  0.9933  0.4852  0.3264  0.3264  0.1102

 Free energy of the ion-electron system (eV)
  ---------------------------------------------------
  alpha Z        PSCENC =        22.92469884
  Ewald energy   TEWEN  =      6735.59374366
  -Hartree energ DENC   =     -9202.73707179
  -exchange      EXHF   =         0.00000000
  -V(xc)+E(xc)   XCENC  =        37.83912490
  PAW double counting   =      1316.37875269    -1239.64275960
  entropy T*S    EENTRO =         0.00000000
  eigenvalues    EBANDS =      -502.33437426
  atomic energy  EATOM  =      2786.70337683
  Solvation  Ediel_sol  =         0.00000000
  ---------------------------------------------------
  free energy    TOTEN  =       -45.27450872 eV

  energy without entropy =      -45.27450872  energy(sigma->0) =      -45.27450872


--------------------------------------------------------------------------------------------------------




--------------------------------------- Iteration      1(  12)  ---------------------------------------


    POTLOK:  cpu time   51.6120: real time   51.9060
    SETDIJ:  cpu time    0.0440: real time    0.0425
     EDDAV:  cpu time   33.6960: real time   34.0012
 BZINTS: Fermi energy: -4.138695; 59.000000 electrons
         Band energy:-504.153717;  BLOECHL correction: -0.010279
       DOS:  cpu time    0.0080: real time    0.0073
    CHARGE:  cpu time    2.0160: real time    2.0163
    MIXING:  cpu time    0.0440: real time    0.0453
    --------------------------------------------
      LOOP:  cpu time   87.4200: real time   88.0186

 eigenvalue-minimisations  :  1504
 total energy-change (2. order) :-0.7379922E+00  (-0.6234791E-01)
 number of electron      58.9999997 magnetization       7.0829136
 augmentation part        0.4541922 magnetization       4.7790375

 Broyden mixing:
  rms(total) = 0.46768E+00    rms(broyden)= 0.46761E+00
  rms(prec ) = 0.47445E+00
  weight for this iteration     100.00

 eigenvalues of (default mixing * dielectric matrix)
  average eigenvalue GAMMA=   0.6531
  1.2959  1.2959  0.6029  0.6029  0.3320  0.3320  0.1102

 Free energy of the ion-electron system (eV)
  ---------------------------------------------------
  alpha Z        PSCENC =        22.92469884
  Ewald energy   TEWEN  =      6735.59374366
  -Hartree energ DENC   =     -9203.33870267
  -exchange      EXHF   =         0.00000000
  -V(xc)+E(xc)   XCENC  =        40.54733916
  PAW double counting   =      1312.65282156    -1236.94206172
  entropy T*S    EENTRO =         0.00000000
  eigenvalues    EBANDS =      -504.15371660
  atomic energy  EATOM  =      2786.70337683
  Solvation  Ediel_sol  =         0.00000000
  ---------------------------------------------------
  free energy    TOTEN  =       -46.01250093 eV

  energy without entropy =      -46.01250093  energy(sigma->0) =      -46.01250093


--------------------------------------------------------------------------------------------------------




--------------------------------------- Iteration      1(  13)  ---------------------------------------


    POTLOK:  cpu time   51.8960: real time   52.0756
    SETDIJ:  cpu time    0.0440: real time    0.0441
     EDDAV:  cpu time   33.1960: real time   33.9238
 BZINTS: Fermi energy: -4.169987; 59.000000 electrons
         Band energy:-505.850783;  BLOECHL correction: -0.009836
       DOS:  cpu time    0.0040: real time    0.0071
    CHARGE:  cpu time    2.0000: real time    2.0397
    MIXING:  cpu time    0.0480: real time    0.0478
    --------------------------------------------
      LOOP:  cpu time   87.1880: real time   88.1381

 eigenvalue-minimisations  :  1504
 total energy-change (2. order) :-0.1158367E+00  (-0.1930101E-01)
 number of electron      58.9999997 magnetization       7.2616151
 augmentation part        0.4776356 magnetization       5.0343092

 Broyden mixing:
  rms(total) = 0.24006E+00    rms(broyden)= 0.24004E+00
  rms(prec ) = 0.24897E+00
  weight for this iteration     100.00

 eigenvalues of (default mixing * dielectric matrix)
  average eigenvalue GAMMA=   0.7533
  1.3633  1.3633  0.9618  0.9618  0.6045  0.3307  0.3307  0.1102

 Free energy of the ion-electron system (eV)
  ---------------------------------------------------
  alpha Z        PSCENC =        22.92469884
  Ewald energy   TEWEN  =      6735.59374366
  -Hartree energ DENC   =     -9202.56230960
  -exchange      EXHF   =         0.00000000
  -V(xc)+E(xc)   XCENC  =        41.88361345
  PAW double counting   =      1309.60672808    -1234.42740607
  entropy T*S    EENTRO =         0.00000000
  eigenvalues    EBANDS =      -505.85078281
  atomic energy  EATOM  =      2786.70337683
  Solvation  Ediel_sol  =         0.00000000
  ---------------------------------------------------
  free energy    TOTEN  =       -46.12833762 eV

  energy without entropy =      -46.12833762  energy(sigma->0) =      -46.12833762


--------------------------------------------------------------------------------------------------------




--------------------------------------- Iteration      1(  14)  ---------------------------------------


    POTLOK:  cpu time   51.1200: real time   52.0382
    SETDIJ:  cpu time    0.0440: real time    0.0458
     EDDAV:  cpu time   33.1880: real time   33.6534
 BZINTS: Fermi energy: -4.209072; 59.000000 electrons
         Band energy:-508.703885;  BLOECHL correction: -0.011754
       DOS:  cpu time    0.0040: real time    0.0071
    CHARGE:  cpu time    1.9480: real time    1.9866
    MIXING:  cpu time    0.0440: real time    0.0455
    --------------------------------------------
      LOOP:  cpu time   86.3480: real time   87.7766

 eigenvalue-minimisations  :  1488
 total energy-change (2. order) :-0.4046465E-01  (-0.7636243E-02)
 number of electron      58.9999998 magnetization       7.4057000
 augmentation part        0.5442833 magnetization       4.9336373

 Broyden mixing:
  rms(total) = 0.19169E+00    rms(broyden)= 0.19169E+00
  rms(prec ) = 0.20672E+00
  weight for this iteration     100.00

 eigenvalues of (default mixing * dielectric matrix)
  average eigenvalue GAMMA=   0.7941
  1.4042  1.4042  1.2146  1.2146  0.3309  0.3309  0.5687  0.5687  0.1102

 Free energy of the ion-electron system (eV)
  ---------------------------------------------------
  alpha Z        PSCENC =        22.92469884
  Ewald energy   TEWEN  =      6735.59374366
  -Hartree energ DENC   =     -9199.97922288
  -exchange      EXHF   =         0.00000000
  -V(xc)+E(xc)   XCENC  =        42.34500573
  PAW double counting   =      1305.20887426    -1230.26139401
  entropy T*S    EENTRO =         0.00000000
  eigenvalues    EBANDS =      -508.70388471
  atomic energy  EATOM  =      2786.70337683
  Solvation  Ediel_sol  =         0.00000000
  ---------------------------------------------------
  free energy    TOTEN  =       -46.16880227 eV

  energy without entropy =      -46.16880227  energy(sigma->0) =      -46.16880227


--------------------------------------------------------------------------------------------------------




--------------------------------------- Iteration      1(  15)  ---------------------------------------


    POTLOK:  cpu time   50.8880: real time   51.7957
    SETDIJ:  cpu time    0.0400: real time    0.0423
     EDDAV:  cpu time   31.4960: real time   32.0444
 BZINTS: Fermi energy: -4.230659; 59.000000 electrons
         Band energy:-509.722097;  BLOECHL correction: -0.010688
       DOS:  cpu time    0.0040: real time    0.0068
    CHARGE:  cpu time    2.0160: real time    2.0585
    MIXING:  cpu time    0.0480: real time    0.0498
    --------------------------------------------
      LOOP:  cpu time   84.4920: real time   85.9974

 eigenvalue-minimisations  :  1408
 total energy-change (2. order) :-0.1328795E-01  (-0.7369121E-02)
 number of electron      58.9999997 magnetization       7.5467292
 augmentation part        0.4738512 magnetization       5.2600868

 Broyden mixing:
  rms(total) = 0.14059E+00    rms(broyden)= 0.14059E+00
  rms(prec ) = 0.14802E+00
  weight for this iteration     100.00

 eigenvalues of (default mixing * dielectric matrix)
  average eigenvalue GAMMA=   0.8496
  1.3767  1.3767  1.5763  1.5763  0.6769  0.6769  0.3309  0.3309  0.1102  0.4640

 Free energy of the ion-electron system (eV)
  ---------------------------------------------------
  alpha Z        PSCENC =        22.92469884
  Ewald energy   TEWEN  =      6735.59374366
  -Hartree energ DENC   =     -9198.69099767
  -exchange      EXHF   =         0.00000000
  -V(xc)+E(xc)   XCENC  =        42.06843009
  PAW double counting   =      1304.29639451    -1229.35563988
  entropy T*S    EENTRO =         0.00000000
  eigenvalues    EBANDS =      -509.72209660
  atomic energy  EATOM  =      2786.70337683
  Solvation  Ediel_sol  =         0.00000000
  ---------------------------------------------------
  free energy    TOTEN  =       -46.18209023 eV

  energy without entropy =      -46.18209023  energy(sigma->0) =      -46.18209023


--------------------------------------------------------------------------------------------------------




--------------------------------------- Iteration      1(  16)  ---------------------------------------


    POTLOK:  cpu time   51.6840: real time   51.8841
    SETDIJ:  cpu time    0.0400: real time    0.0416
     EDDAV:  cpu time   30.3720: real time   30.5471
 BZINTS: Fermi energy: -4.223172; 59.000000 electrons
         Band energy:-509.608635;  BLOECHL correction: -0.010528
       DOS:  cpu time    0.0080: real time    0.0076
    CHARGE:  cpu time    1.9840: real time    2.0034
    MIXING:  cpu time    0.0560: real time    0.0559
    --------------------------------------------
      LOOP:  cpu time   84.1440: real time   84.5397

 eigenvalue-minimisations  :  1344
 total energy-change (2. order) :-0.1806911E-01  (-0.5059496E-02)
 number of electron      58.9999997 magnetization       7.6108036
 augmentation part        0.3762103 magnetization       5.4676103

 Broyden mixing:
  rms(total) = 0.65177E-01    rms(broyden)= 0.65170E-01
  rms(prec ) = 0.69647E-01
  weight for this iteration     100.00

 eigenvalues of (default mixing * dielectric matrix)
  average eigenvalue GAMMA=   0.8719
  1.7466  1.7466  1.3585  1.3585  0.1102  0.3309  0.3309  0.7303  0.7303  0.5742
  0.5742

 Free energy of the ion-electron system (eV)
  ---------------------------------------------------
  alpha Z        PSCENC =        22.92469884
  Ewald energy   TEWEN  =      6735.59374366
  -Hartree energ DENC   =     -9198.97141001
  -exchange      EXHF   =         0.00000000
  -V(xc)+E(xc)   XCENC  =        42.32602036
  PAW double counting   =      1305.65439905    -1230.82235330
  entropy T*S    EENTRO =         0.00000000
  eigenvalues    EBANDS =      -509.60863476
  atomic energy  EATOM  =      2786.70337683
  Solvation  Ediel_sol  =         0.00000000
  ---------------------------------------------------
  free energy    TOTEN  =       -46.20015933 eV

  energy without entropy =      -46.20015933  energy(sigma->0) =      -46.20015933


--------------------------------------------------------------------------------------------------------




--------------------------------------- Iteration      1(  17)  ---------------------------------------


    POTLOK:  cpu time   51.3600: real time   52.0586
    SETDIJ:  cpu time    0.0320: real time    0.0337
     EDDAV:  cpu time   31.9320: real time   32.7892
 BZINTS: Fermi energy: -4.209356; 59.000000 electrons
         Band energy:-509.171633;  BLOECHL correction: -0.010447
       DOS:  cpu time    0.0040: real time    0.0053
    CHARGE:  cpu time    2.0000: real time    2.0163
    MIXING:  cpu time    0.0560: real time    0.0554
    --------------------------------------------
      LOOP:  cpu time   85.3840: real time   86.9585

 eigenvalue-minimisations  :  1440
 total energy-change (2. order) :-0.9527251E-02  (-0.1438818E-02)
 number of electron      58.9999997 magnetization       7.6610668
 augmentation part        0.3490567 magnetization       5.5692481

 Broyden mixing:
  rms(total) = 0.32416E-01    rms(broyden)= 0.32413E-01
  rms(prec ) = 0.34234E-01
  weight for this iteration     100.00

 eigenvalues of (default mixing * dielectric matrix)
  average eigenvalue GAMMA=   0.9629
  2.0431  2.0431  1.3547  1.3547  1.3010  0.1102  0.3309  0.3309  0.7237  0.7237
  0.7242  0.5146

 Free energy of the ion-electron system (eV)
  ---------------------------------------------------
  alpha Z        PSCENC =        22.92469884
  Ewald energy   TEWEN  =      6735.59374366
  -Hartree energ DENC   =     -9199.59799232
  -exchange      EXHF   =         0.00000000
  -V(xc)+E(xc)   XCENC  =        42.57049827
  PAW double counting   =      1307.12490580    -1232.35728451
  entropy T*S    EENTRO =         0.00000000
  eigenvalues    EBANDS =      -509.17163315
  atomic energy  EATOM  =      2786.70337683
  Solvation  Ediel_sol  =         0.00000000
  ---------------------------------------------------
  free energy    TOTEN  =       -46.20968658 eV

  energy without entropy =      -46.20968658  energy(sigma->0) =      -46.20968658


--------------------------------------------------------------------------------------------------------




--------------------------------------- Iteration      1(  18)  ---------------------------------------


    POTLOK:  cpu time   51.3360: real time   51.9357
    SETDIJ:  cpu time    0.0360: real time    0.0386
     EDDAV:  cpu time   29.1120: real time   29.4612
 BZINTS: Fermi energy: -4.206886; 59.000000 electrons
         Band energy:-509.106208;  BLOECHL correction: -0.010309
       DOS:  cpu time    0.0080: real time    0.0298
    CHARGE:  cpu time    1.8800: real time    1.9835
    MIXING:  cpu time    0.0800: real time    0.0786
    --------------------------------------------
      LOOP:  cpu time   82.4520: real time   83.5275

 eigenvalue-minimisations  :  1280
 total energy-change (2. order) :-0.6933798E-02  (-0.1212793E-02)
 number of electron      58.9999997 magnetization       7.6924682
 augmentation part        0.3476528 magnetization       5.6431963

 Broyden mixing:
  rms(total) = 0.19213E-01    rms(broyden)= 0.19212E-01
  rms(prec ) = 0.20571E-01
  weight for this iteration     100.00

 eigenvalues of (default mixing * dielectric matrix)
  average eigenvalue GAMMA=   0.9907
  2.1073  2.1073  1.3503  1.3503  1.6334  0.1102  0.3309  0.3309  0.8733  0.7466
  0.7466  0.6750  0.5178

 Free energy of the ion-electron system (eV)
  ---------------------------------------------------
  alpha Z        PSCENC =        22.92469884
  Ewald energy   TEWEN  =      6735.59374366
  -Hartree energ DENC   =     -9199.74052252
  -exchange      EXHF   =         0.00000000
  -V(xc)+E(xc)   XCENC  =        42.59557810
  PAW double counting   =      1308.19871863    -1233.38600553
  entropy T*S    EENTRO =         0.00000000
  eigenvalues    EBANDS =      -509.10620840
  atomic energy  EATOM  =      2786.70337683
  Solvation  Ediel_sol  =         0.00000000
  ---------------------------------------------------
  free energy    TOTEN  =       -46.21662038 eV

  energy without entropy =      -46.21662038  energy(sigma->0) =      -46.21662038


--------------------------------------------------------------------------------------------------------




--------------------------------------- Iteration      1(  19)  ---------------------------------------


    POTLOK:  cpu time   51.4280: real time   51.8568
    SETDIJ:  cpu time    0.0320: real time    0.0374
     EDDAV:  cpu time   26.7720: real time   27.7622
 BZINTS: Fermi energy: -4.215155; 59.000000 electrons
         Band energy:-509.502723;  BLOECHL correction: -0.010289
       DOS:  cpu time    0.0080: real time    0.0090
    CHARGE:  cpu time    2.0040: real time    2.0329
    MIXING:  cpu time    0.0560: real time    0.0544
    --------------------------------------------
      LOOP:  cpu time   80.3000: real time   81.7527

 eigenvalue-minimisations  :  1200
 total energy-change (2. order) :-0.2705725E-02  (-0.2864327E-03)
 number of electron      58.9999997 magnetization       7.7211269
 augmentation part        0.3530980 magnetization       5.6730965

 Broyden mixing:
  rms(total) = 0.16135E-01    rms(broyden)= 0.16134E-01
  rms(prec ) = 0.16795E-01
  weight for this iteration     100.00

 eigenvalues of (default mixing * dielectric matrix)
  average eigenvalue GAMMA=   1.0219
  2.5889  1.3518  1.3518  1.6701  1.6701  1.5481  0.1102  0.3309  0.3309  0.7519
  0.7519  0.6661  0.6661  0.5184

 Free energy of the ion-electron system (eV)
  ---------------------------------------------------
  alpha Z        PSCENC =        22.92469884
  Ewald energy   TEWEN  =      6735.59374366
  -Hartree energ DENC   =     -9199.31102941
  -exchange      EXHF   =         0.00000000
  -V(xc)+E(xc)   XCENC  =        42.53951992
  PAW double counting   =      1307.88900592    -1233.05591863
  entropy T*S    EENTRO =         0.00000000
  eigenvalues    EBANDS =      -509.50272325
  atomic energy  EATOM  =      2786.70337683
  Solvation  Ediel_sol  =         0.00000000
  ---------------------------------------------------
  free energy    TOTEN  =       -46.21932611 eV

  energy without entropy =      -46.21932611  energy(sigma->0) =      -46.21932611


--------------------------------------------------------------------------------------------------------




--------------------------------------- Iteration      1(  20)  ---------------------------------------


    POTLOK:  cpu time   51.4240: real time   51.9486
    SETDIJ:  cpu time    0.0440: real time    0.0450
     EDDAV:  cpu time   25.4280: real time   26.7386
 BZINTS: Fermi energy: -4.220430; 59.000000 electrons
         Band energy:-509.787660;  BLOECHL correction: -0.010309
       DOS:  cpu time    0.0080: real time    0.0076
    CHARGE:  cpu time    2.0200: real time    2.0235
    MIXING:  cpu time    0.0600: real time    0.0593
    --------------------------------------------
      LOOP:  cpu time   78.9840: real time   80.8226

 eigenvalue-minimisations  :  1152
 total energy-change (2. order) :-0.2297335E-02  (-0.1640087E-03)
 number of electron      58.9999997 magnetization       7.7503857
 augmentation part        0.3487923 magnetization       5.7104922

 Broyden mixing:
  rms(total) = 0.15251E-01    rms(broyden)= 0.15250E-01
  rms(prec ) = 0.16153E-01
  weight for this iteration     100.00

 eigenvalues of (default mixing * dielectric matrix)
  average eigenvalue GAMMA=   1.0876
  3.3883  2.1385  1.3545  1.3545  1.5173  1.5173  0.1102  0.3309  0.3309  0.7488
  0.7488  0.8045  0.8045  0.5181  0.6467

 Free energy of the ion-electron system (eV)
  ---------------------------------------------------
  alpha Z        PSCENC =        22.92469884
  Ewald energy   TEWEN  =      6735.59374366
  -Hartree energ DENC   =     -9199.03262459
  -exchange      EXHF   =         0.00000000
  -V(xc)+E(xc)   XCENC  =        42.53496544
  PAW double counting   =      1307.84972472    -1233.00784804
  entropy T*S    EENTRO =         0.00000000
  eigenvalues    EBANDS =      -509.78766031
  atomic energy  EATOM  =      2786.70337683
  Solvation  Ediel_sol  =         0.00000000
  ---------------------------------------------------
  free energy    TOTEN  =       -46.22162344 eV

  energy without entropy =      -46.22162344  energy(sigma->0) =      -46.22162344


--------------------------------------------------------------------------------------------------------




--------------------------------------- Iteration      1(  21)  ---------------------------------------


    POTLOK:  cpu time   51.5160: real time   51.6524
    SETDIJ:  cpu time    0.0440: real time    0.0450
     EDDAV:  cpu time   22.1360: real time   22.2430
 BZINTS: Fermi energy: -4.226071; 59.000000 electrons
         Band energy:-510.106868;  BLOECHL correction: -0.010314
       DOS:  cpu time    0.0040: real time    0.0063
    CHARGE:  cpu time    1.9880: real time    1.9987
    MIXING:  cpu time    0.0560: real time    0.0594
    --------------------------------------------
      LOOP:  cpu time   75.7440: real time   76.0047

 eigenvalue-minimisations  :   928
 total energy-change (2. order) :-0.7977616E-03  (-0.4295630E-04)
 number of electron      58.9999997 magnetization       7.7704840
 augmentation part        0.3466947 magnetization       5.7368460

 Broyden mixing:
  rms(total) = 0.12932E-01    rms(broyden)= 0.12932E-01
  rms(prec ) = 0.14158E-01
  weight for this iteration     100.00

 eigenvalues of (default mixing * dielectric matrix)
  average eigenvalue GAMMA=   1.1675
  4.2264  2.3545  1.6784  1.6784  1.3515  1.3515  1.1071  0.1102  0.3309  0.3309
  0.7887  0.7887  0.7248  0.7248  0.5191  0.6146

 Free energy of the ion-electron system (eV)
  ---------------------------------------------------
  alpha Z        PSCENC =        22.92469884
  Ewald energy   TEWEN  =      6735.59374366
  -Hartree energ DENC   =     -9198.72699549
  -exchange      EXHF   =         0.00000000
  -V(xc)+E(xc)   XCENC  =        42.54931053
  PAW double counting   =      1307.82648942    -1232.98617716
  entropy T*S    EENTRO =         0.00000000
  eigenvalues    EBANDS =      -510.10686784
  atomic energy  EATOM  =      2786.70337683
  Solvation  Ediel_sol  =         0.00000000
  ---------------------------------------------------
  free energy    TOTEN  =       -46.22242120 eV

  energy without entropy =      -46.22242120  energy(sigma->0) =      -46.22242120


--------------------------------------------------------------------------------------------------------




--------------------------------------- Iteration      1(  22)  ---------------------------------------


    POTLOK:  cpu time   51.6640: real time   51.7483
    SETDIJ:  cpu time    0.0440: real time    0.0423
     EDDAV:  cpu time   24.7680: real time   24.8853
 BZINTS: Fermi energy: -4.232650; 59.000000 electrons
         Band energy:-510.463600;  BLOECHL correction: -0.010288
       DOS:  cpu time    0.0040: real time    0.0073
    CHARGE:  cpu time    2.0360: real time    2.0459
    MIXING:  cpu time    0.0560: real time    0.0553
    --------------------------------------------
      LOOP:  cpu time   78.5720: real time   78.7843

 eigenvalue-minimisations  :  1040
 total energy-change (2. order) :-0.2924120E-03  (-0.2118538E-04)
 number of electron      58.9999997 magnetization       7.7809021
 augmentation part        0.3505486 magnetization       5.7344113

 Broyden mixing:
  rms(total) = 0.99561E-02    rms(broyden)= 0.99559E-02
  rms(prec ) = 0.10989E-01
  weight for this iteration     100.00

 eigenvalues of (default mixing * dielectric matrix)
  average eigenvalue GAMMA=   1.1731
  4.5493  2.3957  1.7682  1.7682  1.3508  1.3508  1.0702  0.1102  0.3309  0.3309
  0.8408  0.8408  0.7207  0.7207  0.5175  0.6382  0.6382

 Free energy of the ion-electron system (eV)
  ---------------------------------------------------
  alpha Z        PSCENC =        22.92469884
  Ewald energy   TEWEN  =      6735.59374366
  -Hartree energ DENC   =     -9198.38098976
  -exchange      EXHF   =         0.00000000
  -V(xc)+E(xc)   XCENC  =        42.56260198
  PAW double counting   =      1307.72422081    -1232.88676644
  entropy T*S    EENTRO =         0.00000000
  eigenvalues    EBANDS =      -510.46359954
  atomic energy  EATOM  =      2786.70337683
  Solvation  Ediel_sol  =         0.00000000
[...]
     34      -0.9675      0.00000
     35      -0.6699      0.00000
     36      -0.5407      0.00000
     37       0.1241      0.00000
     38       0.6013      0.00000
     39       0.8234      0.00000
     40       1.2154      0.00000
     41       1.7800      0.00000
     42       2.0021      0.00000
     43       2.2069      0.00000
     44       2.3264      0.00000
     45       2.5436      0.00000
     46       2.9224      0.00000
     47       3.3692      0.00000
     48       3.5326      0.00000

 k-point     5 :      -0.4000    0.2000    0.0000
  band No.  band energies     occupation 
      1     -18.2878      1.00000
      2     -16.3905      1.00000
      3     -16.2953      1.00000
      4     -16.0845      1.00000
      5     -15.7673      1.00000
      6     -15.5966      1.00000
      7     -12.2050      1.00000
      8     -10.6617      1.00000
      9      -8.6422      1.00000
     10      -8.3161      1.00000
     11      -8.1197      1.00000
     12      -7.6240      1.00000
     13      -7.2416      1.00000
     14      -6.6834      1.00000
     15      -6.2394      1.00000
     16      -6.0218      1.00000
     17      -5.9137      1.00000
     18      -5.7825      1.00000
     19      -5.7641      1.00000
     20      -5.6000      1.00000
     21      -5.1243      1.00000
     22      -5.0172      1.00000
     23      -4.8380      1.00000
     24      -4.5378      1.00000
     25      -4.3028      1.00000
     26      -2.8107      0.00000
     27      -2.2441      0.00000
     28      -2.1284      0.00000
     29      -1.5593      0.00000
     30      -1.5574      0.00000
     31      -1.4533      0.00000
     32      -1.2767      0.00000
     33      -1.0867      0.00000
     34      -1.0327      0.00000
     35      -0.7343      0.00000
     36      -0.6878      0.00000
     37       0.2054      0.00000
     38       0.3680      0.00000
     39       0.7624      0.00000
     40       1.2901      0.00000
     41       1.5293      0.00000
     42       1.7709      0.00000
     43       2.6324      0.00000
     44       2.7379      0.00000
     45       2.8720      0.00000
     46       3.0389      0.00000
     47       3.0707      0.00000
     48       3.3798      0.00000


--------------------------------------------------------------------------------------------------------


 soft charge-density along one line, spin component           1
         0         1         2         3         4         5         6         7         8         9
 total charge-density along one line

 soft charge-density along one line, spin component           2
         0         1         2         3         4         5         6         7         8         9
 total charge-density along one line

 pseudopotential strength for first ion, spin component:           1
-12.000   0.044  -0.000  -0.004  -0.000   0.853  -0.010   0.000
  0.044 -11.949   0.000  -0.000  -0.004  -0.010   0.842  -0.000
 -0.000   0.000 -12.007   0.000   0.000   0.000  -0.000   0.855
 -0.004  -0.000   0.000 -11.949  -0.044   0.001   0.000  -0.000
 -0.000  -0.004   0.000  -0.044 -12.000   0.000   0.001  -0.000
  0.853  -0.010   0.000   0.001   0.000   0.300   0.002  -0.000
 -0.010   0.842  -0.000   0.000   0.001   0.002   0.303   0.000
  0.000  -0.000   0.855  -0.000  -0.000  -0.000   0.000   0.300
  0.001   0.000  -0.000   0.842   0.010  -0.000  -0.000   0.000
  0.000   0.001  -0.000   0.010   0.853  -0.000  -0.000   0.000
  0.000  -0.000  -0.003  -0.000   0.000  -0.000   0.000   0.001
 -0.000   0.000   0.000   0.000  -0.000   0.000  -0.000  -0.000
 -0.002   0.003   0.000  -0.000  -0.000   0.000  -0.001  -0.000
 -0.000  -0.000   0.007  -0.000  -0.000   0.000   0.000  -0.001
 -0.000  -0.000   0.000   0.003   0.002   0.000   0.000  -0.000
  0.001  -0.005  -0.000   0.000  -0.000  -0.000   0.001   0.000
  0.000   0.000  -0.007   0.000   0.000  -0.000  -0.000   0.001
 -0.000   0.000  -0.000  -0.005  -0.001  -0.000  -0.000   0.000
 pseudopotential strength for first ion, spin component:           2
 -9.647  -0.071  -0.000   0.005   0.000   0.292   0.015   0.000
 -0.071  -9.690   0.000  -0.000   0.005   0.015   0.301  -0.000
 -0.000   0.000  -9.574   0.000   0.000   0.000  -0.000   0.277
  0.005  -0.000   0.000  -9.690   0.071  -0.001   0.000  -0.000
  0.000   0.005   0.000   0.071  -9.647  -0.000  -0.001  -0.000
  0.292   0.015   0.000  -0.001  -0.000   0.431  -0.003  -0.000
  0.015   0.301  -0.000   0.000  -0.001  -0.003   0.429   0.000
  0.000  -0.000   0.277  -0.000  -0.000  -0.000   0.000   0.434
 -0.001   0.000  -0.000   0.301  -0.015   0.000  -0.000   0.000
 -0.000  -0.001  -0.000  -0.015   0.292   0.000   0.000   0.000
 -0.000  -0.000  -0.002  -0.000   0.000  -0.000   0.000   0.001
  0.000   0.000   0.000   0.000  -0.000  -0.000  -0.000  -0.000
  0.002   0.012   0.000  -0.000   0.002  -0.001  -0.003  -0.000
 -0.000  -0.000   0.011  -0.000   0.000   0.000   0.000  -0.002
  0.002  -0.000   0.000   0.012  -0.002  -0.000   0.000  -0.000
 -0.001  -0.009  -0.000   0.000  -0.001   0.000   0.002   0.000
  0.000   0.000  -0.009   0.000  -0.000  -0.000  -0.000   0.002
 -0.001   0.000  -0.000  -0.009   0.001   0.000  -0.000   0.000
 total augmentation occupancy for first ion, spin component:           1
  1.066   0.068   0.000  -0.010  -0.000  -0.150   0.077  -0.000  -0.006   0.000  -0.000  -0.000  -0.010   0.000  -0.000   0.001
  0.068   1.114   0.000  -0.000  -0.010   0.077  -0.078   0.000   0.000  -0.006   0.000   0.000  -0.013   0.000   0.002   0.006
  0.000   0.000   1.037   0.000  -0.000  -0.000   0.000  -0.204   0.000   0.000  -0.015  -0.019  -0.000   0.001  -0.000   0.000
 -0.010  -0.000   0.000   1.114  -0.068  -0.006  -0.000   0.000  -0.078  -0.077   0.000   0.000  -0.002  -0.000  -0.013  -0.000
 -0.000  -0.010  -0.000  -0.068   1.066  -0.000  -0.006   0.000  -0.077  -0.150   0.000   0.000  -0.000  -0.000   0.010   0.001
 -0.150   0.077  -0.000  -0.006  -0.000   0.219   0.144   0.000  -0.024  -0.000   0.000  -0.000  -0.023  -0.000   0.001   0.001
  0.077  -0.078   0.000  -0.000  -0.006   0.144   0.359   0.000  -0.000  -0.024   0.000   0.000  -0.038  -0.000  -0.003   0.000
 -0.000   0.000  -0.204   0.000   0.000   0.000   0.000   0.161   0.000  -0.000   0.029  -0.006  -0.000  -0.007  -0.000   0.000
 -0.006   0.000   0.000  -0.078  -0.077  -0.024  -0.000   0.000   0.359  -0.144   0.000   0.000   0.003   0.000  -0.038  -0.000
  0.000  -0.006   0.000  -0.077  -0.150  -0.000  -0.024  -0.000  -0.144   0.219  -0.000   0.000   0.001   0.000   0.023  -0.001
 -0.000   0.000  -0.015  -0.000   0.000   0.000   0.000   0.029   0.000  -0.000   0.949  -0.153   0.000  -0.045   0.000  -0.000
 -0.000   0.000  -0.019   0.000   0.000  -0.000   0.000  -0.006   0.000   0.000  -0.153   0.074   0.000   0.010   0.000   0.000
 -0.010  -0.013  -0.000  -0.002  -0.000  -0.023  -0.038  -0.000   0.003   0.001   0.000   0.000   0.127   0.000  -0.000  -0.004
  0.000  -0.000   0.001  -0.000  -0.000  -0.000  -0.000  -0.007   0.000   0.000  -0.045   0.010   0.000   0.134   0.000  -0.000
 -0.000   0.002  -0.000  -0.013   0.010   0.001  -0.003  -0.000  -0.038   0.023   0.000   0.000  -0.000   0.000   0.127   0.000
  0.001   0.006   0.000  -0.000   0.001   0.001   0.000   0.000  -0.000  -0.001  -0.000   0.000  -0.004  -0.000   0.000   0.000
  0.000   0.000   0.006   0.000  -0.000  -0.000   0.000  -0.001   0.000   0.000   0.003  -0.001  -0.000  -0.005  -0.000   0.000
  0.001   0.000   0.000   0.006  -0.001  -0.001   0.000  -0.000   0.000  -0.001   0.000  -0.000  -0.000  -0.000  -0.004  -0.000
 total augmentation occupancy for first ion, spin component:           2
  0.859  -0.122   0.000   0.010  -0.000  -0.303  -0.059  -0.000   0.011   0.000  -0.000  -0.000   0.013   0.000   0.005  -0.000
 -0.122   0.753  -0.000  -0.000   0.010  -0.059  -0.351  -0.000   0.000   0.011   0.000   0.000   0.020   0.000   0.003   0.003
  0.000  -0.000   0.932  -0.000  -0.000  -0.000  -0.000  -0.291  -0.000   0.000  -0.019  -0.012   0.000   0.004   0.000  -0.000
  0.010  -0.000  -0.000   0.753   0.122   0.011  -0.000  -0.000  -0.351   0.059  -0.000  -0.000  -0.003   0.000   0.020   0.000
 -0.000   0.010  -0.000   0.122   0.859  -0.000   0.011   0.000   0.059  -0.303   0.000   0.000   0.005  -0.000  -0.013   0.001
 -0.303  -0.059  -0.000   0.011  -0.000   0.092   0.035   0.000  -0.008  -0.000   0.000   0.000  -0.006  -0.000  -0.003  -0.000
 -0.059  -0.351  -0.000  -0.000   0.011   0.035   0.128   0.000  -0.000  -0.008   0.000   0.000  -0.010   0.000  -0.002  -0.002
 -0.000  -0.000  -0.291  -0.000   0.000   0.000   0.000   0.086   0.000  -0.000   0.011   0.006  -0.000  -0.002  -0.000  -0.000
  0.011   0.000  -0.000  -0.351   0.059  -0.008  -0.000   0.000   0.128  -0.035   0.000  -0.000   0.002   0.000  -0.010   0.000
  0.000   0.011   0.000   0.059  -0.303  -0.000  -0.008  -0.000  -0.035   0.092  -0.000  -0.000  -0.003   0.000   0.006  -0.000
 -0.000   0.000  -0.019  -0.000   0.000   0.000   0.000   0.011   0.000  -0.000   0.166   0.101   0.000  -0.002   0.000   0.000
 -0.000   0.000  -0.012  -0.000   0.000   0.000   0.000   0.006  -0.000  -0.000   0.101  -0.033   0.000  -0.005   0.000   0.000
  0.013   0.020   0.000  -0.003   0.005  -0.006  -0.010  -0.000   0.002  -0.003   0.000   0.000   0.016   0.000  -0.000   0.000
  0.000   0.000   0.004   0.000  -0.000  -0.000   0.000  -0.002  -0.000   0.000  -0.002  -0.005   0.000   0.014   0.000   0.000
  0.005   0.003   0.000   0.020  -0.013  -0.003  -0.002  -0.000  -0.010   0.006   0.000   0.000  -0.000   0.000   0.016   0.000
 -0.000   0.003  -0.000   0.000   0.001  -0.000  -0.002  -0.000   0.000  -0.000   0.000  -0.000   0.000   0.000   0.000  -0.000
  0.000  -0.000   0.005   0.000  -0.000  -0.000   0.000  -0.002  -0.000   0.000   0.000   0.000   0.000   0.000   0.000  -0.000
  0.001  -0.000   0.000   0.003   0.000  -0.000  -0.000  -0.000  -0.002   0.000   0.000   0.000  -0.000   0.000   0.000   0.000


------------------------ aborting loop because EDIFF is reached ----------------------------------------





 total charge     

# of ion       s       p       d       tot
------------------------------------------
    1        0.242   0.254   4.905   5.401
    2        0.242   0.254   4.906   5.402
    3        1.105   1.203   0.160   2.468
    4        1.002   1.418   0.000   2.420
    5        1.371   2.356   0.000   3.726
    6        1.358   2.327   0.000   3.686
    7        1.367   2.343   0.000   3.710
    8        1.370   2.336   0.000   3.706
    9        1.364   2.346   0.000   3.710
   10        1.368   2.339   0.000   3.707
--------------------------------------------------
tot         10.789  17.177   9.970  37.937



 magnetization (x)

# of ion       s       p       d       tot
------------------------------------------
    1        0.031   0.028   3.945   4.004
    2        0.031   0.027   3.946   4.005
    3        0.008   0.040   0.005   0.053
    4        0.003   0.021   0.000   0.023
    5        0.009   0.030   0.000   0.039
    6        0.008   0.017   0.000   0.025
    7        0.008   0.022   0.000   0.031
    8        0.011  -0.007   0.000   0.004
    9        0.008   0.019   0.000   0.027
   10        0.010   0.003   0.000   0.013
--------------------------------------------------
tot          0.127   0.200   7.896   8.223

    CHARGE:  cpu time    1.9880: real time    2.0193
    FORLOC:  cpu time    0.0640: real time    0.0656
    FORNL :  cpu time    6.0760: real time    6.8887
    STRESS:  cpu time   20.0800: real time   20.5085
    FORCOR:  cpu time   52.9280: real time   53.0703
    FORHAR:  cpu time    0.3640: real time    0.3687
    MIXING:  cpu time    0.0400: real time    0.0428
    OFIELD:  cpu time    0.0000: real time    0.0001

  FORCE on cell =-STRESS in cart. coord.  units (eV):
  Direction    XX          YY          ZZ          XY          YZ          ZX
  --------------------------------------------------------------------------------------
  Alpha Z    31.09146    31.09146    31.09146
  Ewald   10566.68416 10566.68109-12370.82588    -0.00115    -0.00050    -0.00091
  Hartree 10995.91515 10995.91548-10738.13566    -0.00002     0.00004     0.00007
  E(xc)    -230.28221  -230.28223  -229.97225     0.00003     0.00000     0.00001
  Local  -22464.53118-22464.52995 22163.24975     0.00076     0.00026     0.00048
  n-local   466.17896   468.58556   469.74243     1.07317     0.00088    -0.09391
  augment   -49.32580   -49.32584   -52.71869     0.00007     0.00001     0.00002
  Kinetic   686.73337   679.18150   727.64403    -4.41973    -0.77449    -0.93301
  Fock        0.00000     0.00000     0.00000     0.00000     0.00000     0.00000
  -------------------------------------------------------------------------------------
  Total      -0.10951    -0.10951     0.07518    -0.00000     0.00000     0.00000
  in kB      -0.24562    -0.24562     0.16862    -0.00000     0.00000     0.00000
  external pressure =       -0.11 kB  Pullay stress =        0.00 kB


 VOLUME and BASIS-vectors are now :
 -----------------------------------------------------------------------------
  energy-cutoff  :      520.00
  volume of cell :      714.35
      direct lattice vectors                 reciprocal lattice vectors
     6.069229996  0.000000127  0.000000000     0.164765549 -0.095127424 -0.000000000
     3.034614577  5.256107194  0.000000000    -0.000000004  0.190254874  0.000000000
     0.000000000 -0.000000000 22.393118711    -0.000000000 -0.000000000  0.044656576

  length of vectors
     6.069229996  6.069229644 22.393118711     0.190254863  0.190254874  0.044656576


 FORCES acting on ions
    electron-ion (+dipol)            ewald-force                    non-local-force                 convergence-correction
 -----------------------------------------------------------------------------------------------
   -.450E-04 -.422E-04 0.156E+00   0.491E-03 0.286E-03 -.140E+01   0.402E-18 0.299E-17 0.130E+01   0.489E-06 0.784E-07 0.156E-01
   0.580E-04 0.192E-04 -.871E-01   -.502E-03 -.292E-03 -.115E+01   0.387E-17 -.478E-18 0.129E+01   0.469E-06 0.876E-07 0.127E-01
   -.283E-04 -.206E-04 0.235E+03   -.207E-03 -.116E-03 -.232E+03   -.759E-18 0.785E-17 -.246E+01   -.203E-06 -.120E-06 -.233E-01
   0.465E-04 0.253E-04 -.253E+03   0.269E-03 0.150E-03 0.247E+03   0.562E-17 0.436E-17 0.696E+01   -.487E-06 -.283E-06 0.274E-01
   0.356E+02 -.513E-01 -.480E+03   -.388E+02 0.481E-01 0.483E+03   0.318E+01 -.529E-03 -.318E+01   -.159E-02 0.348E-02 0.499E-01
   -.178E+02 -.308E+02 -.480E+03   0.194E+02 0.336E+02 0.483E+03   -.159E+01 -.276E+01 -.318E+01   0.381E-02 -.361E-03 0.499E-01
   -.178E+02 0.308E+02 -.480E+03   0.193E+02 -.336E+02 0.483E+03   -.159E+01 0.276E+01 -.318E+01   -.222E-02 -.312E-02 0.499E-01
   0.424E+01 0.657E-01 0.484E+03   -.586E+00 -.714E-01 -.487E+03   -.367E+01 0.849E-03 0.283E+01   -.955E-03 0.463E-02 -.476E-01
   -.206E+01 -.370E+01 0.484E+03   0.232E+00 0.543E+00 -.487E+03   0.184E+01 0.318E+01 0.283E+01   0.449E-02 -.149E-02 -.476E-01
   -.217E+01 0.364E+01 0.484E+03   0.355E+00 -.471E+00 -.487E+03   0.183E+01 -.318E+01 0.283E+01   -.353E-02 -.314E-02 -.476E-01
 -----------------------------------------------------------------------------------------------
   0.995E-04 -.142E-04 -.612E+01   0.921E-14 -.500E-15 -.114E-12   0.666E-15 0.444E-15 0.604E+01   0.213E-06 -.576E-07 0.394E-01


 POSITION                                       TOTAL-FORCE (eV/Angst)
 -----------------------------------------------------------------------------------
      3.03461      1.75203     11.15360         0.000000     -0.000000      0.077255
      6.06923      3.50407     11.15488         0.000000     -0.000000      0.072677
      0.00000     -0.00000     10.03695        -0.000000      0.000000     -0.269055
      0.00000     -0.00000     12.33208         0.000000     -0.000000      0.016913
      4.05865     -0.00004     12.83570        -0.002273      0.000746     -0.018993
      1.00525      1.74124     12.83570         0.001782      0.001596     -0.018993
      4.03995      3.51492     12.83570         0.000491     -0.002341     -0.018993
      2.20170      0.00009      9.59803        -0.019197     -0.001128      0.053063
      1.93384      3.34933      9.59803         0.008622      0.017190      0.053063
      4.96830      1.90668      9.59803         0.010576     -0.016061      0.053063
 -----------------------------------------------------------------------------------
    total drift:                                0.000100     -0.000014     -0.041527


--------------------------------------------------------------------------------------------------------



  FREE ENERGIE OF THE ION-ELECTRON SYSTEM (eV)
  ---------------------------------------------------
  free  energy   TOTEN  =       -52.18841190 eV

  energy  without entropy=      -52.18841190  energy(sigma->0) =      -52.18841190

 d Force = 0.4429122E-04[ 0.399E-04, 0.487E-04]  d Energy = 0.4626931E-04-0.198E-05
 d Force =-0.2542108E+00[-0.254E+00,-0.254E+00]  d Ewald  = 0.4185481E-01-0.296E+00


--------------------------------------------------------------------------------------------------------


    POTLOK:  cpu time   53.1960: real time   53.3797


--------------------------------------------------------------------------------------------------------




--------------------------------------------------------------------------------------------------------


  
 reached required accuracy - stopping structural energy minimisation
     LOOP+:  cpu time  291.8120: real time  294.0880
    4ORBIT:  cpu time    0.0000: real time    0.0000



 total charge     

# of ion       s       p       d       tot
------------------------------------------
    1        0.242   0.254   4.905   5.401
    2        0.242   0.254   4.906   5.402
    3        1.105   1.203   0.160   2.468
    4        1.002   1.418   0.000   2.420
    5        1.371   2.356   0.000   3.726
    6        1.358   2.327   0.000   3.686
    7        1.367   2.343   0.000   3.710
    8        1.370   2.336   0.000   3.706
    9        1.364   2.346   0.000   3.710
   10        1.368   2.339   0.000   3.707
--------------------------------------------------
tot         10.789  17.177   9.970  37.937



 magnetization (x)

# of ion       s       p       d       tot
------------------------------------------
    1        0.031   0.028   3.945   4.004
    2        0.031   0.027   3.946   4.005
    3        0.008   0.040   0.005   0.053
    4        0.003   0.021   0.000   0.023
    5        0.009   0.030   0.000   0.039
    6        0.008   0.017   0.000   0.025
    7        0.008   0.022   0.000   0.031
    8        0.011  -0.007   0.000   0.004
    9        0.008   0.019   0.000   0.027
   10        0.010   0.003   0.000   0.013
--------------------------------------------------
tot          0.127   0.200   7.896   8.223

 BZINTS: Fermi energy: -2.867237; 59.000000 electrons
         Band energy:-504.511840;  BLOECHL correction: -0.013178

 total amount of memory used by VASP MPI-rank0   131395. kBytes
=======================================================================

   base      :      30000. kBytes
   nonlr-proj:       8910. kBytes
   fftplans  :      11247. kBytes
   grid      :      68332. kBytes
   one-center:        311. kBytes
   wavefun   :      12595. kBytes

  
  
 General timing and accounting informations for this job:
 ========================================================
  
                  Total CPU time used (sec):    18000.396
                            User time (sec):    17485.392
                          System time (sec):      515.004
                         Elapsed time (sec):    18177.966
  
                   Maximum memory used (kb):      388456.
                   Average memory used (kb):           0.
  
                          Minor page faults:     14607478
                          Major page faults:            9
                 Voluntary context switches:         1126
