  10  10   1   0
  0.9688350E+02  0.6907777E-09  0.6907777E-09  0.2344459E-08  0.5000000E-15
   1.0000000000000000E-004
  CAR 
 unknown system                          
      4.71368356    -18.88561805  301     -2.85099182      1.00000000
    -18.886  0.0000E+00  0.0000E+00  0.0000E+00  0.0000E+00
    -18.807  0.0000E+00  0.0000E+00  0.0000E+00  0.0000E+00
    -18.728  0.0000E+00  0.0000E+00  0.0000E+00  0.0000E+00
    -18.650  0.0000E+00  0.0000E+00  0.0000E+00  0.0000E+00
    -18.571  0.0000E+00  0.0000E+00  0.0000E+00  0.0000E+00
    -18.492  0.0000E+00  0.0000E+00  0.0000E+00  0.0000E+00
    -18.414  0.0000E+00  0.0000E+00  0.0000E+00  0.0000E+00
    -18.335  0.0000E+00  0.0000E+00  0.0000E+00  0.0000E+00
    -18.256  0.0000E+00  0.0000E+00  0.0000E+00  0.0000E+00
    -18.178  0.0000E+00  0.0000E+00  0.0000E+00  0.0000E+00
    -18.099  0.0000E+00  0.0000E+00  0.0000E+00  0.0000E+00
    -18.020  0.0000E+00  0.0000E+00  0.0000E+00  0.0000E+00
    -17.942  0.0000E+00  0.0000E+00  0.0000E+00  0.0000E+00
    -17.863  0.0000E+00  0.0000E+00  0.0000E+00  0.0000E+00
    -17.784  0.2708E-02  0.2183E-02  0.3873E-04  0.2519E-04
    -17.706  0.1015E-01  0.9627E-02  0.5446E-03  0.4897E-03
    -17.627  0.8139E-02  0.8086E-02  0.1420E-02  0.1375E-02
    -17.548  0.8871E-02  0.8818E-02  0.2089E-02  0.2040E-02
    -17.470  0.9604E-02  0.9550E-02  0.2816E-02  0.2762E-02
    -17.391  0.1034E-01  0.1028E-01  0.3600E-02  0.3542E-02
    -17.312  0.1101E-01  0.1097E-01  0.4441E-02  0.4379E-02
    -17.234  0.1160E-01  0.1157E-01  0.5330E-02  0.5265E-02
    -17.155  0.1720E-01  0.1746E-01  0.6558E-02  0.6462E-02
    -17.076  0.1382E-01  0.1407E-01  0.7778E-02  0.7702E-02
    -16.998  0.1045E-01  0.1069E-01  0.8733E-02  0.8676E-02
    -16.919  0.7071E-02  0.7305E-02  0.9422E-02  0.9384E-02
    -16.840  0.0000E+00  0.0000E+00  0.1010E-01  0.1010E-01
    -16.762  0.0000E+00  0.0000E+00  0.1010E-01  0.1010E-01
    -16.683  0.2327E-02  0.1102E-02  0.1012E-01  0.1010E-01
    -16.604  0.3441E-01  0.3221E-01  0.1216E-01  0.1193E-01
    -16.526  0.5362E-01  0.5114E-01  0.1545E-01  0.1510E-01
    -16.447  0.2955E-01  0.3211E-01  0.1906E-01  0.1885E-01
    -16.368  0.0000E+00  0.2119E-02  0.2020E-01  0.2020E-01
    -16.290  0.0000E+00  0.0000E+00  0.2020E-01  0.2020E-01
    -16.211  0.3477E-01  0.3485E-01  0.2251E-01  0.2227E-01
    -16.132  0.2048E-01  0.2411E-01  0.2610E-01  0.2595E-01
    -16.054  0.3290E-01  0.3276E-01  0.2918E-01  0.2895E-01
    -15.975  0.3423E-01  0.3408E-01  0.3182E-01  0.3158E-01
    -15.896  0.3555E-01  0.3540E-01  0.3457E-01  0.3432E-01
    -15.818  0.5006E-01  0.4907E-01  0.3871E-01  0.3835E-01
    -15.739  0.4315E-01  0.5905E-01  0.4304E-01  0.4260E-01
    -15.660  0.1019E+00  0.1076E+00  0.4980E-01  0.4901E-01
    -15.582  0.4539E-01  0.4742E-01  0.5545E-01  0.5509E-01
    -15.503  0.3800E-01  0.3943E-01  0.5886E-01  0.5855E-01
    -15.424  0.0000E+00  0.0000E+00  0.6061E-01  0.6061E-01
    -15.346  0.0000E+00  0.0000E+00  0.6061E-01  0.6061E-01
    -15.267  0.0000E+00  0.0000E+00  0.6061E-01  0.6061E-01
    -15.188  0.0000E+00  0.0000E+00  0.6061E-01  0.6061E-01
    -15.110  0.0000E+00  0.0000E+00  0.6061E-01  0.6061E-01
    -15.031  0.0000E+00  0.0000E+00  0.6061E-01  0.6061E-01
    -14.952  0.0000E+00  0.0000E+00  0.6061E-01  0.6061E-01
    -14.874  0.0000E+00  0.0000E+00  0.6061E-01  0.6061E-01
    -14.795  0.0000E+00  0.0000E+00  0.6061E-01  0.6061E-01
    -14.716  0.0000E+00  0.0000E+00  0.6061E-01  0.6061E-01
    -14.638  0.0000E+00  0.0000E+00  0.6061E-01  0.6061E-01
    -14.559  0.0000E+00  0.0000E+00  0.6061E-01  0.6061E-01
    -14.480  0.0000E+00  0.0000E+00  0.6061E-01  0.6061E-01
    -14.402  0.0000E+00  0.0000E+00  0.6061E-01  0.6061E-01
    -14.323  0.0000E+00  0.0000E+00  0.6061E-01  0.6061E-01
    -14.244  0.0000E+00  0.0000E+00  0.6061E-01  0.6061E-01
    -14.166  0.0000E+00  0.0000E+00  0.6061E-01  0.6061E-01
    -14.087  0.0000E+00  0.0000E+00  0.6061E-01  0.6061E-01
    -14.008  0.0000E+00  0.0000E+00  0.6061E-01  0.6061E-01
    -13.930  0.0000E+00  0.0000E+00  0.6061E-01  0.6061E-01
    -13.851  0.0000E+00  0.0000E+00  0.6061E-01  0.6061E-01
    -13.772  0.0000E+00  0.0000E+00  0.6061E-01  0.6061E-01
    -13.694  0.0000E+00  0.0000E+00  0.6061E-01  0.6061E-01
    -13.615  0.0000E+00  0.0000E+00  0.6061E-01  0.6061E-01
    -13.536  0.0000E+00  0.0000E+00  0.6061E-01  0.6061E-01
    -13.458  0.0000E+00  0.0000E+00  0.6061E-01  0.6061E-01
    -13.379  0.0000E+00  0.0000E+00  0.6061E-01  0.6061E-01
    -13.300  0.0000E+00  0.0000E+00  0.6061E-01  0.6061E-01
    -13.222  0.0000E+00  0.0000E+00  0.6061E-01  0.6061E-01
    -13.143  0.0000E+00  0.0000E+00  0.6061E-01  0.6061E-01
    -13.064  0.0000E+00  0.0000E+00  0.6061E-01  0.6061E-01
    -12.986  0.0000E+00  0.0000E+00  0.6061E-01  0.6061E-01
    -12.907  0.0000E+00  0.0000E+00  0.6061E-01  0.6061E-01
    -12.828  0.0000E+00  0.0000E+00  0.6061E-01  0.6061E-01
    -12.750  0.0000E+00  0.0000E+00  0.6061E-01  0.6061E-01
    -12.671  0.0000E+00  0.0000E+00  0.6061E-01  0.6061E-01
    -12.592  0.0000E+00  0.0000E+00  0.6061E-01  0.6061E-01
    -12.514  0.0000E+00  0.0000E+00  0.6061E-01  0.6061E-01
    -12.435  0.0000E+00  0.0000E+00  0.6061E-01  0.6061E-01
    -12.356  0.0000E+00  0.0000E+00  0.6061E-01  0.6061E-01
    -12.278  0.0000E+00  0.0000E+00  0.6061E-01  0.6061E-01
    -12.199  0.0000E+00  0.0000E+00  0.6061E-01  0.6061E-01
    -12.120  0.0000E+00  0.0000E+00  0.6061E-01  0.6061E-01
    -12.042  0.9361E-02  0.9029E-02  0.6079E-01  0.6078E-01
    -11.963  0.1573E-01  0.1550E-01  0.6207E-01  0.6205E-01
    -11.884  0.2355E-01  0.2323E-01  0.6362E-01  0.6357E-01
    -11.806  0.4640E-01  0.4675E-01  0.6608E-01  0.6597E-01
    -11.727  0.2949E-01  0.3000E-01  0.6906E-01  0.6899E-01
    -11.648  0.0000E+00  0.0000E+00  0.7071E-01  0.7071E-01
    -11.570  0.0000E+00  0.0000E+00  0.7071E-01  0.7071E-01
    -11.491  0.0000E+00  0.0000E+00  0.7071E-01  0.7071E-01
    -11.413  0.0000E+00  0.0000E+00  0.7071E-01  0.7071E-01
    -11.334  0.0000E+00  0.0000E+00  0.7071E-01  0.7071E-01
    -11.255  0.0000E+00  0.0000E+00  0.7071E-01  0.7071E-01
    -11.177  0.0000E+00  0.0000E+00  0.7071E-01  0.7071E-01
    -11.098  0.0000E+00  0.0000E+00  0.7071E-01  0.7071E-01
    -11.019  0.0000E+00  0.0000E+00  0.7071E-01  0.7071E-01
    -10.941  0.0000E+00  0.0000E+00  0.7071E-01  0.7071E-01
    -10.862  0.0000E+00  0.0000E+00  0.7071E-01  0.7071E-01
    -10.783  0.0000E+00  0.0000E+00  0.7071E-01  0.7071E-01
    -10.705  0.0000E+00  0.0000E+00  0.7071E-01  0.7071E-01
    -10.626  0.0000E+00  0.0000E+00  0.7071E-01  0.7071E-01
    -10.547  0.0000E+00  0.0000E+00  0.7071E-01  0.7071E-01
    -10.469  0.0000E+00  0.0000E+00  0.7071E-01  0.7071E-01
    -10.390  0.1160E+00  0.1594E+00  0.7585E-01  0.7516E-01
    -10.311  0.2165E-01  0.2201E-01  0.7825E-01  0.7816E-01
    -10.233  0.9901E-02  0.1010E-01  0.7971E-01  0.7967E-01
    -10.154  0.6397E-02  0.6573E-02  0.8035E-01  0.8033E-01
    -10.075  0.2893E-02  0.3042E-02  0.8071E-01  0.8070E-01
     -9.997  0.0000E+00  0.0000E+00  0.8081E-01  0.8081E-01
     -9.918  0.0000E+00  0.0000E+00  0.8081E-01  0.8081E-01
     -9.839  0.0000E+00  0.0000E+00  0.8081E-01  0.8081E-01
     -9.761  0.0000E+00  0.0000E+00  0.8081E-01  0.8081E-01
     -9.682  0.0000E+00  0.0000E+00  0.8081E-01  0.8081E-01
     -9.603  0.0000E+00  0.0000E+00  0.8081E-01  0.8081E-01
     -9.525  0.0000E+00  0.0000E+00  0.8081E-01  0.8081E-01
     -9.446  0.0000E+00  0.0000E+00  0.8081E-01  0.8081E-01
     -9.367  0.0000E+00  0.0000E+00  0.8081E-01  0.8081E-01
     -9.289  0.0000E+00  0.0000E+00  0.8081E-01  0.8081E-01
     -9.210  0.0000E+00  0.0000E+00  0.8081E-01  0.8081E-01
     -9.131  0.0000E+00  0.0000E+00  0.8081E-01  0.8081E-01
     -9.053  0.0000E+00  0.0000E+00  0.8081E-01  0.8081E-01
     -8.974  0.0000E+00  0.0000E+00  0.8081E-01  0.8081E-01
     -8.895  0.0000E+00  0.0000E+00  0.8081E-01  0.8081E-01
     -8.817  0.2598E-01  0.2663E-01  0.8388E-01  0.8368E-01
     -8.738  0.1965E-01  0.2030E-01  0.8567E-01  0.8553E-01
     -8.659  0.2061E-01  0.2046E-01  0.8722E-01  0.8708E-01
     -8.581  0.4039E-01  0.2242E-01  0.8898E-01  0.8876E-01
     -8.502  0.1304E-01  0.1249E-01  0.9273E-01  0.9264E-01
     -8.423  0.1910E-01  0.1853E-01  0.9400E-01  0.9386E-01
     -8.345  0.3413E-01  0.2604E-01  0.9584E-01  0.9561E-01
     -8.266  0.3509E-01  0.3513E-01  0.9851E-01  0.9828E-01
     -8.187  0.3490E-01  0.3484E-01  0.1013E+00  0.1010E+00
     -8.109  0.3475E-01  0.3462E-01  0.1040E+00  0.1038E+00
     -8.030  0.2059E-01  0.2033E-01  0.1068E+00  0.1066E+00
     -7.951  0.5096E-01  0.5275E-01  0.1118E+00  0.1114E+00
     -7.873  0.1054E-01  0.1037E-01  0.1145E+00  0.1144E+00
     -7.794  0.1178E-01  0.1160E-01  0.1153E+00  0.1152E+00
     -7.715  0.1302E-01  0.1283E-01  0.1163E+00  0.1162E+00
     -7.637  0.1438E-01  0.1404E-01  0.1174E+00  0.1172E+00
     -7.558  0.1553E-01  0.1517E-01  0.1186E+00  0.1184E+00
     -7.479  0.3100E-01  0.7565E-01  0.1218E+00  0.1208E+00
     -7.401  0.2868E-01  0.2864E-01  0.1242E+00  0.1238E+00
     -7.322  0.2636E-01  0.2637E-01  0.1264E+00  0.1260E+00
     -7.243  0.2564E-01  0.2455E-01  0.1284E+00  0.1280E+00
     -7.165  0.2464E+00  0.2346E-01  0.1317E+00  0.1299E+00
     -7.086  0.1253E+00  0.1129E+00  0.1406E+00  0.1383E+00
     -7.007  0.2374E-01  0.2122E-01  0.1446E+00  0.1441E+00
     -6.929  0.9361E-01  0.8292E-01  0.1489E+00  0.1471E+00
     -6.850  0.5315E-01  0.5466E-01  0.1555E+00  0.1538E+00
     -6.771  0.5072E-01  0.4203E-01  0.1592E+00  0.1576E+00
     -6.693  0.4078E-01  0.5413E-01  0.1634E+00  0.1616E+00
     -6.614  0.6672E-01  0.1789E+00  0.1695E+00  0.1673E+00
     -6.535  0.6676E-01  0.6787E-01  0.1746E+00  0.1730E+00
     -6.457  0.1127E-01  0.3581E-01  0.1790E+00  0.1778E+00
     -6.378  0.9912E-02  0.1041E-01  0.1798E+00  0.1795E+00
     -6.299  0.8553E-02  0.9119E-02  0.1805E+00  0.1803E+00
     -6.221  0.3653E-01  0.2998E-01  0.1821E+00  0.1814E+00
     -6.142  0.3407E-01  0.3568E-01  0.1859E+00  0.1853E+00
     -6.063  0.4074E-01  0.5983E-01  0.1906E+00  0.1897E+00
     -5.985  0.4780E-01  0.4651E-01  0.1941E+00  0.1934E+00
     -5.906  0.1127E+00  0.8004E-01  0.1989E+00  0.1975E+00
     -5.827  0.2203E-01  0.3067E-01  0.2042E+00  0.2038E+00
     -5.749  0.1969E-01  0.1982E-01  0.2058E+00  0.2055E+00
     -5.670  0.1736E-01  0.1756E-01  0.2073E+00  0.2070E+00
     -5.591  0.1503E-01  0.1530E-01  0.2085E+00  0.2083E+00
     -5.513  0.1483E-01  0.1304E-01  0.2096E+00  0.2094E+00
     -5.434  0.1108E-01  0.1188E-01  0.2107E+00  0.2105E+00
     -5.355  0.1510E-01  0.1238E+00  0.2207E+00  0.2178E+00
     -5.277  0.9153E-02  0.1005E-01  0.2216E+00  0.2215E+00
     -5.198  0.3551E-02  0.4238E-02  0.2221E+00  0.2221E+00
     -5.119  0.4971E-01  0.5173E-01  0.2261E+00  0.2251E+00
     -5.041  0.1205E+00  0.4277E-01  0.2310E+00  0.2288E+00
     -4.962  0.7282E-01  0.3244E-01  0.2408E+00  0.2388E+00
     -4.883  0.1039E+00  0.9717E-01  0.2510E+00  0.2454E+00
     -4.805  0.5031E-01  0.3566E-01  0.2535E+00  0.2527E+00
     -4.726  0.8583E-01  0.1025E+00  0.2627E+00  0.2606E+00
     -4.647  0.1404E+00  0.8472E-01  0.2718E+00  0.2674E+00
     -4.569  0.4500E-01  0.6600E-01  0.2787E+00  0.2776E+00
     -4.490  0.1865E+00  0.3315E-01  0.2825E+00  0.2819E+00
     -4.411  0.3943E-02  0.4166E-02  0.2921E+00  0.2920E+00
     -4.333  0.2565E-01  0.5892E-01  0.2980E+00  0.2972E+00
     -4.254  0.2030E-01  0.2184E-01  0.2998E+00  0.2994E+00
     -4.175  0.1613E-01  0.1737E-01  0.3012E+00  0.3009E+00
     -4.097  0.1125E-01  0.1288E-01  0.3023E+00  0.3021E+00
     -4.018  0.4272E-02  0.5566E-02  0.3029E+00  0.3029E+00
     -3.939  0.0000E+00  0.0000E+00  0.3030E+00  0.3030E+00
     -3.861  0.0000E+00  0.0000E+00  0.3030E+00  0.3030E+00
     -3.782  0.2704E-01  0.3156E-01  0.3093E+00  0.3088E+00
     -3.703  0.2119E-01  0.2269E-01  0.3112E+00  0.3108E+00
     -3.625  0.9234E-02  0.1046E-01  0.3123E+00  0.3122E+00
     -3.546  0.5027E-02  0.5783E-02  0.3129E+00  0.3129E+00
     -3.467  0.8199E-03  0.1105E-02  0.3131E+00  0.3131E+00
     -3.389  0.0000E+00  0.0000E+00  0.3131E+00  0.3131E+00
     -3.310  0.0000E+00  0.0000E+00  0.3131E+00  0.3131E+00
     -3.231  0.1165E-01  0.2486E-02  0.3134E+00  0.3131E+00
     -3.153  0.2989E-01  0.2113E-01  0.3151E+00  0.3141E+00
     -3.074  0.6111E-01  0.3978E-01  0.3186E+00  0.3165E+00
     -2.995  0.1107E-01  0.2735E-01  0.3214E+00  0.3205E+00
     -2.917  0.1328E-01  0.8535E-02  0.3221E+00  0.3218E+00
     -2.838  0.4248E-01  0.9559E-02  0.3245E+00  0.3226E+00
     -2.759  0.8399E-01  0.5770E-01  0.3288E+00  0.3263E+00
     -2.681  0.4172E-01  0.0000E+00  0.3359E+00  0.3333E+00
     -2.602  0.3224E-01  0.3785E-01  0.3388E+00  0.3376E+00
     -2.523  0.4310E-01  0.2774E-01  0.3411E+00  0.3402E+00
     -2.445  0.3562E-01  0.2589E-01  0.3437E+00  0.3428E+00
     -2.366  0.5771E-01  0.4547E-01  0.3474E+00  0.3456E+00
     -2.287  0.1181E-01  0.1433E+00  0.3529E+00  0.3515E+00
     -2.209  0.3675E-02  0.7445E-02  0.3535E+00  0.3533E+00
     -2.130  0.0000E+00  0.0000E+00  0.3535E+00  0.3535E+00
     -2.051  0.0000E+00  0.0000E+00  0.3535E+00  0.3535E+00
     -1.973  0.0000E+00  0.0000E+00  0.3535E+00  0.3535E+00
     -1.894  0.0000E+00  0.0000E+00  0.3535E+00  0.3535E+00
     -1.815  0.0000E+00  0.0000E+00  0.3535E+00  0.3535E+00
     -1.737  0.0000E+00  0.0000E+00  0.3535E+00  0.3535E+00
     -1.658  0.6781E-02  0.6535E-02  0.3543E+00  0.3543E+00
     -1.579  0.9194E-02  0.8914E-02  0.3549E+00  0.3549E+00
     -1.501  0.1183E-01  0.1147E-01  0.3558E+00  0.3557E+00
     -1.422  0.1591E-01  0.1547E-01  0.3569E+00  0.3567E+00
     -1.343  0.1999E-01  0.1949E-01  0.3583E+00  0.3581E+00
     -1.265  0.2080E-01  0.2012E-01  0.3597E+00  0.3595E+00
     -1.186  0.2586E-01  0.2613E-01  0.3616E+00  0.3614E+00
     -1.107  0.2675E-01  0.2705E-01  0.3637E+00  0.3635E+00
     -1.029  0.4059E-02  0.3928E-02  0.3646E+00  0.3646E+00
     -0.950  0.4038E-01  0.3980E-01  0.3656E+00  0.3652E+00
     -0.871  0.0000E+00  0.1110E+00  0.3737E+00  0.3731E+00
     -0.793  0.0000E+00  0.0000E+00  0.3737E+00  0.3737E+00
     -0.714  0.0000E+00  0.0000E+00  0.3737E+00  0.3737E+00
     -0.635  0.0000E+00  0.0000E+00  0.3737E+00  0.3737E+00
     -0.557  0.0000E+00  0.0000E+00  0.3737E+00  0.3737E+00
     -0.478  0.0000E+00  0.0000E+00  0.3737E+00  0.3737E+00
     -0.399  0.0000E+00  0.0000E+00  0.3737E+00  0.3737E+00
     -0.321  0.0000E+00  0.0000E+00  0.3737E+00  0.3737E+00
     -0.242  0.0000E+00  0.0000E+00  0.3737E+00  0.3737E+00
     -0.164  0.0000E+00  0.0000E+00  0.3737E+00  0.3737E+00
     -0.085  0.0000E+00  0.0000E+00  0.3737E+00  0.3737E+00
     -0.006  0.0000E+00  0.0000E+00  0.3737E+00  0.3737E+00
      0.072  0.0000E+00  0.0000E+00  0.3737E+00  0.3737E+00
      0.151  0.0000E+00  0.0000E+00  0.3737E+00  0.3737E+00
      0.230  0.0000E+00  0.0000E+00  0.3737E+00  0.3737E+00
      0.308  0.0000E+00  0.0000E+00  0.3737E+00  0.3737E+00
      0.387  0.0000E+00  0.0000E+00  0.3737E+00  0.3737E+00
      0.466  0.0000E+00  0.0000E+00  0.3737E+00  0.3737E+00
      0.544  0.0000E+00  0.0000E+00  0.3737E+00  0.3737E+00
      0.623  0.0000E+00  0.0000E+00  0.3737E+00  0.3737E+00
      0.702  0.1696E-01  0.1685E-01  0.3757E+00  0.3756E+00
      0.780  0.1846E-01  0.1835E-01  0.3771E+00  0.3770E+00
      0.859  0.2018E-01  0.1993E-01  0.3786E+00  0.3785E+00
      0.938  0.2356E-01  0.2330E-01  0.3803E+00  0.3802E+00
      1.016  0.2693E-01  0.2667E-01  0.3823E+00  0.3821E+00
      1.095  0.3031E-01  0.3004E-01  0.3845E+00  0.3844E+00
      1.174  0.3758E-01  0.3313E-01  0.3869E+00  0.3867E+00
      1.252  0.2504E-01  0.2546E-01  0.3892E+00  0.3890E+00
      1.331  0.6654E-01  0.6845E-01  0.3946E+00  0.3941E+00
      1.410  0.4027E-01  0.2976E+00  0.4000E+00  0.3989E+00
      1.488  0.3715E-01  0.3591E-01  0.4038E+00  0.4036E+00
      1.567  0.3566E-01  0.3520E-01  0.4067E+00  0.4064E+00
      1.646  0.9119E-01  0.6601E-01  0.4110E+00  0.4101E+00
      1.724  0.3233E-01  0.3429E-01  0.4169E+00  0.4166E+00
      1.803  0.1054E-01  0.1022E-01  0.4183E+00  0.4182E+00
      1.882  0.1221E-01  0.1183E-01  0.4192E+00  0.4191E+00
      1.960  0.1778E-01  0.1624E-01  0.4203E+00  0.4201E+00
      2.039  0.2824E-01  0.2671E-01  0.4221E+00  0.4218E+00
      2.118  0.4602E-01  0.1449E+00  0.4283E+00  0.4269E+00
      2.196  0.1230E-01  0.1261E-01  0.4299E+00  0.4298E+00
      2.275  0.5036E-01  0.4307E-01  0.4314E+00  0.4309E+00
      2.354  0.3403E-01  0.3427E-01  0.4354E+00  0.4348E+00
      2.432  0.2480E-01  0.2663E-01  0.4377E+00  0.4372E+00
      2.511  0.5259E-01  0.2841E-01  0.4399E+00  0.4393E+00
      2.590  0.5134E-01  0.5217E-01  0.4440E+00  0.4434E+00
      2.668  0.6312E-01  0.6019E-01  0.4483E+00  0.4476E+00
      2.747  0.2743E-01  0.3890E-01  0.4539E+00  0.4532E+00
      2.826  0.4337E-01  0.3779E-01  0.4563E+00  0.4559E+00
      2.904  0.4348E-01  0.5414E-01  0.4611E+00  0.4600E+00
      2.983  0.5531E-02  0.4716E-01  0.4642E+00  0.4641E+00
      3.062  0.5514E-01  0.5732E-01  0.4668E+00  0.4664E+00
      3.140  0.2925E-01  0.2970E-01  0.4700E+00  0.4697E+00
      3.219  0.6076E-01  0.5928E-01  0.4738E+00  0.4733E+00
      3.298  0.3046E-01  0.9250E-01  0.4794E+00  0.4782E+00
      3.376  0.1652E-01  0.1841E-01  0.4811E+00  0.4810E+00
      3.455  0.1411E-01  0.1554E-01  0.4823E+00  0.4824E+00
      3.534  0.1171E-01  0.1266E-01  0.4834E+00  0.4835E+00
      3.612  0.9302E-02  0.9790E-02  0.4842E+00  0.4844E+00
      3.691  0.0000E+00  0.0000E+00  0.4848E+00  0.4848E+00
      3.770  0.0000E+00  0.0000E+00  0.4848E+00  0.4848E+00
      3.848  0.0000E+00  0.0000E+00  0.4848E+00  0.4848E+00
      3.927  0.0000E+00  0.0000E+00  0.4848E+00  0.4848E+00
      4.006  0.0000E+00  0.0000E+00  0.4848E+00  0.4848E+00
      4.084  0.0000E+00  0.0000E+00  0.4848E+00  0.4848E+00
      4.163  0.0000E+00  0.0000E+00  0.4848E+00  0.4848E+00
      4.242  0.0000E+00  0.0000E+00  0.4848E+00  0.4848E+00
      4.320  0.0000E+00  0.0000E+00  0.4848E+00  0.4848E+00
      4.399  0.0000E+00  0.0000E+00  0.4848E+00  0.4848E+00
      4.478  0.0000E+00  0.0000E+00  0.4848E+00  0.4848E+00
      4.556  0.0000E+00  0.0000E+00  0.4848E+00  0.4848E+00
      4.635  0.0000E+00  0.0000E+00  0.4848E+00  0.4848E+00
      4.714  0.0000E+00  0.0000E+00  0.4848E+00  0.4848E+00
      4.71368356    -18.88561805  301     -2.85099182      1.00000000
    -18.886  0.0000E+00  0.0000E+00  0.0000E+00  0.0000E+00  0.0000E+00  0.0000E+00  0.0000E+00  0.0000E+00  0.0000E+00  0.0000E+00  0.0000E+00  0.0000E+00  0.0000E+00  0.0000E+00  0.0000E+00  0.0000E+00  0.0000E+00  0.0000E+00
    -18.807  0.0000E+00  0.0000E+00  0.0000E+00  0.0000E+00  0.0000E+00  0.0000E+00  0.0000E+00  0.0000E+00  0.0000E+00  0.0000E+00  0.0000E+00  0.0000E+00  0.0000E+00  0.0000E+00  0.0000E+00  0.0000E+00  0.0000E+00  0.0000E+00
    -18.728  0.0000E+00  0.0000E+00  0.0000E+00  0.0000E+00  0.0000E+00  0.0000E+00  0.0000E+00  0.0000E+00  0.0000E+00  0.0000E+00  0.0000E+00  0.0000E+00  0.0000E+00  0.0000E+00  0.0000E+00  0.0000E+00  0.0000E+00  0.0000E+00
    -18.650  0.0000E+00  0.0000E+00  0.0000E+00  0.0000E+00  0.0000E+00  0.0000E+00  0.0000E+00  0.0000E+00  0.0000E+00  0.0000E+00  0.0000E+00  0.0000E+00  0.0000E+00  0.0000E+00  0.0000E+00  0.0000E+00  0.0000E+00  0.0000E+00
    -18.571  0.0000E+00  0.0000E+00  0.0000E+00  0.0000E+00  0.0000E+00  0.0000E+00  0.0000E+00  0.0000E+00  0.0000E+00  0.0000E+00  0.0000E+00  0.0000E+00  0.0000E+00  0.0000E+00  0.0000E+00  0.0000E+00  0.0000E+00  0.0000E+00
    -18.492  0.0000E+00  0.0000E+00  0.0000E+00  0.0000E+00  0.0000E+00  0.0000E+00  0.0000E+00  0.0000E+00  0.0000E+00  0.0000E+00  0.0000E+00  0.0000E+00  0.0000E+00  0.0000E+00  0.0000E+00  0.0000E+00  0.0000E+00  0.0000E+00
    -18.414  0.0000E+00  0.0000E+00  0.0000E+00  0.0000E+00  0.0000E+00  0.0000E+00  0.0000E+00  0.0000E+00  0.0000E+00  0.0000E+00  0.0000E+00  0.0000E+00  0.0000E+00  0.0000E+00  0.0000E+00  0.0000E+00  0.0000E+00  0.0000E+00
    -18.335  0.0000E+00  0.0000E+00  0.0000E+00  0.0000E+00  0.0000E+00  0.0000E+00  0.0000E+00  0.0000E+00  0.0000E+00  0.0000E+00  0.0000E+00  0.0000E+00  0.0000E+00  0.0000E+00  0.0000E+00  0.0000E+00  0.0000E+00  0.0000E+00
    -18.256  0.0000E+00  0.0000E+00  0.0000E+00  0.0000E+00  0.0000E+00  0.0000E+00  0.0000E+00  0.0000E+00  0.0000E+00  0.0000E+00  0.0000E+00  0.0000E+00  0.0000E+00  0.0000E+00  0.0000E+00  0.0000E+00  0.0000E+00  0.0000E+00
    -18.178  0.0000E+00  0.0000E+00  0.0000E+00  0.0000E+00  0.0000E+00  0.0000E+00  0.0000E+00  0.0000E+00  0.0000E+00  0.0000E+00  0.0000E+00  0.0000E+00  0.0000E+00  0.0000E+00  0.0000E+00  0.0000E+00  0.0000E+00  0.0000E+00
    -18.099  0.0000E+00  0.0000E+00  0.0000E+00  0.0000E+00  0.0000E+00  0.0000E+00  0.0000E+00  0.0000E+00  0.0000E+00  0.0000E+00  0.0000E+00  0.0000E+00  0.0000E+00  0.0000E+00  0.0000E+00  0.0000E+00  0.0000E+00  0.0000E+00
    -18.020  0.0000E+00  0.0000E+00  0.0000E+00  0.0000E+00  0.0000E+00  0.0000E+00  0.0000E+00  0.0000E+00  0.0000E+00  0.0000E+00  0.0000E+00  0.0000E+00  0.0000E+00  0.0000E+00  0.0000E+00  0.0000E+00  0.0000E+00  0.0000E+00
    -17.942  0.0000E+00  0.0000E+00  0.0000E+00  0.0000E+00  0.0000E+00  0.0000E+00  0.0000E+00  0.0000E+00  0.0000E+00  0.0000E+00  0.0000E+00  0.0000E+00  0.0000E+00  0.0000E+00  0.0000E+00  0.0000E+00  0.0000E+00  0.0000E+00
    -17.863  0.0000E+00  0.0000E+00  0.0000E+00  0.0000E+00  0.0000E+00  0.0000E+00  0.0000E+00  0.0000E+00  0.0000E+00  0.0000E+00  0.0000E+00  0.0000E+00  0.0000E+00  0.0000E+00  0.0000E+00  0.0000E+00  0.0000E+00  0.0000E+00
    -17.784  0.6103E-02  0.4925E-02  0.3230E-04  0.2565E-04  0.9453E-09  0.7626E-09  0.9694E-04  0.7699E-04  0.1066E-05  0.8394E-06  0.1122E-05  0.8899E-06  0.2652E-06  0.2040E-06  0.3737E-06  0.2965E-06  0.3587E-06  0.2825E-06
    -17.706  0.2268E-01  0.2152E-01  0.1485E-03  0.1390E-03  0.3584E-08  0.3400E-08  0.4456E-03  0.4172E-03  0.4898E-05  0.4549E-05  0.5155E-05  0.4823E-05  0.1122E-05  0.1018E-05  0.1717E-05  0.1607E-05  0.1649E-05  0.1531E-05
    -17.627  0.1680E-01  0.1673E-01  0.1476E-03  0.1442E-03  0.1525E-06  0.1494E-06  0.9996E-03  0.9777E-03  0.8415E-05  0.8009E-05  0.1104E-04  0.1056E-04  0.1967E-05  0.1876E-05  0.1184E-04  0.1144E-04  0.1150E-04  0.1115E-04
    -17.548  0.1770E-01  0.1763E-01  0.2026E-03  0.1986E-03  0.1951E-06  0.1924E-06  0.1322E-02  0.1300E-02  0.1334E-04  0.1285E-04  0.1839E-04  0.1784E-04  0.2627E-05  0.2525E-05  0.1660E-04  0.1618E-04  0.1560E-04  0.1524E-04
    -17.470  0.1856E-01  0.1849E-01  0.2673E-03  0.2626E-03  0.2321E-06  0.2299E-06  0.1652E-02  0.1629E-02  0.1883E-04  0.1825E-04  0.2652E-04  0.2590E-04  0.3317E-05  0.3204E-05  0.2132E-04  0.2088E-04  0.1956E-04  0.1919E-04
    -17.391  0.1938E-01  0.1931E-01  0.3416E-03  0.3363E-03  0.2634E-06  0.2616E-06  0.1990E-02  0.1967E-02  0.2488E-04  0.2421E-04  0.3544E-04  0.3475E-04  0.4036E-05  0.3911E-05  0.2599E-04  0.2553E-04  0.2338E-04  0.2300E-04
    -17.312  0.1889E-01  0.1904E-01  0.5379E-03  0.5131E-03  0.5088E-06  0.4693E-06  0.2572E-02  0.2510E-02  0.3045E-04  0.2992E-04  0.5932E-04  0.5612E-04  0.4799E-05  0.4664E-05  0.4347E-04  0.4076E-04  0.3009E-04  0.2919E-04
    -17.234  0.1652E-01  0.1670E-01  0.9146E-03  0.8880E-03  0.1094E-05  0.1048E-05  0.3479E-02  0.3418E-02  0.3387E-04  0.3343E-04  0.1052E-03  0.1016E-03  0.5491E-05  0.5364E-05  0.8060E-04  0.7751E-04  0.4071E-04  0.3979E-04
    -17.155  0.2170E-01  0.2211E-01  0.1790E-02  0.1809E-02  0.1869E-05  0.1866E-05  0.5655E-02  0.5723E-02  0.6001E-04  0.6085E-04  0.1985E-03  0.1997E-03  0.8611E-05  0.8628E-05  0.1400E-03  0.1400E-03  0.6038E-04  0.6068E-04
    -17.076  0.1626E-01  0.1663E-01  0.1550E-02  0.1571E-02  0.1803E-05  0.1807E-05  0.4759E-02  0.4830E-02  0.4380E-04  0.4463E-04  0.1742E-03  0.1757E-03  0.6694E-05  0.6730E-05  0.1286E-03  0.1290E-03  0.5188E-04  0.5229E-04
    -16.998  0.1125E-01  0.1158E-01  0.1266E-02  0.1289E-02  0.1631E-05  0.1642E-05  0.3786E-02  0.3859E-02  0.2902E-04  0.2983E-04  0.1444E-03  0.1463E-03  0.4852E-05  0.4908E-05  0.1115E-03  0.1124E-03  0.4227E-04  0.4279E-04
    -16.919  0.6675E-02  0.6969E-02  0.9401E-03  0.9650E-03  0.1354E-05  0.1373E-05  0.2736E-02  0.2812E-02  0.1567E-04  0.1645E-04  0.1091E-03  0.1114E-03  0.3087E-05  0.3160E-05  0.8869E-04  0.9002E-04  0.3154E-04  0.3217E-04
    -16.840  0.0000E+00  0.0000E+00  0.0000E+00  0.0000E+00  0.0000E+00  0.0000E+00  0.0000E+00  0.0000E+00  0.0000E+00  0.0000E+00  0.0000E+00  0.0000E+00  0.0000E+00  0.0000E+00  0.0000E+00  0.0000E+00  0.0000E+00  0.0000E+00
    -16.762  0.0000E+00  0.0000E+00  0.0000E+00  0.0000E+00  0.0000E+00  0.0000E+00  0.0000E+00  0.0000E+00  0.0000E+00  0.0000E+00  0.0000E+00  0.0000E+00  0.0000E+00  0.0000E+00  0.0000E+00  0.0000E+00  0.0000E+00  0.0000E+00
    -16.683  0.6914E-09  0.3227E-09  0.7752E-05  0.3572E-05  0.2184E-02  0.1036E-02  0.2529E-05  0.1165E-05  0.9894E-05  0.4531E-05  0.2844E-04  0.1302E-04  0.1187E-08  0.5627E-09  0.8551E-04  0.3915E-04  0.2988E-04  0.1369E-04
    -16.604  0.2802E-01  0.2673E-01  0.2188E-02  0.2066E-02  0.1752E-01  0.1628E-01  0.4231E-02  0.3944E-02  0.7527E-03  0.7031E-03  0.6362E-03  0.5801E-03  0.3498E-04  0.3299E-04  0.1923E-02  0.1781E-02  0.9707E-03  0.9073E-03
    -16.526  0.4999E-01  0.4785E-01  0.4629E-02  0.4385E-02  0.1904E-01  0.1836E-01  0.1010E-01  0.9458E-02  0.1485E-02  0.1402E-02  0.1218E-02  0.1143E-02  0.6715E-04  0.6350E-04  0.4594E-02  0.4336E-02  0.2215E-02  0.2096E-02
    -16.447  0.1947E-01  0.2150E-01  0.2162E-02  0.2364E-02  0.1351E-01  0.1457E-01  0.4157E-02  0.4583E-02  0.6083E-03  0.6688E-03  0.5342E-03  0.5862E-03  0.2644E-04  0.2901E-04  0.3689E-02  0.3914E-02  0.1615E-02  0.1720E-02
    -16.368  0.0000E+00  0.1170E-02  0.0000E+00  0.1459E-03  0.0000E+00  0.1047E-02  0.0000E+00  0.2486E-03  0.0000E+00  0.3613E-04  0.0000E+00  0.3142E-04  0.0000E+00  0.1570E-05  0.0000E+00  0.3127E-03  0.0000E+00  0.1335E-03
    -16.290  0.0000E+00  0.0000E+00  0.0000E+00  0.0000E+00  0.0000E+00  0.0000E+00  0.0000E+00  0.0000E+00  0.0000E+00  0.0000E+00  0.0000E+00  0.0000E+00  0.0000E+00  0.0000E+00  0.0000E+00  0.0000E+00  0.0000E+00  0.0000E+00
    -16.211  0.1574E-01  0.1526E-01  0.1298E-01  0.1249E-01  0.6933E-02  0.7497E-02  0.4181E-02  0.4048E-02  0.1928E-02  0.1867E-02  0.3369E-02  0.3253E-02  0.3867E-04  0.3717E-04  0.4132E-02  0.4431E-02  0.2450E-02  0.2570E-02
    -16.132  0.9442E-02  0.1178E-01  0.8012E-02  0.9842E-02  0.3013E-02  0.3360E-02  0.3621E-02  0.4014E-02  0.1401E-02  0.1594E-02  0.2385E-02  0.2704E-02  0.2462E-04  0.3003E-04  0.1769E-02  0.2000E-02  0.1099E-02  0.1302E-02
    -16.054  0.1290E-01  0.1299E-01  0.8189E-02  0.7955E-02  0.5345E-02  0.5308E-02  0.9765E-02  0.9686E-02  0.2928E-02  0.2925E-02  0.4022E-02  0.4033E-02  0.3613E-04  0.3617E-04  0.4891E-02  0.4914E-02  0.2271E-02  0.2249E-02
    -15.975  0.1187E-01  0.1198E-01  0.1094E-01  0.1070E-01  0.5656E-02  0.5619E-02  0.1070E-01  0.1062E-01  0.2783E-02  0.2781E-02  0.3535E-02  0.3550E-02  0.3377E-04  0.3387E-04  0.4227E-02  0.4248E-02  0.2373E-02  0.2346E-02
    -15.896  0.1065E-01  0.1077E-01  0.1376E-01  0.1352E-01  0.5945E-02  0.5909E-02  0.1160E-01  0.1152E-01  0.2629E-02  0.2629E-02  0.3036E-02  0.3055E-02  0.3090E-04  0.3105E-04  0.3607E-02  0.3626E-02  0.2516E-02  0.2485E-02
    -15.818  0.7433E-02  0.7697E-02  0.1588E-01  0.1567E-01  0.1720E-01  0.1665E-01  0.1035E-01  0.1055E-01  0.3525E-02  0.3460E-02  0.7133E-02  0.6806E-02  0.2388E-04  0.2452E-04  0.7258E-02  0.6849E-02  0.3578E-02  0.3493E-02
    -15.739  0.4758E-02  0.5007E-02  0.1421E-01  0.1809E-01  0.1383E-01  0.2173E-01  0.7054E-02  0.8583E-02  0.3657E-02  0.3944E-02  0.8332E-02  0.9804E-02  0.1617E-04  0.1697E-04  0.6533E-02  0.1089E-01  0.3282E-02  0.4140E-02
    -15.660  0.1410E-01  0.1486E-01  0.1897E-01  0.2057E-01  0.2096E-01  0.2258E-01  0.1210E-01  0.1285E-01  0.1640E-01  0.1717E-01  0.3595E-01  0.3765E-01  0.7492E-04  0.7875E-04  0.2625E-01  0.2674E-01  0.1047E-01  0.1077E-01
    -15.582  0.7472E-02  0.7947E-02  0.4222E-02  0.5122E-02  0.6276E-02  0.6442E-02  0.2508E-02  0.3424E-02  0.8183E-02  0.8540E-02  0.1898E-01  0.1937E-01  0.3924E-04  0.4138E-04  0.1712E-01  0.1682E-01  0.6256E-02  0.6290E-02
    -15.503  0.2264E-02  0.2873E-02  0.2780E-02  0.2770E-02  0.4912E-02  0.4932E-02  0.2622E-02  0.2834E-02  0.5321E-02  0.5831E-02  0.1421E-01  0.1530E-01  0.1264E-04  0.1577E-04  0.1844E-01  0.1830E-01  0.6129E-02  0.6124E-02
    -15.424  0.0000E+00  0.0000E+00  0.0000E+00  0.0000E+00  0.0000E+00  0.0000E+00  0.0000E+00  0.0000E+00  0.0000E+00  0.0000E+00  0.0000E+00  0.0000E+00  0.0000E+00  0.0000E+00  0.0000E+00  0.0000E+00  0.0000E+00  0.0000E+00
    -15.346  0.0000E+00  0.0000E+00  0.0000E+00  0.0000E+00  0.0000E+00  0.0000E+00  0.0000E+00  0.0000E+00  0.0000E+00  0.0000E+00  0.0000E+00  0.0000E+00  0.0000E+00  0.0000E+00  0.0000E+00  0.0000E+00  0.0000E+00  0.0000E+00
    -15.267  0.0000E+00  0.0000E+00  0.0000E+00  0.0000E+00  0.0000E+00  0.0000E+00  0.0000E+00  0.0000E+00  0.0000E+00  0.0000E+00  0.0000E+00  0.0000E+00  0.0000E+00  0.0000E+00  0.0000E+00  0.0000E+00  0.0000E+00  0.0000E+00
    -15.188  0.0000E+00  0.0000E+00  0.0000E+00  0.0000E+00  0.0000E+00  0.0000E+00  0.0000E+00  0.0000E+00  0.0000E+00  0.0000E+00  0.0000E+00  0.0000E+00  0.0000E+00  0.0000E+00  0.0000E+00  0.0000E+00  0.0000E+00  0.0000E+00
    -15.110  0.0000E+00  0.0000E+00  0.0000E+00  0.0000E+00  0.0000E+00  0.0000E+00  0.0000E+00  0.0000E+00  0.0000E+00  0.0000E+00  0.0000E+00  0.0000E+00  0.0000E+00  0.0000E+00  0.0000E+00  0.0000E+00  0.0000E+00  0.0000E+00
    -15.031  0.0000E+00  0.0000E+00  0.0000E+00  0.0000E+00  0.0000E+00  0.0000E+00  0.0000E+00  0.0000E+00  0.0000E+00  0.0000E+00  0.0000E+00  0.0000E+00  0.0000E+00  0.0000E+00  0.0000E+00  0.0000E+00  0.0000E+00  0.0000E+00
    -14.952  0.0000E+00  0.0000E+00  0.0000E+00  0.0000E+00  0.0000E+00  0.0000E+00  0.0000E+00  0.0000E+00  0.0000E+00  0.0000E+00  0.0000E+00  0.0000E+00  0.0000E+00  0.0000E+00  0.0000E+00  0.0000E+00  0.0000E+00  0.0000E+00