       N       E                     dE             d eps       ncg     rms          rms(c)
DAV:   1     0.417452383606E+03    0.41745E+03   -0.19666E+04   960   0.948E+02
DAV:   2     0.341391634346E+02   -0.38331E+03   -0.36091E+03  1472   0.198E+02
DAV:   3    -0.400886082409E+02   -0.74228E+02   -0.70863E+02  1232   0.786E+01
DAV:   4    -0.430074817441E+02   -0.29189E+01   -0.28995E+01  1216   0.207E+01
DAV:   5    -0.430880929881E+02   -0.80611E-01   -0.80623E-01  1280   0.365E+00    0.448E+01
DAV:   6    -0.103133422467E+03   -0.60045E+02   -0.81541E+02  1328   0.190E+02    0.657E+01
DAV:   7    -0.518884755088E+02    0.51245E+02   -0.72445E+01  1120   0.509E+01    0.347E+01
DAV:   8    -0.377442533977E+02    0.14144E+02   -0.16703E+01  1280   0.360E+01    0.228E+01
DAV:   9    -0.340558713216E+02    0.36884E+01   -0.62038E+00  1312   0.326E+01    0.658E+00
DAV:  10    -0.343076655077E+02   -0.25179E+00   -0.21255E+00  1168   0.643E+00    0.732E+00
DAV:  11    -0.341675918145E+02    0.14007E+00   -0.15227E-01  1360   0.407E+00    0.502E+00
DAV:  12    -0.341063290608E+02    0.61263E-01   -0.13792E-01  1424   0.275E+00    0.460E+00
DAV:  13    -0.340449347312E+02    0.61394E-01   -0.70432E-01  1408   0.513E+00    0.889E+00
DAV:  14    -0.341383173082E+02   -0.93383E-01   -0.84987E-02  1008   0.370E+00    0.896E+00
DAV:  15    -0.341477171075E+02   -0.93998E-02   -0.89723E-03  1024   0.571E-01    0.904E+00
DAV:  16    -0.338091439110E+02    0.33857E+00   -0.24527E-01  1216   0.580E+00    0.621E+00
DAV:  17    -0.333517326955E+02    0.45741E+00   -0.27678E-01  1216   0.474E+00    0.761E+00
DAV:  18    -0.338308043077E+02   -0.47907E+00   -0.17884E-01  1040   0.598E+00    0.769E+00
DAV:  19    -0.351621283373E+02   -0.13313E+01   -0.14729E+00  1168   0.155E+01    0.153E+01
DAV:  20    -0.353780812898E+02   -0.21595E+00   -0.36862E-01  1232   0.312E+00    0.169E+01
DAV:  21    -0.344783191113E+02    0.89976E+00   -0.61104E-01  1184   0.777E+00    0.644E+00
DAV:  22    -0.344820381823E+02   -0.37191E-02   -0.67723E-01  1248   0.650E+00    0.455E+00
DAV:  23    -0.345632801197E+02   -0.81242E-01   -0.87585E-02  1264   0.333E+00    0.369E+00
DAV:  24    -0.345889773488E+02   -0.25697E-01   -0.40390E-02  1120   0.175E+00    0.275E+00
DAV:  25    -0.346317449125E+02   -0.42768E-01   -0.14390E-01  1136   0.482E+00    0.292E+00
DAV:  26    -0.346878872229E+02   -0.56142E-01   -0.56836E-02  1296   0.173E+00    0.396E+00
DAV:  27    -0.347085270865E+02   -0.20640E-01   -0.17098E-02  1216   0.103E+00    0.480E+00
DAV:  28    -0.347047036818E+02    0.38234E-02   -0.54012E-03  1136   0.493E-01    0.503E+00
DAV:  29    -0.346862360174E+02    0.18468E-01   -0.96204E-03  1200   0.141E+00    0.417E+00
DAV:  30    -0.346878106613E+02   -0.15746E-02   -0.94840E-03  1200   0.938E-01    0.374E+00
DAV:  31    -0.346966424263E+02   -0.88318E-02   -0.17401E-02  1152   0.177E+00    0.216E+00
DAV:  32    -0.347002441010E+02   -0.36017E-02   -0.12190E-02  1136   0.946E-01    0.133E+00
DAV:  33    -0.347047932218E+02   -0.45491E-02   -0.53906E-03  1296   0.752E-01    0.865E-01
DAV:  34    -0.347060112271E+02   -0.12180E-02   -0.20380E-03  1232   0.408E-01    0.631E-01
DAV:  35    -0.347089706427E+02   -0.29594E-02   -0.15017E-03  1184   0.304E-01    0.658E-01
DAV:  36    -0.347094944423E+02   -0.52380E-03   -0.94094E-04  1152   0.308E-01    0.533E-01
DAV:  37    -0.347093985842E+02    0.95858E-04   -0.81880E-04  1360   0.319E-01
   1 F= -.34709399E+02 E0= -.34709399E+02  d E =-.347094E+02  mag=     2.0451
       N       E                     dE             d eps       ncg     rms          rms(c)
DAV:   1    -0.117898306391E+03   -0.83189E+02   -0.85139E+02  1264   0.242E+02    0.986E+01
DAV:   2    -0.337051118657E+03   -0.21915E+03   -0.15366E+03  1504   0.384E+02    0.643E+01
DAV:   3    -0.822291437129E+02    0.25482E+03   -0.59745E+02  1200   0.122E+02    0.379E+01
DAV:   4    -0.445059453584E+02    0.37723E+02   -0.31229E+02  1312   0.202E+02    0.286E+01
DAV:   5    -0.408923515654E+02    0.36136E+01   -0.37854E+01  1392   0.406E+01    0.542E+00
DAV:   6    -0.408953077481E+02   -0.29562E-02   -0.23268E+00  1408   0.768E+00    0.567E+00
DAV:   7    -0.407464547223E+02    0.14885E+00   -0.70556E-01  1216   0.854E+00    0.299E+00
DAV:   8    -0.407784400869E+02   -0.31985E-01   -0.74475E-02  1392   0.179E+00    0.319E+00
DAV:   9    -0.407136054719E+02    0.64835E-01   -0.41472E-02  1216   0.209E+00    0.345E+00
DAV:  10    -0.407395453952E+02   -0.25940E-01   -0.28566E-01  1216   0.733E+00    0.171E+00
DAV:  11    -0.407704198766E+02   -0.30874E-01   -0.66092E-02  1168   0.295E+00    0.639E-01
DAV:  12    -0.407707420708E+02   -0.32219E-03   -0.24085E-02  1296   0.873E-01    0.776E-01
DAV:  13    -0.407704996693E+02    0.24240E-03   -0.28621E-03  1120   0.427E-01    0.733E-01
DAV:  14    -0.407715408351E+02   -0.10412E-02   -0.32688E-03  1200   0.693E-01    0.597E-01
DAV:  15    -0.407725448729E+02   -0.10040E-02   -0.25215E-03  1264   0.747E-01    0.240E-01
DAV:  16    -0.407705339575E+02    0.20109E-02   -0.25669E-03  1392   0.435E-01    0.115E-01
DAV:  17    -0.407724081258E+02   -0.18742E-02   -0.10654E-03  1184   0.290E-01    0.583E-02
DAV:  18    -0.407730874438E+02   -0.67932E-03   -0.16616E-04  1024   0.972E-02    0.303E-02
DAV:  19    -0.407738147011E+02   -0.72726E-03   -0.22933E-04   928   0.933E-02    0.398E-02
DAV:  20    -0.407735327643E+02    0.28194E-03   -0.32617E-04   976   0.546E-02    0.452E-02
DAV:  21    -0.407734819744E+02    0.50790E-04   -0.12093E-04   928   0.991E-02
   2 F= -.40773482E+02 E0= -.40773482E+02  d E =-.606408E+01  mag=     1.9939
       N       E                     dE             d eps       ncg     rms          rms(c)
DAV:   1    -0.420945801236E+02   -0.13210E+01   -0.15085E+01  1280   0.358E+01    0.100E+01
DAV:   2    -0.463508788161E+02   -0.42563E+01   -0.27620E+01  1120   0.705E+01    0.195E+01
DAV:   3    -0.408768560409E+02    0.54740E+01   -0.93579E+00  1104   0.611E+01    0.200E+00
DAV:   4    -0.409987604113E+02   -0.12190E+00   -0.20672E+00  1280   0.762E+00    0.311E+00
DAV:   5    -0.409215480774E+02    0.77212E-01   -0.26526E-01  1184   0.684E+00    0.520E-01
DAV:   6    -0.409226616116E+02   -0.11135E-02   -0.22705E-02  1088   0.806E-01    0.142E-01
DAV:   7    -0.409236258745E+02   -0.96426E-03   -0.19950E-03  1200   0.363E-01    0.845E-02
DAV:   8    -0.409235911456E+02    0.34729E-04   -0.74782E-04  1104   0.222E-01
   3 F= -.40923591E+02 E0= -.40923591E+02  d E =-.621419E+01  mag=     1.9679
       N       E                     dE             d eps       ncg     rms          rms(c)
DAV:   1    -0.410702011040E+02   -0.14658E+00   -0.10488E+01   960   0.128E+01    0.218E+00
DAV:   2    -0.412873830304E+02   -0.21718E+00   -0.15276E+00  1472   0.156E+01    0.418E+00
DAV:   3    -0.410902582334E+02    0.19712E+00   -0.62928E-01  1152   0.147E+01    0.100E+00
DAV:   4    -0.410845864961E+02    0.56717E-02   -0.81250E-02  1152   0.151E+00    0.594E-01
DAV:   5    -0.410814874202E+02    0.30991E-02   -0.10078E-02  1184   0.140E+00    0.837E-02
DAV:   6    -0.410818762742E+02   -0.38885E-03   -0.19243E-03  1008   0.261E-01    0.585E-02
DAV:   7    -0.410819419811E+02   -0.65707E-04   -0.14205E-04   960   0.912E-02
   4 F= -.41081942E+02 E0= -.41081942E+02  d E =-.158351E+00  mag=     1.9885
       N       E                     dE             d eps       ncg     rms          rms(c)
DAV:   1    -0.411358923943E+02   -0.54016E-01   -0.11575E+01   976   0.134E+01    0.229E+00
DAV:   2    -0.413640858857E+02   -0.22819E+00   -0.16628E+00  1488   0.165E+01    0.419E+00
DAV:   3    -0.411592060209E+02    0.20488E+00   -0.67041E-01  1168   0.154E+01    0.105E+00
DAV:   4    -0.411531197768E+02    0.60862E-02   -0.88888E-02  1152   0.158E+00    0.629E-01
DAV:   5    -0.411493138779E+02    0.38059E-02   -0.11628E-02  1120   0.156E+00    0.851E-02
DAV:   6    -0.411494508910E+02   -0.13701E-03   -0.23383E-03  1040   0.306E-01    0.599E-02
DAV:   7    -0.411495379824E+02   -0.87091E-04   -0.17800E-04   800   0.950E-02
   5 F= -.41149538E+02 E0= -.41149538E+02  d E =-.225947E+00  mag=     1.9959
       N       E                     dE             d eps       ncg     rms          rms(c)
DAV:   1    -0.411504360383E+02   -0.98515E-03   -0.30306E-01  1072   0.222E+00    0.370E-01
DAV:   2    -0.411567473665E+02   -0.63113E-02   -0.43764E-02  1344   0.276E+00    0.696E-01
DAV:   3    -0.411512334449E+02    0.55139E-02   -0.18299E-02  1008   0.247E+00    0.173E-01
DAV:   4    -0.411510780236E+02    0.15542E-03   -0.21908E-03  1136   0.270E-01    0.102E-01
DAV:   5    -0.411510506947E+02    0.27329E-04   -0.31662E-04   832   0.256E-01
   6 F= -.41151051E+02 E0= -.41151051E+02  d E =-.227460E+00  mag=     1.9979
       N       E                     dE             d eps       ncg     rms          rms(c)
DAV:   1    -0.413017224777E+02   -0.15064E+00   -0.50624E+00  1152   0.112E+01    0.264E+00
DAV:   2    -0.415145310659E+02   -0.21281E+00   -0.13674E+00  1200   0.203E+01    0.510E+00
DAV:   3    -0.412204225979E+02    0.29411E+00   -0.72951E-01  1184   0.150E+01    0.109E+00
DAV:   4    -0.411944796925E+02    0.25943E-01   -0.10275E-01  1328   0.236E+00    0.210E-01
DAV:   5    -0.411933496276E+02    0.11301E-02   -0.75245E-03  1392   0.602E-01    0.105E-01
DAV:   6    -0.411928870889E+02    0.46254E-03   -0.93327E-04  1056   0.204E-01    0.562E-02
DAV:   7    -0.411924938392E+02    0.39325E-03   -0.28682E-04   928   0.104E-01    0.323E-02
DAV:   8    -0.411920591946E+02    0.43464E-03   -0.91183E-05   768   0.533E-02    0.195E-02
DAV:   9    -0.411920504367E+02    0.87579E-05   -0.17529E-04   800   0.476E-02
   7 F= -.41192050E+02 E0= -.41192050E+02  d E =-.409997E-01  mag=     1.9998
       N       E                     dE             d eps       ncg     rms          rms(c)
DAV:   1    -0.415196849040E+02   -0.32763E+00   -0.14338E+01  1184   0.187E+01    0.433E+00
DAV:   2    -0.420807452374E+02   -0.56106E+00   -0.36918E+00  1216   0.330E+01    0.831E+00
DAV:   3    -0.412958799768E+02    0.78487E+00   -0.20140E+00  1024   0.229E+01    0.189E+00
DAV:   4    -0.412207045776E+02    0.75175E-01   -0.30177E-01  1280   0.440E+00    0.298E-01
DAV:   5    -0.412172188217E+02    0.34858E-02   -0.22572E-02  1200   0.828E-01    0.174E-01
DAV:   6    -0.412147340360E+02    0.24848E-02   -0.22843E-03   960   0.346E-01    0.972E-02
DAV:   7    -0.412117947612E+02    0.29393E-02   -0.99810E-04  1056   0.188E-01    0.626E-02
DAV:   8    -0.412089400625E+02    0.28547E-02   -0.28996E-04   960   0.757E-02    0.431E-02
DAV:   9    -0.412064180307E+02    0.25220E-02   -0.94165E-04  1072   0.137E-01    0.376E-02
DAV:  10    -0.412061926295E+02    0.22540E-03   -0.13116E-03   992   0.138E-01    0.309E-02
DAV:  11    -0.412021626142E+02    0.40300E-02   -0.22900E-03  1072   0.127E-01    0.301E-02
DAV:  12    -0.412009755953E+02    0.11870E-02   -0.21050E-04   944   0.787E-02    0.218E-02
DAV:  13    -0.412015577550E+02   -0.58216E-03   -0.36837E-04  1024   0.880E-02    0.219E-02
DAV:  14    -0.412031309452E+02   -0.15732E-02   -0.66978E-04  1104   0.102E-01    0.169E-02
DAV:  15    -0.412045714114E+02   -0.14405E-02   -0.85571E-04  1024   0.864E-02    0.132E-02
DAV:  16    -0.412050718419E+02   -0.50043E-03   -0.22467E-04  1072   0.500E-02    0.106E-02
DAV:  17    -0.412054071887E+02   -0.33535E-03   -0.94696E-05   880   0.367E-02    0.842E-03
DAV:  18    -0.412057565847E+02   -0.34940E-03   -0.11257E-04   864   0.289E-02    0.389E-03
DAV:  19    -0.412059190483E+02   -0.16246E-03   -0.29482E-05   768   0.179E-02    0.261E-03
DAV:  20    -0.412060721698E+02   -0.15312E-03   -0.30684E-05   800   0.182E-02    0.140E-03
DAV:  21    -0.412061271473E+02   -0.54978E-04   -0.89917E-06   688   0.998E-03
   8 F= -.41206127E+02 E0= -.41206127E+02  d E =-.550765E-01  mag=     2.0000
       N       E                     dE             d eps       ncg     rms          rms(c)
DAV:   1    -0.412254361707E+02   -0.19364E-01   -0.82181E-01  1104   0.430E+00    0.103E+00
DAV:   2    -0.412537151550E+02   -0.28279E-01   -0.20545E-01   992   0.739E+00    0.194E+00
DAV:   3    -0.412110616675E+02    0.42653E-01   -0.10713E-01  1120   0.637E+00    0.422E-01
DAV:   4    -0.412063247388E+02    0.47369E-02   -0.16070E-02  1120   0.764E-01    0.132E-01
DAV:   5    -0.412060538397E+02    0.27090E-03   -0.15541E-03  1136   0.385E-01    0.439E-02
DAV:   6    -0.412062520414E+02   -0.19820E-03   -0.42149E-04  1120   0.120E-01    0.235E-02
DAV:   7    -0.412063970952E+02   -0.14505E-03   -0.11002E-04   864   0.567E-02    0.137E-02
DAV:   8    -0.412067801991E+02   -0.38310E-03   -0.11783E-04   928   0.484E-02    0.910E-03
DAV:   9    -0.412072875150E+02   -0.50732E-03   -0.22982E-04   976   0.518E-02    0.758E-03
DAV:  10    -0.412075865892E+02   -0.29907E-03   -0.20391E-04   944   0.508E-02    0.657E-03
DAV:  11    -0.412077717572E+02   -0.18517E-03   -0.16137E-04   880   0.408E-02    0.531E-03
DAV:  12    -0.412078587828E+02   -0.87026E-04   -0.89750E-05   864   0.253E-02
   9 F= -.41207859E+02 E0= -.41207859E+02  d E =-.568081E-01  mag=     2.0000
       N       E                     dE             d eps       ncg     rms          rms(c)
DAV:   1    -0.413821594101E+02   -0.17439E+00   -0.50258E+00  1280   0.154E+01    0.382E+00
DAV:   2    -0.420170178311E+02   -0.63486E+00   -0.33622E+00  1216   0.329E+01    0.809E+00
DAV:   3    -0.412522085247E+02    0.76481E+00   -0.18747E+00  1056   0.224E+01    0.142E+00
DAV:   4    -0.412341375439E+02    0.18071E-01   -0.19338E-01  1168   0.326E+00    0.369E-01
DAV:   5    -0.412314488531E+02    0.26887E-02   -0.94737E-03  1328   0.765E-01    0.131E-01
DAV:   6    -0.412313729819E+02    0.75871E-04   -0.31374E-03  1184   0.260E-01    0.517E-02
DAV:   7    -0.412313070713E+02    0.65911E-04   -0.53988E-04  1056   0.124E-01
  10 F= -.41231307E+02 E0= -.41231307E+02  d E =-.234483E-01  mag=     2.0000
       N       E                     dE             d eps       ncg     rms          rms(c)
DAV:   1    -0.423521109314E+02   -0.11207E+01   -0.37575E+01  1232   0.427E+01    0.105E+01
DAV:   2    -0.477935360073E+02   -0.54414E+01   -0.25916E+01  1216   0.909E+01    0.266E+01
DAV:   3    -0.416621924854E+02    0.61313E+01   -0.99074E+00  1152   0.495E+01    0.624E+00
DAV:   4    -0.412064412062E+02    0.45575E+00   -0.16974E+00  1264   0.145E+01    0.149E+00
DAV:   5    -0.412031745080E+02    0.32667E-02   -0.14589E-01   976   0.192E+00    0.129E+00
DAV:   6    -0.411906959957E+02    0.12479E-01   -0.42765E-02  1520   0.218E+00    0.646E-01
DAV:   7    -0.411972617389E+02   -0.65657E-02   -0.14830E-02   976   0.642E-01    0.560E-01
DAV:   8    -0.412181727984E+02   -0.20911E-01   -0.70781E-02  1136   0.125E+00    0.398E-01
DAV:   9    -0.412244238642E+02   -0.62511E-02   -0.12385E-01   992   0.179E+00    0.247E-01
DAV:  10    -0.412352037277E+02   -0.10780E-01   -0.43831E-03   960   0.546E-01    0.167E-01
DAV:  11    -0.412397965719E+02   -0.45928E-02   -0.27704E-03   960   0.271E-01    0.604E-02
DAV:  12    -0.412413540386E+02   -0.15575E-02   -0.87260E-04  1056   0.190E-01    0.326E-02
DAV:  13    -0.412420130322E+02   -0.65899E-03   -0.30339E-04   944   0.748E-02    0.194E-02
DAV:  14    -0.412419101495E+02    0.10288E-03   -0.27022E-04   944   0.727E-02    0.148E-02
DAV:  15    -0.412417624745E+02    0.14767E-03   -0.14505E-04   912   0.554E-02    0.193E-02
DAV:  16    -0.412417049790E+02    0.57496E-04   -0.19128E-04   928   0.445E-02
  11 F= -.41241705E+02 E0= -.41241705E+02  d E =-.338462E-01  mag=     0.1917
       N       E                     dE             d eps       ncg     rms          rms(c)
DAV:   1    -0.412490432654E+02   -0.72808E-02   -0.84941E-01  1056   0.328E+00    0.365E-01
DAV:   2    -0.412584487053E+02   -0.94054E-02   -0.68692E-02  1392   0.293E+00    0.776E-01
DAV:   3    -0.412521275326E+02    0.63212E-02   -0.16600E-02  1024   0.244E+00    0.179E-01
DAV:   4    -0.412523141594E+02   -0.18663E-03   -0.17853E-03  1184   0.410E-01    0.601E-02
DAV:   5    -0.412525711688E+02   -0.25701E-03   -0.59095E-04  1088   0.117E-01    0.175E-02
DAV:   6    -0.412527897690E+02   -0.21860E-03   -0.13570E-04   784   0.516E-02    0.132E-02
DAV:   7    -0.412528939426E+02   -0.10417E-03   -0.23119E-05   688   0.280E-02    0.918E-03
DAV:   8    -0.412529385443E+02   -0.44602E-04   -0.17630E-05   800   0.208E-02
  12 F= -.41252939E+02 E0= -.41252939E+02  d E =-.112336E-01  mag=     0.1791
       N       E                     dE             d eps       ncg     rms          rms(c)
DAV:   1    -0.412396401424E+02    0.13254E-01   -0.70196E+00   960   0.952E+00    0.103E+00
DAV:   2    -0.413183451317E+02   -0.78705E-01   -0.56922E-01  1472   0.844E+00    0.221E+00
DAV:   3    -0.412685514243E+02    0.49794E-01   -0.13341E-01   992   0.684E+00    0.503E-01
DAV:   4    -0.412664156490E+02    0.21358E-02   -0.14546E-02  1168   0.113E+00    0.183E-01
DAV:   5    -0.412657719965E+02    0.64365E-03   -0.44882E-03  1120   0.359E-01    0.455E-02
DAV:   6    -0.412659487720E+02   -0.17678E-03   -0.93469E-04   992   0.138E-01    0.381E-02
DAV:   7    -0.412659272893E+02    0.21483E-04   -0.47417E-05   736   0.561E-02
  13 F= -.41265927E+02 E0= -.41265927E+02  d E =-.242223E-01  mag=     0.1506
       N       E                     dE             d eps       ncg     rms          rms(c)
DAV:   1    -0.412699181457E+02   -0.39694E-02   -0.56659E-02  1232   0.186E+00    0.506E-01
DAV:   2    -0.412835281328E+02   -0.13610E-01   -0.49170E-02   960   0.426E+00    0.115E+00
DAV:   3    -0.412663553740E+02    0.17173E-01   -0.29205E-02   960   0.368E+00    0.215E-01
DAV:   4    -0.412676732642E+02   -0.13179E-02   -0.32607E-03  1136   0.445E-01    0.534E-02
DAV:   5    -0.412677511359E+02   -0.77872E-04   -0.13894E-04   800   0.104E-01
  14 F= -.41267751E+02 E0= -.41267751E+02  d E =-.182385E-02  mag=     0.1431
       N       E                     dE             d eps       ncg     rms          rms(c)
DAV:   1    -0.412933955736E+02   -0.25722E-01   -0.52493E-01  1232   0.564E+00    0.151E+00
DAV:   2    -0.414148739128E+02   -0.12148E+00   -0.43974E-01  1024   0.126E+01    0.339E+00
DAV:   3    -0.412706402247E+02    0.14423E+00   -0.26645E-01   960   0.112E+01    0.619E-01
DAV:   4    -0.412702243286E+02    0.41590E-03   -0.30203E-02  1152   0.123E+00    0.180E-01
DAV:   5    -0.412699086751E+02    0.31565E-03   -0.15601E-03  1312   0.374E-01    0.632E-02
DAV:   6    -0.412699889217E+02   -0.80247E-04   -0.40303E-04   912   0.120E-01
  15 F= -.41269989E+02 E0= -.41269989E+02  d E =-.406163E-02  mag=     0.1402
       N       E                     dE             d eps       ncg     rms          rms(c)
DAV:   1    -0.412704352994E+02   -0.52662E-03   -0.28143E-02   960   0.661E-01    0.852E-02
DAV:   2    -0.412708965922E+02   -0.46129E-03   -0.31155E-03  1408   0.736E-01    0.197E-01
DAV:   3    -0.412702574956E+02    0.63910E-03   -0.10128E-03   992   0.627E-01    0.384E-02
DAV:   4    -0.412705388116E+02   -0.28132E-03   -0.93113E-05   640   0.671E-02    0.192E-02
DAV:   5    -0.412705495261E+02   -0.10715E-04   -0.24385E-05   768   0.253E-02
  16 F= -.41270550E+02 E0= -.41270550E+02  d E =-.560604E-03  mag=     0.1431
       N       E                     dE             d eps       ncg     rms          rms(c)
DAV:   1    -0.412704755774E+02    0.63234E-04   -0.61090E-02   976   0.990E-01    0.131E-01
DAV:   2    -0.412716092242E+02   -0.11336E-02   -0.69345E-03  1280   0.115E+00    0.310E-01
DAV:   3    -0.412699979897E+02    0.16112E-02   -0.23978E-03   992   0.968E-01    0.536E-02
DAV:   4    -0.412706421712E+02   -0.64418E-03   -0.25687E-04   896   0.988E-02    0.289E-02
DAV:   5    -0.412706363680E+02    0.58032E-05   -0.24663E-05   688   0.512E-02
  17 F= -.41270636E+02 E0= -.41270636E+02  d E =-.647446E-03  mag=     0.1434
