 vasp.5.4.4.18Apr17-6-g9f103f2a35 (build May  1 2020 15:48:39) complex           
 executed on             LinuxGNU date 2020.06.18  18:40:54
 running on   16 total cores
 distrk:  each k-point on   16 cores,    1 groups
 distr:  one band on NCORES_PER_BAND=   1 cores,   16 groups


--------------------------------------------------------------------------------------------------------


 INCAR:
 POTCAR:   PAW_PBE Ni 06Sep2000                   
 POTCAR:   PAW_PBE Ge 05Jan2001                   
 POTCAR:    PAW_PBE S 17Jan2003                   

 ----------------------------------------------------------------------------- 
|                                                                             |
|           W    W    AA    RRRRR   N    N  II  N    N   GGGG   !!!           |
|           W    W   A  A   R    R  NN   N  II  NN   N  G    G  !!!           |
|           W    W  A    A  R    R  N N  N  II  N N  N  G       !!!           |
|           W WW W  AAAAAA  RRRRR   N  N N  II  N  N N  G  GGG   !            |
|           WW  WW  A    A  R   R   N   NN  II  N   NN  G    G                |
|           W    W  A    A  R    R  N    N  II  N    N   GGGG   !!!           |
|                                                                             |
|      For optimal performance we recommend to set                            |
|        NCORE= 4 - approx SQRT( number of cores)                             |
|      NCORE specifies how many cores store one orbital (NPAR=cpu/NCORE).     |
|      This setting can  greatly improve the performance of VASP for DFT.     |
|      The default,   NCORE=1            might be grossly inefficient         |
|      on modern multi-core architectures or massively parallel machines.     |
|      Do your own testing !!!!                                               |
|      Unfortunately you need to use the default for GW and RPA calculations. |
|      (for HF NCORE is supported but not extensively tested yet)             |
|                                                                             |
 ----------------------------------------------------------------------------- 


 ----------------------------------------------------------------------------- 
|                                                                             |
|  ADVICE TO THIS USER RUNNING 'VASP/VAMP'   (HEAR YOUR MASTER'S VOICE ...):  |
|                                                                             |
|      You have switched on vdW-DFT.                                          |
|      This routine was written and supplied by Jiri Klimes.                  |
|      We recommed that you carefully read and cite the following             |
|      publication                                                            |
|      J. Klimes, D.R. Bowler, A. Michelides                                  |
|        J. Phys.: Cond Matt. 22 022201 (2010)                                |
|      J. Klimes, D.R. Bowler, A. Michelides                                  |
|        Phys. Rev. B. 83, 195131 (2011)                                      |
|      and references therein.                                                |
|                                                                             |
 ----------------------------------------------------------------------------- 

 POTCAR:   PAW_PBE Ni 06Sep2000                   
   VRHFIN =Ni:                                                                  
   LEXCH  = PE                                                                  
   EATOM  =  1077.9025 eV,   79.2236 Ry                                         
                                                                                
   TITEL  = PAW_PBE Ni 06Sep2000                                                
   LULTRA =        F    use ultrasoft PP ?                                      
   IUNSCR =        1    unscreen: 0-lin 1-nonlin 2-no                           
   RPACOR =    2.000    partial core radius                                     
   POMASS =   58.690; ZVAL   =   10.000    mass and valenz                      
   RCORE  =    2.300    outmost cutoff radius                                   
   RWIGS  =    2.430; RWIGS  =    1.286    wigner-seitz radius (au A)           
   ENMAX  =  269.533; ENMIN  =  202.150 eV                                      
   RCLOC  =    1.681    cutoff for local pot                                    
   LCOR   =        T    correct aug charges                                     
   LPAW   =        T    paw PP                                                  
   EAUG   =  544.565                                                            
   DEXC   =    -.009                                                            
   RMAX   =    2.808    core radius for proj-oper                               
   RAUG   =    1.300    factor for augmentation sphere                          
   RDEP   =    2.390    radius for radial grids                                 
   QCUT   =   -4.451; QGAM   =    8.902    optimization parameters              
                                                                                
   Description                                                                  
     l     E      TYP  RCUT    TYP  RCUT                                        
     2   .000     23  2.300                                                     
     2   .000     23  2.300                                                     
     0   .000     23  2.300                                                     
     0   .000     23  2.300                                                     
     1  -.200     23  2.300                                                     
     1   .000     23  2.300                                                     
     3   .000      7   .000                                                     
  local pseudopotential read in
  partial core-charges read in
  atomic valenz-charges read in
  non local Contribution for L=           2  read in
    real space projection operators read in
  non local Contribution for L=           2  read in
    real space projection operators read in
  non local Contribution for L=           0  read in
    real space projection operators read in
  non local Contribution for L=           0  read in
    real space projection operators read in
  non local Contribution for L=           1  read in
    real space projection operators read in
  non local Contribution for L=           1  read in
    real space projection operators read in
    PAW grid and wavefunctions read in

   number of l-projection  operators is LMAX  =           6
   number of lm-projection operators is LMMAX =          18

 POTCAR:   PAW_PBE Ge 05Jan2001                   
   VRHFIN =Ge: s2p2                                                             
   LEXCH  = PE                                                                  
   EATOM  =   104.9960 eV,    7.7170 Ry                                         
                                                                                
   TITEL  = PAW_PBE Ge 05Jan2001                                                
   LULTRA =        F    use ultrasoft PP ?                                      
   IUNSCR =        1    unscreen: 0-lin 1-nonlin 2-no                           
   RPACOR =    2.170    partial core radius                                     
   POMASS =   72.610; ZVAL   =    4.000    mass and valenz                      
   RCORE  =    2.300    outmost cutoff radius                                   
   RWIGS  =    2.300; RWIGS  =    1.217    wigner-seitz radius (au A)           
   ENMAX  =  173.807; ENMIN  =  130.355 eV                                      
   ICORE  =        3    local potential                                         
   LCOR   =        T    correct aug charges                                     
   LPAW   =        T    paw PP                                                  
   EAUG   =  385.843                                                            
   DEXC   =    -.138                                                            
   RMAX   =    3.497    core radius for proj-oper                               
   RAUG   =    1.300    factor for augmentation sphere                          
   RDEP   =    2.318    radius for radial grids                                 
   QCUT   =   -3.574; QGAM   =    7.148    optimization parameters              
                                                                                
   Description                                                                  
     l     E      TYP  RCUT    TYP  RCUT                                        
     0   .000     23  2.300                                                     
     0   .000     23  2.300                                                     
     1   .000     23  2.300                                                     
     1   .000     23  2.300                                                     
     2   .000     23  2.300                                                     
     3  -.100      7  2.300                                                     
  local pseudopotential read in
  partial core-charges read in
  atomic valenz-charges read in
  non local Contribution for L=           0  read in
    real space projection operators read in
  non local Contribution for L=           0  read in
    real space projection operators read in
  non local Contribution for L=           1  read in
    real space projection operators read in
  non local Contribution for L=           1  read in
    real space projection operators read in
  non local Contribution for L=           2  read in
    real space projection operators read in
    PAW grid and wavefunctions read in

   number of l-projection  operators is LMAX  =           5
   number of lm-projection operators is LMMAX =          13

 POTCAR:    PAW_PBE S 17Jan2003                   
   VRHFIN =S : s2p4                                                             
   LEXCH  = PE                                                                  
   EATOM  =   276.8230 eV,   20.3459 Ry                                         
                                                                                
   TITEL  = PAW_PBE S 17Jan2003                                                 
   LULTRA =        F    use ultrasoft PP ?                                      
   IUNSCR =        1    unscreen: 0-lin 1-nonlin 2-no                           
   RPACOR =    1.500    partial core radius                                     
   POMASS =   32.066; ZVAL   =    6.000    mass and valenz                      
   RCORE  =    1.900    outmost cutoff radius                                   
   RWIGS  =    2.200; RWIGS  =    1.164    wigner-seitz radius (au A)           
   ENMAX  =  280.000; ENMIN  =  194.016 eV                                      
   ICORE  =        2    local potential                                         
   LCOR   =        T    correct aug charges                                     
   LPAW   =        T    paw PP                                                  
   EAUG   =  335.092                                                            
   DEXC   =     .000                                                            
   RMAX   =    2.867    core radius for proj-oper                               
   RAUG   =    1.300    factor for augmentation sphere                          
   RDEP   =    1.954    radius for radial grids                                 
   QCUT   =   -4.360; QGAM   =    8.721    optimization parameters              
                                                                                
   Description                                                                  
     l     E      TYP  RCUT    TYP  RCUT                                        
     0   .000     23  1.900                                                     
     0   .000     23  1.900                                                     
     1   .000     23  1.900                                                     
     1   .000     23  1.900                                                     
     2   .000     23  1.900                                                     
  local pseudopotential read in
  partial core-charges read in
  atomic valenz-charges read in
  non local Contribution for L=           0  read in
    real space projection operators read in
  non local Contribution for L=           0  read in
    real space projection operators read in
  non local Contribution for L=           1  read in
    real space projection operators read in
  non local Contribution for L=           1  read in
    real space projection operators read in
    PAW grid and wavefunctions read in

   number of l-projection  operators is LMAX  =           4
   number of lm-projection operators is LMMAX =           8

 Optimization of the real space projectors (new method)

 maximal supplied QI-value         = 16.25
 optimisation between [QCUT,QGAM] = [ 11.54, 23.24] = [ 37.28,151.24] Ry 
 Optimized for a Real-space Cutoff    1.49 Angstroem

   l    n(q)    QCUT    max X(q) W(low)/X(q) W(high)/X(q)  e(spline) 
   2      9    11.539     4.811    0.20E-04    0.14E-04    0.45E-07
   2      9    11.539    15.146    0.24E-03    0.12E-03    0.20E-06
   0     10    11.539    14.357    0.18E-04    0.12E-05    0.14E-07
   0     10    11.539    43.282    0.39E-04    0.17E-04    0.23E-06
   1     10    11.539     5.514    0.99E-05    0.13E-04    0.19E-07
   1     10    11.539     7.697    0.38E-04    0.79E-04    0.91E-07
 Optimization of the real space projectors (new method)

 maximal supplied QI-value         = 16.25
 optimisation between [QCUT,QGAM] = [ 11.54, 23.24] = [ 37.28,151.24] Ry 
 Optimized for a Real-space Cutoff    1.28 Angstroem

   l    n(q)    QCUT    max X(q) W(low)/X(q) W(high)/X(q)  e(spline) 
   0      9    11.539     8.651    0.22E-04    0.16E-04    0.10E-07
   0      9    11.539    33.192    0.11E-03    0.16E-03    0.65E-07
   1      8    11.539     5.899    0.37E-04    0.28E-04    0.43E-07
   1      8    11.539    27.289    0.22E-03    0.28E-04    0.14E-06
   2      8    11.539     4.673    0.11E-03    0.18E-03    0.58E-07
 Optimization of the real space projectors (new method)

 maximal supplied QI-value         = 19.84
 optimisation between [QCUT,QGAM] = [ 11.51, 23.22] = [ 37.09,150.92] Ry 
 Optimized for a Real-space Cutoff    1.21 Angstroem

   l    n(q)    QCUT    max X(q) W(low)/X(q) W(high)/X(q)  e(spline) 
   0      8    11.508     5.487    0.18E-04    0.22E-05    0.47E-08
   0      8    11.508    85.627    0.96E-04    0.18E-03    0.54E-07
   1      8    11.508     3.530    0.17E-04    0.28E-04    0.21E-07
   1      8    11.508    42.714    0.18E-03    0.63E-04    0.92E-07

 ----------------------------------------------------------------------------- 
|                                                                             |
|  ADVICE TO THIS USER RUNNING 'VASP/VAMP'   (HEAR YOUR MASTER'S VOICE ...):  |
|                                                                             |
|      You enforced a specific xc-type in the INCAR file,                     |
|      a different type was found on the POTCAR file                          |
|          I HOPE YOU KNOW, WHAT YOU ARE  DOING                               |
|                                                                             |
 ----------------------------------------------------------------------------- 

 PAW_PBE Ni 06Sep2000                   :
 energy of atom  1       EATOM=-1077.9025
 kinetic energy error for atom=    0.0030 (will be added to EATOM!!)
 PAW_PBE Ge 05Jan2001                   :
 energy of atom  2       EATOM= -104.9960
 kinetic energy error for atom=    0.0002 (will be added to EATOM!!)
  PAW_PBE S 17Jan2003                   :
 energy of atom  3       EATOM= -276.8230
 kinetic energy error for atom=    0.0016 (will be added to EATOM!!)


 POSCAR: Ni2 Ge2 S6                              
  positions in direct lattice
  velocities in cartesian coordinates
  No initial velocities read in
 exchange correlation table for  LEXCH =       42
   RHO(1)=    0.500       N(1)  =     2000
   RHO(2)=  100.500       N(2)  =     4000



--------------------------------------------------------------------------------------------------------


 ion  position               nearest neighbor table
   1  0.333  0.333  0.500-   6 2.78   5 2.78   7 2.78   8 2.78  10 2.78   9 2.78
   2  0.667  0.667  0.500-   9 2.78   8 2.78  10 2.78   5 2.78   7 2.78   6 2.78
   3  0.000  0.000  0.448-   4 2.43   8 2.63  10 2.63   9 2.63
   4  0.000  0.000  0.552-   3 2.43   5 2.63   7 2.63   6 2.63
   5  0.626  0.000  0.574-   4 2.63   1 2.78   2 2.78
   6  0.000  0.373  0.574-   4 2.63   1 2.78   2 2.78
   7  0.373  0.626  0.574-   4 2.63   1 2.78   2 2.78
   8  0.374  1.000  0.426-   3 2.63   2 2.78   1 2.78
   9  1.000  0.627  0.426-   3 2.63   2 2.78   1 2.78
  10  0.627  0.374  0.426-   3 2.63   2 2.78   1 2.78

  LATTYP: Found a hexagonal cell.
 ALAT       =     6.9077769333
 C/A-ratio  =     3.3939410937
  
  Lattice vectors:
  
 A1 = (   3.4538890000,  -5.9823100000,   0.0000000000)
 A2 = (  -6.9077770000,   0.0000000000,   0.0000000000)
 A3 = (   0.0000000000,   0.0000000000, -23.4445880000)


Analysis of symmetry for initial positions (statically):
=====================================================================
 Subroutine PRICEL returns:
 Original cell was already a primitive cell.
 

 Routine SETGRP: Setting up the symmetry group for a 
 hexagonal supercell.


 Subroutine GETGRP returns: Found  6 space group operations
 (whereof  6 operations were pure point group operations)
 out of a pool of 24 trial point group operations.


The static configuration has the point symmetry S_6 .


Analysis of symmetry for dynamics (positions and initial velocities):
=====================================================================
 Subroutine PRICEL returns:
 Original cell was already a primitive cell.
 

 Routine SETGRP: Setting up the symmetry group for a 
 hexagonal supercell.


 Subroutine GETGRP returns: Found  6 space group operations
 (whereof  6 operations were pure point group operations)
 out of a pool of 24 trial point group operations.


The dynamic configuration has the point symmetry S_6 .


Analysis of constrained symmetry for selective dynamics:
=====================================================================
 Subroutine PRICEL returns:
 Original cell was already a primitive cell.
 

 Routine SETGRP: Setting up the symmetry group for a 
 hexagonal supercell.


 Subroutine GETGRP returns: Found  6 space group operations
 (whereof  6 operations were pure point group operations)
 out of a pool of 24 trial point group operations.


The constrained configuration has the point symmetry S_6 .


Analysis of structural, dynamic, and magnetic symmetry:
=====================================================================
 Subroutine PRICEL returns:
 Original cell was already a primitive cell.
 

 Routine SETGRP: Setting up the symmetry group for a 
 hexagonal supercell.


 Subroutine GETGRP returns: Found  6 space group operations
 (whereof  6 operations were pure point group operations)
 out of a pool of 24 trial point group operations.


The magnetic configuration has the point symmetry S_6 .


 Subroutine INISYM returns: Found  6 space group operations
 (whereof  6 operations are pure point group operations),
 and found     1 'primitive' translations



 KPOINTS: Kpoints from vasprun.xml                

Automatic generation of k-mesh.
Space group operators:
 irot       det(A)        alpha          n_x          n_y          n_z        tau_x        tau_y        tau_z
    1     1.000000     0.000000     1.000000     0.000000     0.000000     0.000000     0.000000     0.000000
    2    -1.000000     0.000000     1.000000     0.000000     0.000000     0.000000     0.000000     0.000000
    3     1.000000   120.000000     0.000000     0.000000     1.000000     0.000000     0.000000     0.000000
    4    -1.000000   120.000000     0.000000     0.000000     1.000000     0.000000     0.000000     0.000000
    5     1.000000   120.000000     0.000000     0.000000    -1.000000     0.000000     0.000000     0.000000
    6    -1.000000   120.000000     0.000000     0.000000    -1.000000     0.000000     0.000000     0.000000
 
 Subroutine IBZKPT returns following result:
 ===========================================
 
 Found      5 irreducible k-points:
 
 Following reciprocal coordinates:
            Coordinates               Weight
  0.000000  0.000000  0.000000      1.000000
  0.200000  0.000000  0.000000      6.000000
  0.400000  0.000000  0.000000      6.000000
  0.400000  0.200000  0.000000      6.000000
 -0.400000  0.200000  0.000000      6.000000
 
 Following cartesian coordinates:
            Coordinates               Weight
  0.000000  0.000000  0.000000      1.000000
  0.028953 -0.016716  0.000000      6.000000
  0.057906 -0.033432  0.000000      6.000000
  0.057906  0.000000  0.000000      6.000000
 -0.057906  0.066864  0.000000      6.000000
 
 TETIRR: Found     15 inequivalent tetrahedra from      150


--------------------------------------------------------------------------------------------------------




 Dimension of arrays:
   k-points           NKPTS =      5   k-points in BZ     NKDIM =      5   number of bands    NBANDS=     48
   number of dos      NEDOS =    301   number of ions     NIONS =     10
   non local maximal  LDIM  =      6   non local SUM 2l+1 LMDIM =     18
   total plane-waves  NPLWV = 524880
   max r-space proj   IRMAX =   7543   max aug-charges    IRDMAX=  29641
   dimension x,y,z NGX =    54 NGY =   54 NGZ =  180
   dimension x,y,z NGXF=   108 NGYF=  108 NGZF=  360
   support grid    NGXF=   108 NGYF=  108 NGZF=  360
   ions per type =               2   2   6
   NGX,Y,Z   is equivalent  to a cutoff of  13.00, 13.00, 12.76 a.u.
   NGXF,Y,Z  is equivalent  to a cutoff of  25.99, 25.99, 25.53 a.u.

 SYSTEM =  unknown system                          
 POSCAR =  Ni2 Ge2 S6                              

 Startparameter for this run:
   NWRITE =      2    write-flag & timer
   PREC   = accura    normal or accurate (medium, high low for compatibility)
   ISTART =      0    job   : 0-new  1-cont  2-samecut
   ICHARG =      2    charge: 1-file 2-atom 10-const
   ISPIN  =      2    spin polarized calculation?
   LNONCOLLINEAR =      F non collinear calculations
   LSORBIT =      F    spin-orbit coupling
   INIWAV =      1    electr: 0-lowe 1-rand  2-diag
   LASPH  =      F    aspherical Exc in radial PAW
   METAGGA=      F    non-selfconsistent MetaGGA calc.

 Electronic Relaxation 1
   ENCUT  =  520.0 eV  38.22 Ry    6.18 a.u.  12.84 12.84 43.59*2*pi/ulx,y,z
   ENINI  =  520.0     initial cutoff
   ENAUG  =  544.6 eV  augmentation charge cutoff
   NELM   =    400;   NELMIN=  2; NELMDL=  0     # of ELM steps 
   EDIFF  = 0.1E-03   stopping-criterion for ELM
   LREAL  =      T    real-space projection
   NLSPLINE    = F    spline interpolate recip. space projectors
   LCOMPAT=      F    compatible to vasp.4.4
   GGA_COMPAT  = T    GGA compatible to vasp.4.4-vasp.4.6
   LMAXPAW     = -100 max onsite density
   LMAXMIX     =    2 max onsite mixed and CHGCAR
   VOSKOWN=      0    Vosko Wilk Nusair interpolation
   ROPT   =   -0.00025  -0.00025  -0.00025
 Ionic relaxation
   EDIFFG = 0.1E-02   stopping-criterion for IOM
   NSW    =     99    number of steps for IOM
   NBLOCK =      1;   KBLOCK =     99    inner block; outer block 
   IBRION =      2    ionic relax: 0-MD 1-quasi-New 2-CG
   NFREE  =      1    steps in history (QN), initial steepest desc. (CG)
   ISIF   =      3    stress and relaxation
   IWAVPR =     11    prediction:  0-non 1-charg 2-wave 3-comb
   ISYM   =      2    0-nonsym 1-usesym 2-fastsym
   LCORR  =      T    Harris-Foulkes like correction to forces

   POTIM  = 0.5000    time-step for ionic-motion
   TEIN   =    0.0    initial temperature
   TEBEG  =    0.0;   TEEND  =   0.0 temperature during run
   SMASS  =  -3.00    Nose mass-parameter (am)
   estimated Nose-frequenzy (Omega)   =  0.10E-29 period in steps =****** mass=  -0.109E-26a.u.
   SCALEE = 1.0000    scale energy and forces
   NPACO  =    256;   APACO  = 16.0  distance and # of slots for P.C.
   PSTRESS=    0.0 pullay stress

  Mass of Ions in am
   POMASS =  58.69 72.61 32.07
  Ionic Valenz
   ZVAL   =  10.00  4.00  6.00
  Atomic Wigner-Seitz radii
   RWIGS  =  -1.00 -1.00 -1.00
  virtual crystal weights 
   VCA    =   1.00  1.00  1.00
   NELECT =      64.0000    total number of electrons
   NUPDOWN=      -1.0000    fix difference up-down

 DOS related values:
   EMIN   =  10.00;   EMAX   =-10.00  energy-range for DOS
   EFERMI =   0.00
   ISMEAR =    -5;   SIGMA  =   0.05  broadening in eV -4-tet -1-fermi 0-gaus

 Electronic relaxation 2 (details)
   IALGO  =     38    algorithm
   LDIAG  =      T    sub-space diagonalisation (order eigenvalues)
   LSUBROT=      F    optimize rotation matrix (better conditioning)
   TURBO    =      0    0=normal 1=particle mesh
   IRESTART =      0    0=no restart 2=restart with 2 vectors
   NREBOOT  =      0    no. of reboots
   NMIN     =      0    reboot dimension
   EREF     =   0.00    reference energy to select bands
   IMIX   =      4    mixing-type and parameters
     AMIX     =   0.40;   BMIX     =  1.00
     AMIX_MAG =   1.60;   BMIX_MAG =  1.00
     AMIN     =   0.01
     WC   =   100.;   INIMIX=   1;  MIXPRE=   1;  MAXMIX= -45

 Intra band minimization:
   WEIMIN = 0.0010     energy-eigenvalue tresh-hold
   EBREAK =  0.52E-06  absolut break condition
   DEPER  =   0.30     relativ break condition  

   TIME   =   0.40     timestep for ELM

  volume/ion in A,a.u.               =      96.88       653.80
  Fermi-wavevector in a.u.,A,eV,Ry     =   0.661787  1.250596  5.958835  0.437962
  Thomas-Fermi vector in A             =   1.734655

 Write flags
   LWAVE        =      F    write WAVECAR
   LDOWNSAMPLE  =      F    k-point downsampling of WAVECAR
   LCHARG       =      T    write CHGCAR
   LVTOT        =      F    write LOCPOT, total local potential
   LVHAR        =      F    write LOCPOT, Hartree potential only
   LELF         =      F    write electronic localiz. function (ELF)
   LORBIT       =     11    0 simple, 1 ext, 2 COOP (PROOUT), +10 PAW based schemes


 Dipole corrections
   LMONO  =      F    monopole corrections only (constant potential shift)
   LDIPOL =      F    correct potential (dipole corrections)
   IDIPOL =      0    1-x, 2-y, 3-z, 4-all directions 
   EPSILON=  1.0000000 bulk dielectric constant

 Exchange correlation treatment:
   GGA     =    BO    GGA type
   LEXCH   =    42    internal setting for exchange type
   VOSKOWN=      0    Vosko Wilk Nusair interpolation
   LHFCALC =     F    Hartree Fock is set to
   LHFONE  =     F    Hartree Fock one center treatment
   AEXX    =    0.0000 exact exchange contribution

 vdW DFT:
   LUSE_VDW   =     T    switch on vdW DFT
   Zab_VDW    =-.8491    correlation parameter
   PARAM1     =0.1833
   PARAM2     =0.2200
   PARAM3     =0.0000
   -- rVV10 --
   BPARAM     = 6.3000
   CPARAM     = 0.0093

 Linear response parameters
   LEPSILON=     F    determine dielectric tensor
   LRPA    =     F    only Hartree local field effects (RPA)
   LNABLA  =     F    use nabla operator in PAW spheres
   LVEL    =     F    velocity operator in full k-point grid
   LINTERFAST=   F  fast interpolation
   KINTER  =     0    interpolate to denser k-point grid
   CSHIFT  =0.1000    complex shift for real part using Kramers Kronig
   OMEGAMAX=  -1.0    maximum frequency
   DEG_THRESHOLD= 0.2000000E-02 threshold for treating states as degnerate
   RTIME   =   -0.100 relaxation time in fs
  (WPLASMAI=    0.000 imaginary part of plasma frequency in eV, 0.658/RTIME)
   DFIELD  = 0.0000000 0.0000000 0.0000000 field for delta impulse in time

 Orbital magnetization related:
   ORBITALMAG=     F  switch on orbital magnetization
   LCHIMAG   =     F  perturbation theory with respect to B field
   DQ        =  0.001000  dq finite difference perturbation B field
   LLRAUG    =     F  two centre corrections for induced B field



--------------------------------------------------------------------------------------------------------


 conjugate gradient relaxation of ions
   using selective dynamics as specified on POSCAR
 charge density and potential will be updated during run
 spin polarized calculation
 Variant of blocked Davidson
 Davidson routine will perform the subspace rotation
 perform sub-space diagonalisation
    after iterative eigenvector-optimisation
 modified Broyden-mixing scheme, WC =      100.0
 initial mixing is a Kerker type mixing with AMIX =  0.4000 and BMIX =      1.0000
 Hartree-type preconditioning will be used
 using additional bands           16
 real space projection scheme for non local part
 use partial core corrections
 calculate Harris-corrections to forces   (improved forces if not selfconsistent)
 use gradient corrections 
 use of overlap-Matrix (Vanderbilt PP)
 Fermi weights with tetrahedron method with Bloechl corrections


--------------------------------------------------------------------------------------------------------


  energy-cutoff  :      520.00
  volume of cell :      968.84
      direct lattice vectors                 reciprocal lattice vectors
     6.907777000 -0.000000000  0.000000000     0.144764372 -0.083579742  0.000000000
     3.453888000  5.982310000  0.000000000     0.000000000  0.167159509 -0.000000000
     0.000000000  0.000000000 23.444588000    -0.000000000  0.000000000  0.042653767

  length of vectors
     6.907777000  6.907776433 23.444588000     0.167159495  0.167159509  0.042653767



 k-points in units of 2pi/SCALE and weight: Kpoints from vasprun.xml                
   0.00000000  0.00000000  0.00000000       0.040
   0.02895287 -0.01671595  0.00000000       0.240
   0.05790575 -0.03343190  0.00000000       0.240
   0.05790575  0.00000000  0.00000000       0.240
  -0.05790575  0.06686380  0.00000000       0.240

 k-points in reciprocal lattice and weights: Kpoints from vasprun.xml                
   0.00000000  0.00000000  0.00000000       0.040
   0.20000000  0.00000000  0.00000000       0.240
   0.40000000  0.00000000  0.00000000       0.240
   0.40000000  0.20000000  0.00000000       0.240
  -0.40000000  0.20000000  0.00000000       0.240

 position of ions in fractional coordinates (direct lattice) 
   0.33333300  0.33333300  0.49992500
   0.66666700  0.66666700  0.50007500
   0.00000000  0.00000000  0.44821600
   0.00000000  0.00000000  0.55178400
   0.62635700  0.00042000  0.57375200
   0.00042000  0.37322400  0.57375200
   0.37322400  0.62635700  0.57375200
   0.37364300  0.99958000  0.42624800
   0.99958000  0.62677600  0.42624800
   0.62677600  0.37364300  0.42624800

 position of ions in cartesian coordinates  (Angst):
   3.45388488  1.99410134 11.72053566
   6.90778012  3.98820866 11.72405234
   0.00000000  0.00000000 10.50823946
   0.00000000  0.00000000 12.93634854
   4.32818511  0.00251257 13.45137925
   1.29197516  2.23274167 13.45137925
   4.74151509  3.74706174 13.45137925
   6.03347989  5.97979743  9.99320875
   9.06968984  3.74956833  9.99320875
   5.62014991  2.23524826  9.99320875



--------------------------------------------------------------------------------------------------------


 k-point  1 :   0.0000 0.0000 0.0000  plane waves:   26073
 k-point  2 :   0.2000 0.0000 0.0000  plane waves:   26070
 k-point  3 :   0.4000 0.0000 0.0000  plane waves:   26086
 k-point  4 :   0.4000 0.2000 0.0000  plane waves:   26085
 k-point  5 :  -0.4000 0.2000 0.0000  plane waves:   26115

 maximum and minimum number of plane-waves per node :     26115    26070

 maximum number of plane-waves:     26115
 maximum index in each direction: 
   IXMAX=   13   IYMAX=   12   IZMAX=   43
   IXMIN=  -13   IYMIN=  -13   IZMIN=  -43


 serial   3D FFT for wavefunctions
 parallel 3D FFT for charge:
    minimum data exchange during FFTs selected (reduces bandwidth)


 total amount of memory used by VASP MPI-rank0   126596. kBytes
=======================================================================

   base      :      30000. kBytes
   nonlr-proj:       6301. kBytes
   fftplans  :      11247. kBytes
   grid      :      66142. kBytes
   one-center:        311. kBytes
   wavefun   :      12595. kBytes

     INWAV:  cpu time    0.0000: real time    0.0007
 Broyden mixing: mesh for mixing (old mesh)
   NGX = 25   NGY = 25   NGZ = 87
  (NGX  =108   NGY  =108   NGZ  =360)
  gives a total of  54375 points

 initial charge density was supplied:
 charge density of overlapping atoms calculated
 number of electron      64.0000000 magnetization       7.3200000
 keeping initial charge density in first step


--------------------------------------------------------------------------------------------------------


 Maximum index for non-local projection operator         7247
 Maximum index for augmentation-charges         2133 (set IRDMAX)


--------------------------------------------------------------------------------------------------------


 First call to EWALD:  gamma=   0.179
 Maximum number of real-space cells 4x 4x 1
 Maximum number of reciprocal cells 2x 2x 6

    FEWALD:  cpu time    0.0000: real time    0.0015


--------------------------------------- Iteration      1(   1)  ---------------------------------------


vdW kernel read from vdw_kernel.bindat
  0.0000  0.2424  0.5071  0.7962  1.1119  1.4567  1.8333  2.2446  2.6937  3.1842
  3.7199  4.3049  4.9438  5.6415  6.4036  7.2358  8.1446  9.1372 10.2212 11.4050
 12.6979 14.1099 15.6519 17.3360 19.1751 21.1837 23.3773 25.7729 28.3892 31.2465
 34.3669 37.7748 41.4965 45.5611 50.0000

    POTLOK:  cpu time   52.7520: real time   53.1643
    SETDIJ:  cpu time    0.0440: real time    0.0440
     EDDAV:  cpu time   22.0680: real time   22.7060
 BZINTS: Fermi energy:  4.454169; 64.000000 electrons
         Band energy: -47.088126;  BLOECHL correction: -0.034751
       DOS:  cpu time    0.0040: real time    0.0048
    --------------------------------------------
      LOOP:  cpu time   74.8680: real time   75.9191

 eigenvalue-minimisations  :   960
 total energy-change (2. order) : 0.4174524E+03  (-0.1966607E+04)
 number of electron      64.0000000 magnetization       7.3200000
 augmentation part       64.0000000 magnetization       7.3200000

 Free energy of the ion-electron system (eV)
  ---------------------------------------------------
  alpha Z        PSCENC =        29.60393205
  Ewald energy   TEWEN  =      8065.03639907
  -Hartree energ DENC   =    -11703.58683588
  -exchange      EXHF   =         0.00000000
  -V(xc)+E(xc)   XCENC  =       111.56248542
  PAW double counting   =      2418.54594175    -2499.37916973
  entropy T*S    EENTRO =         0.00000000
  eigenvalues    EBANDS =       -47.08812615
  atomic energy  EATOM  =      4042.75775707
  Solvation  Ediel_sol  =         0.00000000
  ---------------------------------------------------
  free energy    TOTEN  =       417.45238361 eV

  energy without entropy =      417.45238361  energy(sigma->0) =      417.45238361


--------------------------------------------------------------------------------------------------------




--------------------------------------- Iteration      1(   2)  ---------------------------------------


     EDDAV:  cpu time   33.2680: real time   33.4309
 BZINTS: Fermi energy: -2.281988; 64.000000 electrons
         Band energy:-430.401346;  BLOECHL correction: -0.032050
       DOS:  cpu time    0.0080: real time    0.0067
    --------------------------------------------
      LOOP:  cpu time   33.2760: real time   33.4376

 eigenvalue-minimisations  :  1472
 total energy-change (2. order) :-0.3833132E+03  (-0.3609060E+03)
 number of electron      64.0000000 magnetization       7.3200000
 augmentation part       64.0000000 magnetization       7.3200000

 Free energy of the ion-electron system (eV)
  ---------------------------------------------------
  alpha Z        PSCENC =        29.60393205
  Ewald energy   TEWEN  =      8065.03639907
  -Hartree energ DENC   =    -11703.58683588
  -exchange      EXHF   =         0.00000000
  -V(xc)+E(xc)   XCENC  =       111.56248542
  PAW double counting   =      2418.54594175    -2499.37916973
  entropy T*S    EENTRO =         0.00000000
  eigenvalues    EBANDS =      -430.40134632
  atomic energy  EATOM  =      4042.75775707
  Solvation  Ediel_sol  =         0.00000000
  ---------------------------------------------------
  free energy    TOTEN  =        34.13916343 eV

  energy without entropy =       34.13916343  energy(sigma->0) =       34.13916343


--------------------------------------------------------------------------------------------------------




--------------------------------------- Iteration      1(   3)  ---------------------------------------


     EDDAV:  cpu time   28.2520: real time   28.3576
 BZINTS: Fermi energy: -2.883350; 64.000000 electrons
         Band energy:-504.629118;  BLOECHL correction: -0.009121
       DOS:  cpu time    0.0080: real time    0.0078
    --------------------------------------------
      LOOP:  cpu time   28.2600: real time   28.3654

 eigenvalue-minimisations  :  1232
 total energy-change (2. order) :-0.7422777E+02  (-0.7086286E+02)
 number of electron      64.0000000 magnetization       7.3200000
 augmentation part       64.0000000 magnetization       7.3200000

 Free energy of the ion-electron system (eV)
  ---------------------------------------------------
  alpha Z        PSCENC =        29.60393205
  Ewald energy   TEWEN  =      8065.03639907
  -Hartree energ DENC   =    -11703.58683588
  -exchange      EXHF   =         0.00000000
  -V(xc)+E(xc)   XCENC  =       111.56248542
  PAW double counting   =      2418.54594175    -2499.37916973
  entropy T*S    EENTRO =         0.00000000
  eigenvalues    EBANDS =      -504.62911799
  atomic energy  EATOM  =      4042.75775707
  Solvation  Ediel_sol  =         0.00000000
  ---------------------------------------------------
  free energy    TOTEN  =       -40.08860824 eV

  energy without entropy =      -40.08860824  energy(sigma->0) =      -40.08860824


--------------------------------------------------------------------------------------------------------




--------------------------------------- Iteration      1(   4)  ---------------------------------------


     EDDAV:  cpu time   27.8160: real time   28.0345
 BZINTS: Fermi energy: -2.900717; 64.000000 electrons
         Band energy:-507.547991;  BLOECHL correction: -0.010523
       DOS:  cpu time    0.0040: real time    0.0045
    --------------------------------------------
      LOOP:  cpu time   27.8200: real time   28.0390

 eigenvalue-minimisations  :  1216
 total energy-change (2. order) :-0.2918874E+01  (-0.2899485E+01)
 number of electron      64.0000000 magnetization       7.3200000
 augmentation part       64.0000000 magnetization       7.3200000

 Free energy of the ion-electron system (eV)
  ---------------------------------------------------
  alpha Z        PSCENC =        29.60393205
  Ewald energy   TEWEN  =      8065.03639907
  -Hartree energ DENC   =    -11703.58683588
  -exchange      EXHF   =         0.00000000
  -V(xc)+E(xc)   XCENC  =       111.56248542
  PAW double counting   =      2418.54594175    -2499.37916973
  entropy T*S    EENTRO =         0.00000000
  eigenvalues    EBANDS =      -507.54799150
  atomic energy  EATOM  =      4042.75775707
  Solvation  Ediel_sol  =         0.00000000
  ---------------------------------------------------
  free energy    TOTEN  =       -43.00748174 eV

  energy without entropy =      -43.00748174  energy(sigma->0) =      -43.00748174


--------------------------------------------------------------------------------------------------------




--------------------------------------- Iteration      1(   5)  ---------------------------------------


     EDDAV:  cpu time   28.9360: real time   29.1735
 BZINTS: Fermi energy: -2.901446; 64.000000 electrons
         Band energy:-507.628603;  BLOECHL correction: -0.010499
       DOS:  cpu time    0.0040: real time    0.0057
    CHARGE:  cpu time    2.1040: real time    2.1107
    MIXING:  cpu time    0.0400: real time    0.0410
    --------------------------------------------
      LOOP:  cpu time   31.0840: real time   31.3309

 eigenvalue-minimisations  :  1280
 total energy-change (2. order) :-0.8061124E-01  (-0.8062306E-01)
 number of electron      63.9999994 magnetization       7.4337863
 augmentation part        1.3447598 magnetization       4.6909791

 Broyden mixing:
  rms(total) = 0.44790E+01    rms(broyden)= 0.44790E+01
  rms(prec ) = 0.47573E+01
  weight for this iteration     100.00

 Free energy of the ion-electron system (eV)
  ---------------------------------------------------
  alpha Z        PSCENC =        29.60393205
  Ewald energy   TEWEN  =      8065.03639907
  -Hartree energ DENC   =    -11703.58683588
  -exchange      EXHF   =         0.00000000
  -V(xc)+E(xc)   XCENC  =       111.56248542
  PAW double counting   =      2418.54594175    -2499.37916973
  entropy T*S    EENTRO =         0.00000000
  eigenvalues    EBANDS =      -507.62860274
  atomic energy  EATOM  =      4042.75775707
  Solvation  Ediel_sol  =         0.00000000
  ---------------------------------------------------
  free energy    TOTEN  =       -43.08809299 eV

  energy without entropy =      -43.08809299  energy(sigma->0) =      -43.08809299


--------------------------------------------------------------------------------------------------------




--------------------------------------- Iteration      1(   6)  ---------------------------------------


    POTLOK:  cpu time   52.6320: real time   52.7407
    SETDIJ:  cpu time    0.0520: real time    0.0491
     EDDAV:  cpu time   29.5200: real time   30.3181
 BZINTS: Fermi energy: -4.407308; 64.000000 electrons
         Band energy:-810.347407;  BLOECHL correction: -0.024115
       DOS:  cpu time    0.0080: real time    0.0070
    CHARGE:  cpu time    1.9920: real time    2.1981
    MIXING:  cpu time    0.0440: real time    0.0418
    --------------------------------------------
      LOOP:  cpu time   84.2480: real time   85.3549

 eigenvalue-minimisations  :  1328
 total energy-change (2. order) :-0.6004533E+02  (-0.8154063E+02)
 number of electron      63.9999993 magnetization       7.0882627
 augmentation part       10.4890965 magnetization       7.6659879

 Broyden mixing:
  rms(total) = 0.65704E+01    rms(broyden)= 0.65703E+01
  rms(prec ) = 0.68210E+01
  weight for this iteration     100.00

 eigenvalues of (default mixing * dielectric matrix)
  average eigenvalue GAMMA=   0.3766
  0.3766

 Free energy of the ion-electron system (eV)
  ---------------------------------------------------
  alpha Z        PSCENC =        29.60393205
  Ewald energy   TEWEN  =      8065.03639907
  -Hartree energ DENC   =    -11498.70385240
  -exchange      EXHF   =         0.00000000
  -V(xc)+E(xc)   XCENC  =       113.40762429
  PAW double counting   =      2067.34778813    -2112.23566324
  entropy T*S    EENTRO =         0.00000000
  eigenvalues    EBANDS =      -810.34740742
  atomic energy  EATOM  =      4042.75775707
  Solvation  Ediel_sol  =         0.00000000
  ---------------------------------------------------
  free energy    TOTEN  =      -103.13342247 eV

  energy without entropy =     -103.13342247  energy(sigma->0) =     -103.13342247


--------------------------------------------------------------------------------------------------------




--------------------------------------- Iteration      1(   7)  ---------------------------------------


    POTLOK:  cpu time   52.2520: real time   52.5430
    SETDIJ:  cpu time    0.0440: real time    0.0438
     EDDAV:  cpu time   25.5680: real time   25.8742
 BZINTS: Fermi energy: -4.783075; 64.000000 electrons
         Band energy:-632.090690;  BLOECHL correction: -0.023847
       DOS:  cpu time    0.0080: real time    0.0098
    CHARGE:  cpu time    2.0000: real time    2.1562
    MIXING:  cpu time    0.0440: real time    0.0441
    --------------------------------------------
      LOOP:  cpu time   79.9160: real time   80.6711

 eigenvalue-minimisations  :  1120
 total energy-change (2. order) : 0.5124495E+02  (-0.7244474E+01)
 number of electron      63.9999993 magnetization       6.8950898
 augmentation part        9.5787924 magnetization       5.7727230

 Broyden mixing:
  rms(total) = 0.34687E+01    rms(broyden)= 0.34687E+01
  rms(prec ) = 0.36764E+01
  weight for this iteration     100.00

 eigenvalues of (default mixing * dielectric matrix)
  average eigenvalue GAMMA=   0.4613
  0.4613  0.4613

 Free energy of the ion-electron system (eV)
  ---------------------------------------------------
  alpha Z        PSCENC =        29.60393205
  Ewald energy   TEWEN  =      8065.03639907
  -Hartree energ DENC   =    -11593.57149677
  -exchange      EXHF   =         0.00000000
  -V(xc)+E(xc)   XCENC  =       110.01266998
  PAW double counting   =      2241.33428792    -2314.97133446
  entropy T*S    EENTRO =         0.00000000
  eigenvalues    EBANDS =      -632.09069036
  atomic energy  EATOM  =      4042.75775707
  Solvation  Ediel_sol  =         0.00000000
  ---------------------------------------------------
  free energy    TOTEN  =       -51.88847551 eV

  energy without entropy =      -51.88847551  energy(sigma->0) =      -51.88847551


--------------------------------------------------------------------------------------------------------




--------------------------------------- Iteration      1(   8)  ---------------------------------------


    POTLOK:  cpu time   52.3720: real time   52.5633
    SETDIJ:  cpu time    0.0400: real time    0.0425
     EDDAV:  cpu time   29.3080: real time   29.3595
 BZINTS: Fermi energy: -4.863072; 64.000000 electrons
         Band energy:-565.676017;  BLOECHL correction: -0.013625
       DOS:  cpu time    0.0040: real time    0.0070
    CHARGE:  cpu time    2.1200: real time    2.1217
    MIXING:  cpu time    0.0400: real time    0.0417
    --------------------------------------------
      LOOP:  cpu time   83.8840: real time   84.1357

 eigenvalue-minimisations  :  1280
 total energy-change (2. order) : 0.1414422E+02  (-0.1670274E+01)
 number of electron      63.9999993 magnetization       6.6544893
 augmentation part        8.4801160 magnetization       5.0009936

 Broyden mixing:
  rms(total) = 0.22849E+01    rms(broyden)= 0.22848E+01
  rms(prec ) = 0.24129E+01
  weight for this iteration     100.00

 eigenvalues of (default mixing * dielectric matrix)
  average eigenvalue GAMMA=   0.5661
  0.6262  0.6262  0.4460

 Free energy of the ion-electron system (eV)
  ---------------------------------------------------
  alpha Z        PSCENC =        29.60393205
  Ewald energy   TEWEN  =      8065.03639907
  -Hartree energ DENC   =    -11638.45149340
  -exchange      EXHF   =         0.00000000
  -V(xc)+E(xc)   XCENC  =       110.84701962
  PAW double counting   =      2317.05916219    -2398.92101338
  entropy T*S    EENTRO =         0.00000000
  eigenvalues    EBANDS =      -565.67601662
  atomic energy  EATOM  =      4042.75775707
  Solvation  Ediel_sol  =         0.00000000
  ---------------------------------------------------
  free energy    TOTEN  =       -37.74425340 eV

  energy without entropy =      -37.74425340  energy(sigma->0) =      -37.74425340


--------------------------------------------------------------------------------------------------------




--------------------------------------- Iteration      1(   9)  ---------------------------------------


    POTLOK:  cpu time   51.0000: real time   51.1840
    SETDIJ:  cpu time    0.0440: real time    0.0426
     EDDAV:  cpu time   29.1360: real time   29.4704
 BZINTS: Fermi energy: -4.633339; 64.000000 electrons
         Band energy:-526.961859;  BLOECHL correction: -0.008108
       DOS:  cpu time    0.0040: real time    0.0071
    CHARGE:  cpu time    2.0720: real time    2.1359
    MIXING:  cpu time    0.0440: real time    0.0418
    --------------------------------------------
      LOOP:  cpu time   82.3000: real time   82.8818

 eigenvalue-minimisations  :  1312
 total energy-change (2. order) : 0.3688382E+01  (-0.6203765E+00)
 number of electron      63.9999991 magnetization       6.7249602
 augmentation part        6.2026991 magnetization       6.0774465

 Broyden mixing:
  rms(total) = 0.65802E+00    rms(broyden)= 0.65681E+00
  rms(prec ) = 0.66206E+00
  weight for this iteration     100.00

 eigenvalues of (default mixing * dielectric matrix)
  average eigenvalue GAMMA=   0.4463
  0.6307  0.6307  0.4570  0.0669

 Free energy of the ion-electron system (eV)
  ---------------------------------------------------
  alpha Z        PSCENC =        29.60393205
  Ewald energy   TEWEN  =      8065.03639907
  -Hartree energ DENC   =    -11672.25695842
  -exchange      EXHF   =         0.00000000
  -V(xc)+E(xc)   XCENC  =       111.48605736
  PAW double counting   =      2378.02761937    -2461.74881877
  entropy T*S    EENTRO =         0.00000000
  eigenvalues    EBANDS =      -526.96185904
  atomic energy  EATOM  =      4042.75775707
  Solvation  Ediel_sol  =         0.00000000
  ---------------------------------------------------
  free energy    TOTEN  =       -34.05587132 eV

  energy without entropy =      -34.05587132  energy(sigma->0) =      -34.05587132


--------------------------------------------------------------------------------------------------------




--------------------------------------- Iteration      1(  10)  ---------------------------------------


    POTLOK:  cpu time   50.6880: real time   50.9185
    SETDIJ:  cpu time    0.0440: real time    0.0424
     EDDAV:  cpu time   26.4240: real time   26.5434
 BZINTS: Fermi energy: -4.504424; 64.012479 electrons
         Band energy:-523.991718;  BLOECHL correction: -0.012452
       DOS:  cpu time    0.0080: real time    0.0088
    CHARGE:  cpu time    2.1400: real time    2.1443
    MIXING:  cpu time    0.0400: real time    0.0433
    --------------------------------------------
      LOOP:  cpu time   79.3440: real time   79.7007

 eigenvalue-minimisations  :  1168
 total energy-change (2. order) :-0.2517942E+00  (-0.2125524E+00)
 number of electron      64.0124778 magnetization       6.7376517
 augmentation part        5.4872548 magnetization       4.8599343

 Broyden mixing:
  rms(total) = 0.73203E+00    rms(broyden)= 0.73153E+00
  rms(prec ) = 0.77286E+00
  weight for this iteration     100.00

 eigenvalues of (default mixing * dielectric matrix)
  average eigenvalue GAMMA=   0.3972
  0.6243  0.6243  0.4570  0.1583  0.1222

 Free energy of the ion-electron system (eV)
  ---------------------------------------------------
  alpha Z        PSCENC =        29.60393205
  Ewald energy   TEWEN  =      8065.03639907
  -Hartree energ DENC   =    -11675.29233247
  -exchange      EXHF   =         0.00000000
  -V(xc)+E(xc)   XCENC  =       111.61930055
  PAW double counting   =      2383.26338758    -2467.30439091
  entropy T*S    EENTRO =         0.00000000
  eigenvalues    EBANDS =      -523.99171845
  atomic energy  EATOM  =      4042.75775707
  Solvation  Ediel_sol  =         0.00000000
  ---------------------------------------------------
  free energy    TOTEN  =       -34.30766551 eV

  energy without entropy =      -34.30766551  energy(sigma->0) =      -34.30766551


--------------------------------------------------------------------------------------------------------




--------------------------------------- Iteration      1(  11)  ---------------------------------------


    POTLOK:  cpu time   50.9200: real time   51.0072
    SETDIJ:  cpu time    0.0400: real time    0.0416
     EDDAV:  cpu time   30.3360: real time   30.4591
 BZINTS: Fermi energy: -4.616801; 64.000000 electrons
         Band energy:-526.308259;  BLOECHL correction: -0.009218
       DOS:  cpu time    0.0040: real time    0.0064
    CHARGE:  cpu time    2.1240: real time    2.1380
    MIXING:  cpu time    0.0440: real time    0.0434
    --------------------------------------------
      LOOP:  cpu time   83.4680: real time   83.6958

 eigenvalue-minimisations  :  1360
 total energy-change (2. order) : 0.1400737E+00  (-0.1522727E-01)
 number of electron      63.9999992 magnetization       6.8353420
 augmentation part        5.7902237 magnetization       5.1471440

 Broyden mixing:
  rms(total) = 0.50208E+00    rms(broyden)= 0.50208E+00
  rms(prec ) = 0.52547E+00
  weight for this iteration     100.00

 eigenvalues of (default mixing * dielectric matrix)
  average eigenvalue GAMMA=   0.4594
  0.4024  0.6215  0.6215  0.4290  0.3408  0.3408

 Free energy of the ion-electron system (eV)
  ---------------------------------------------------
  alpha Z        PSCENC =        29.60393205
  Ewald energy   TEWEN  =      8065.03639907
  -Hartree energ DENC   =    -11673.09810599
  -exchange      EXHF   =         0.00000000
  -V(xc)+E(xc)   XCENC  =       111.60570908
  PAW double counting   =      2379.40156151    -2463.16658524
  entropy T*S    EENTRO =         0.00000000
  eigenvalues    EBANDS =      -526.30825936
  atomic energy  EATOM  =      4042.75775707
  Solvation  Ediel_sol  =         0.00000000
  ---------------------------------------------------
  free energy    TOTEN  =       -34.16759181 eV

  energy without entropy =      -34.16759181  energy(sigma->0) =      -34.16759181


--------------------------------------------------------------------------------------------------------




--------------------------------------- Iteration      1(  12)  ---------------------------------------


    POTLOK:  cpu time   50.6880: real time   50.9443
    SETDIJ:  cpu time    0.0440: real time    0.0427
     EDDAV:  cpu time   31.6680: real time   31.7250
 BZINTS: Fermi energy: -4.638553; 64.000000 electrons
         Band energy:-526.043875;  BLOECHL correction: -0.006512
       DOS:  cpu time    0.0040: real time    0.0068
    CHARGE:  cpu time    2.1160: real time    2.1190
    MIXING:  cpu time    0.0480: real time    0.0449
    --------------------------------------------
      LOOP:  cpu time   84.5680: real time   84.8827

 eigenvalue-minimisations  :  1424
 total energy-change (2. order) : 0.6126275E-01  (-0.1379213E-01)
 number of electron      63.9999992 magnetization       7.2623603
 augmentation part        5.9471868 magnetization       5.5268020

 Broyden mixing:
  rms(total) = 0.45986E+00    rms(broyden)= 0.45986E+00
  rms(prec ) = 0.47226E+00
  weight for this iteration     100.00

 eigenvalues of (default mixing * dielectric matrix)
  average eigenvalue GAMMA=   0.6541
  0.7452  0.8036  0.8036  0.6328  0.6328  0.5974  0.3638

 Free energy of the ion-electron system (eV)
  ---------------------------------------------------
  alpha Z        PSCENC =        29.60393205
  Ewald energy   TEWEN  =      8065.03639907
  -Hartree energ DENC   =    -11673.39420610
  -exchange      EXHF   =         0.00000000
  -V(xc)+E(xc)   XCENC  =       111.73453085
  PAW double counting   =      2379.06037571    -2462.86124293
  entropy T*S    EENTRO =         0.00000000
  eigenvalues    EBANDS =      -526.04387477
  atomic energy  EATOM  =      4042.75775707
  Solvation  Ediel_sol  =         0.00000000
  ---------------------------------------------------
  free energy    TOTEN  =       -34.10632906 eV

  energy without entropy =      -34.10632906  energy(sigma->0) =      -34.10632906


--------------------------------------------------------------------------------------------------------




--------------------------------------- Iteration      1(  13)  ---------------------------------------


    POTLOK:  cpu time   50.8480: real time   51.0000
    SETDIJ:  cpu time    0.0400: real time    0.0421
     EDDAV:  cpu time   31.2240: real time   31.3816
 BZINTS: Fermi energy: -4.340824; 64.000000 electrons
         Band energy:-520.771557;  BLOECHL correction:  0.000000
       DOS:  cpu time    0.0040: real time    0.0035
    CHARGE:  cpu time    2.1120: real time    2.1190
    MIXING:  cpu time    0.0480: real time    0.0446
    --------------------------------------------
      LOOP:  cpu time   84.2760: real time   84.5909

 eigenvalue-minimisations  :  1408
 total energy-change (2. order) : 0.6139433E-01  (-0.7043216E-01)
 number of electron      63.9999994 magnetization       7.2674526
 augmentation part        5.1387210 magnetization       4.4866107

 Broyden mixing:
  rms(total) = 0.88945E+00    rms(broyden)= 0.88802E+00
  rms(prec ) = 0.95614E+00
  weight for this iteration     100.00

 eigenvalues of (default mixing * dielectric matrix)
  average eigenvalue GAMMA=   0.5836
  0.7337  0.8139  0.8139  0.6242  0.6242  0.6119  0.3674  0.0795

 Free energy of the ion-electron system (eV)
  ---------------------------------------------------
  alpha Z        PSCENC =        29.60393205
  Ewald energy   TEWEN  =      8065.03639907
  -Hartree energ DENC   =    -11678.60103139
  -exchange      EXHF   =         0.00000000
  -V(xc)+E(xc)   XCENC  =       112.46024018
  PAW double counting   =      2384.24714725    -2468.77782156
  entropy T*S    EENTRO =         0.00000000
  eigenvalues    EBANDS =      -520.77155740
  atomic energy  EATOM  =      4042.75775707
  Solvation  Ediel_sol  =         0.00000000
  ---------------------------------------------------
  free energy    TOTEN  =       -34.04493473 eV

  energy without entropy =      -34.04493473  energy(sigma->0) =      -34.04493473


--------------------------------------------------------------------------------------------------------




--------------------------------------- Iteration      1(  14)  ---------------------------------------


    POTLOK:  cpu time   50.9200: real time   51.0136
    SETDIJ:  cpu time    0.0440: real time    0.0413
     EDDAV:  cpu time   23.0840: real time   23.2121
 BZINTS: Fermi energy: -4.347714; 64.000000 electrons
         Band energy:-520.943330;  BLOECHL correction: -0.000646
       DOS:  cpu time    0.0040: real time    0.0053
    CHARGE:  cpu time    2.0800: real time    2.0915
    MIXING:  cpu time    0.0600: real time    0.0615
    --------------------------------------------
      LOOP:  cpu time   76.1920: real time   76.4253

 eigenvalue-minimisations  :  1008
 total energy-change (2. order) :-0.9338258E-01  (-0.8498691E-02)
 number of electron      63.9999994 magnetization       7.2649805
 augmentation part        5.1277833 magnetization       4.4998716

 Broyden mixing:
  rms(total) = 0.89628E+00    rms(broyden)= 0.89623E+00
  rms(prec ) = 0.96493E+00
  weight for this iteration     100.00

 eigenvalues of (default mixing * dielectric matrix)
  average eigenvalue GAMMA=   0.5645
  0.6625  0.8208  0.8208  0.6220  0.6220  0.6110  0.3663  0.3955  0.1594

 Free energy of the ion-electron system (eV)
  ---------------------------------------------------
  alpha Z        PSCENC =        29.60393205
  Ewald energy   TEWEN  =      8065.03639907
  -Hartree energ DENC   =    -11678.51001895
  -exchange      EXHF   =         0.00000000
  -V(xc)+E(xc)   XCENC  =       112.43215905
  PAW double counting   =      2384.05401942    -2468.56923494
  entropy T*S    EENTRO =         0.00000000
  eigenvalues    EBANDS =      -520.94333007
  atomic energy  EATOM  =      4042.75775707
  Solvation  Ediel_sol  =         0.00000000
  ---------------------------------------------------
  free energy    TOTEN  =       -34.13831731 eV

  energy without entropy =      -34.13831731  energy(sigma->0) =      -34.13831731


--------------------------------------------------------------------------------------------------------




--------------------------------------- Iteration      1(  15)  ---------------------------------------


    POTLOK:  cpu time   50.8520: real time   51.0335
    SETDIJ:  cpu time    0.0440: real time    0.0426
     EDDAV:  cpu time   23.1480: real time   23.5090
 BZINTS: Fermi energy: -4.341198; 64.000000 electrons
         Band energy:-520.866818;  BLOECHL correction: -0.000311
       DOS:  cpu time    0.0040: real time    0.0053
    CHARGE:  cpu time    2.0920: real time    2.0987
    MIXING:  cpu time    0.0440: real time    0.0465
    --------------------------------------------
      LOOP:  cpu time   76.1840: real time   76.7356

 eigenvalue-minimisations  :  1024
 total energy-change (2. order) :-0.9399799E-02  (-0.8972278E-03)
 number of electron      63.9999994 magnetization       7.4796694
 augmentation part        5.1190854 magnetization       4.7161256

 Broyden mixing:
  rms(total) = 0.90444E+00    rms(broyden)= 0.90444E+00
  rms(prec ) = 0.97368E+00
  weight for this iteration     100.00

 eigenvalues of (default mixing * dielectric matrix)
  average eigenvalue GAMMA=   0.5798
  0.8068  0.8247  0.8247  0.6112  0.6112  0.6258  0.4428  0.4428  0.3724  0.2350

 Free energy of the ion-electron system (eV)
  ---------------------------------------------------
  alpha Z        PSCENC =        29.60393205
  Ewald energy   TEWEN  =      8065.03639907
  -Hartree energ DENC   =    -11678.60315407
  -exchange      EXHF   =         0.00000000
  -V(xc)+E(xc)   XCENC  =       112.42859743
  PAW double counting   =      2384.23366555    -2468.73809632
  entropy T*S    EENTRO =         0.00000000
  eigenvalues    EBANDS =      -520.86681788
  atomic energy  EATOM  =      4042.75775707
  Solvation  Ediel_sol  =         0.00000000
  ---------------------------------------------------
  free energy    TOTEN  =       -34.14771711 eV

  energy without entropy =      -34.14771711  energy(sigma->0) =      -34.14771711


--------------------------------------------------------------------------------------------------------




--------------------------------------- Iteration      1(  16)  ---------------------------------------


    POTLOK:  cpu time   50.7920: real time   51.1319
    SETDIJ:  cpu time    0.0440: real time    0.0466
     EDDAV:  cpu time   27.2680: real time   27.4295
 BZINTS: Fermi energy: -4.468023; 64.000000 electrons
         Band energy:-524.337658;  BLOECHL correction: -0.016714
       DOS:  cpu time    0.0080: real time    0.0074
    CHARGE:  cpu time    2.1160: real time    2.1320
    MIXING:  cpu time    0.0440: real time    0.0475
    --------------------------------------------
      LOOP:  cpu time   80.2720: real time   80.7950

 eigenvalue-minimisations  :  1216
 total energy-change (2. order) : 0.3385732E+00  (-0.2452714E-01)
 number of electron      63.9999993 magnetization       8.1454541
 augmentation part        5.6784832 magnetization       5.5879452

 Broyden mixing:
  rms(total) = 0.62099E+00    rms(broyden)= 0.62079E+00
  rms(prec ) = 0.64505E+00
  weight for this iteration     100.00

 eigenvalues of (default mixing * dielectric matrix)
  average eigenvalue GAMMA=   0.6909
  0.9243  1.1617  1.1617  0.7291  0.7291  0.5873  0.5873  0.6052  0.3772  0.3683
  0.3683

 Free energy of the ion-electron system (eV)
  ---------------------------------------------------
  alpha Z        PSCENC =        29.60393205
  Ewald energy   TEWEN  =      8065.03639907
  -Hartree energ DENC   =    -11674.62380425
  -exchange      EXHF   =         0.00000000
  -V(xc)+E(xc)   XCENC  =       112.57735045
  PAW double counting   =      2375.07156417    -2459.89468482
  entropy T*S    EENTRO =         0.00000000
  eigenvalues    EBANDS =      -524.33765765
  atomic energy  EATOM  =      4042.75775707
  Solvation  Ediel_sol  =         0.00000000
  ---------------------------------------------------
  free energy    TOTEN  =       -33.80914391 eV

  energy without entropy =      -33.80914391  energy(sigma->0) =      -33.80914391


--------------------------------------------------------------------------------------------------------




--------------------------------------- Iteration      1(  17)  ---------------------------------------


    POTLOK:  cpu time   51.0440: real time   51.0674
    SETDIJ:  cpu time    0.0400: real time    0.0429
     EDDAV:  cpu time   27.0760: real time   27.2596
 BZINTS: Fermi energy: -4.431983; 64.000000 electrons
         Band energy:-524.880748;  BLOECHL correction:  0.000000
       DOS:  cpu time    0.0000: real time    0.0029
    CHARGE:  cpu time    2.0880: real time    2.0899
    MIXING:  cpu time    0.0480: real time    0.0489
    --------------------------------------------
      LOOP:  cpu time   80.2960: real time   80.5116

 eigenvalue-minimisations  :  1216
 total energy-change (2. order) : 0.4574112E+00  (-0.2767776E-01)
 number of electron      63.9999994 magnetization       7.6091107
 augmentation part        5.5723602 magnetization       4.5580821

 Broyden mixing:
  rms(total) = 0.76058E+00    rms(broyden)= 0.76037E+00
  rms(prec ) = 0.78740E+00
  weight for this iteration     100.00

 eigenvalues of (default mixing * dielectric matrix)
  average eigenvalue GAMMA=   0.6335
  0.9185  1.1078  1.1078  0.7217  0.7217  0.5935  0.5935  0.5965  0.3772  0.3834
  0.3834  0.0964

 Free energy of the ion-electron system (eV)
  ---------------------------------------------------
  alpha Z        PSCENC =        29.60393205
  Ewald energy   TEWEN  =      8065.03639907
  -Hartree energ DENC   =    -11672.79174922
  -exchange      EXHF   =         0.00000000
  -V(xc)+E(xc)   XCENC  =       113.24026581
  PAW double counting   =      2366.03852559    -2452.35611542
  entropy T*S    EENTRO =         0.00000000
  eigenvalues    EBANDS =      -524.88074765
  atomic energy  EATOM  =      4042.75775707
  Solvation  Ediel_sol  =         0.00000000
  ---------------------------------------------------
  free energy    TOTEN  =       -33.35173270 eV

  energy without entropy =      -33.35173270  energy(sigma->0) =      -33.35173270


--------------------------------------------------------------------------------------------------------




--------------------------------------- Iteration      1(  18)  ---------------------------------------


    POTLOK:  cpu time   50.8080: real time   51.0810
    SETDIJ:  cpu time    0.0440: real time    0.0446
     EDDAV:  cpu time   23.6240: real time   23.7736
 BZINTS: Fermi energy: -4.367326; 64.000000 electrons
         Band energy:-521.979537;  BLOECHL correction:  0.000000
       DOS:  cpu time    0.0000: real time    0.0036
    CHARGE:  cpu time    2.0840: real time    2.0924
    MIXING:  cpu time    0.0480: real time    0.0493
    --------------------------------------------
      LOOP:  cpu time   76.6080: real time   77.0446

 eigenvalue-minimisations  :  1040
 total energy-change (2. order) :-0.4790716E+00  (-0.1788376E-01)
 number of electron      63.9999994 magnetization       5.6128806
 augmentation part        5.3089742 magnetization       2.7613587

 Broyden mixing:
  rms(total) = 0.76898E+00    rms(broyden)= 0.76898E+00
  rms(prec ) = 0.82398E+00
  weight for this iteration     100.00

 eigenvalues of (default mixing * dielectric matrix)
  average eigenvalue GAMMA=   0.9166
  3.0220  0.9806  1.4097  1.4097  0.7562  0.7562  0.6342  0.6342  0.6675  0.4820
  0.4820  0.3757  0.3057

 Free energy of the ion-electron system (eV)
  ---------------------------------------------------
  alpha Z        PSCENC =        29.60393205
  Ewald energy   TEWEN  =      8065.03639907
  -Hartree energ DENC   =    -11676.75903470
  -exchange      EXHF   =         0.00000000
  -V(xc)+E(xc)   XCENC  =       112.90584615
  PAW double counting   =      2376.06950219    -2461.46566922
  entropy T*S    EENTRO =         0.00000000
  eigenvalues    EBANDS =      -521.97953691
  atomic energy  EATOM  =      4042.75775707
  Solvation  Ediel_sol  =         0.00000000
  ---------------------------------------------------
  free energy    TOTEN  =       -33.83080431 eV

  energy without entropy =      -33.83080431  energy(sigma->0) =      -33.83080431


--------------------------------------------------------------------------------------------------------




--------------------------------------- Iteration      1(  19)  ---------------------------------------


    POTLOK:  cpu time   50.8480: real time   51.1114
    SETDIJ:  cpu time    0.0440: real time    0.0428
     EDDAV:  cpu time   26.1200: real time   26.3401
 BZINTS: Fermi energy: -4.081544; 64.000000 electrons
         Band energy:-514.654960;  BLOECHL correction:  0.000000
       DOS:  cpu time    0.0040: real time    0.0032
    CHARGE:  cpu time    2.0880: real time    2.0961
    MIXING:  cpu time    0.0520: real time    0.0505
    --------------------------------------------
      LOOP:  cpu time   79.1560: real time   79.6440

 eigenvalue-minimisations  :  1168
 total energy-change (2. order) :-0.1331324E+01  (-0.1472934E+00)
 number of electron      63.9999993 magnetization       5.1227043
 augmentation part        4.4765015 magnetization       2.8431151

 Broyden mixing:
  rms(total) = 0.15284E+01    rms(broyden)= 0.15283E+01
  rms(prec ) = 0.16382E+01
  weight for this iteration     100.00

 eigenvalues of (default mixing * dielectric matrix)
  average eigenvalue GAMMA=   0.9201
  3.5036  0.9780  1.4177  1.4177  0.8129  0.8129  0.6219  0.6219  0.6669  0.4735
  0.4735  0.3844  0.3844  0.3126

 Free energy of the ion-electron system (eV)
  ---------------------------------------------------
  alpha Z        PSCENC =        29.60393205
  Ewald energy   TEWEN  =      8065.03639907
  -Hartree energ DENC   =    -11686.84081664
  -exchange      EXHF   =         0.00000000
  -V(xc)+E(xc)   XCENC  =       112.37470861
  PAW double counting   =      2399.86982461    -2483.30897359
  entropy T*S    EENTRO =         0.00000000
  eigenvalues    EBANDS =      -514.65495952
  atomic energy  EATOM  =      4042.75775707
  Solvation  Ediel_sol  =         0.00000000
  ---------------------------------------------------
  free energy    TOTEN  =       -35.16212834 eV

  energy without entropy =      -35.16212834  energy(sigma->0) =      -35.16212834


--------------------------------------------------------------------------------------------------------




--------------------------------------- Iteration      1(  20)  ---------------------------------------


    POTLOK:  cpu time   51.1000: real time   51.1704
    SETDIJ:  cpu time    0.0440: real time    0.0432
     EDDAV:  cpu time   27.7520: real time   27.8530
 BZINTS: Fermi energy: -4.060093; 64.000000 electrons
         Band energy:-513.888273;  BLOECHL correction: -0.000810
       DOS:  cpu time    0.0040: real time    0.0070
    CHARGE:  cpu time    2.1200: real time    2.1199
    MIXING:  cpu time    0.0520: real time    0.0528
    --------------------------------------------
      LOOP:  cpu time   81.0720: real time   81.2463

 eigenvalue-minimisations  :  1232
 total energy-change (2. order) :-0.2159530E+00  (-0.3686187E-01)
 number of electron      63.9999993 magnetization       4.7222711
 augmentation part        4.3330199 magnetization       2.4758727

 Broyden mixing:
  rms(total) = 0.16869E+01    rms(broyden)= 0.16869E+01
  rms(prec ) = 0.18018E+01
  weight for this iteration     100.00

 eigenvalues of (default mixing * dielectric matrix)
  average eigenvalue GAMMA=   0.9774
  4.0612  0.9763  1.4281  1.4281  0.8997  0.8997  0.8440  0.6272  0.6272  0.4744
  0.4744  0.6186  0.6186  0.3762  0.3073

 Free energy of the ion-electron system (eV)
  ---------------------------------------------------
  alpha Z        PSCENC =        29.60393205
  Ewald energy   TEWEN  =      8065.03639907
  -Hartree energ DENC   =    -11687.48758698
  -exchange      EXHF   =         0.00000000
  -V(xc)+E(xc)   XCENC  =       112.26497148
  PAW double counting   =      2401.87635207    -2485.54163338
  entropy T*S    EENTRO =         0.00000000
  eigenvalues    EBANDS =      -513.88827268
  atomic energy  EATOM  =      4042.75775707
  Solvation  Ediel_sol  =         0.00000000
  ---------------------------------------------------
  free energy    TOTEN  =       -35.37808129 eV

  energy without entropy =      -35.37808129  energy(sigma->0) =      -35.37808129


--------------------------------------------------------------------------------------------------------




--------------------------------------- Iteration      1(  21)  ---------------------------------------


    POTLOK:  cpu time   51.0480: real time   51.1261
    SETDIJ:  cpu time    0.0400: real time    0.0432
     EDDAV:  cpu time   26.5880: real time   26.8349
 BZINTS: Fermi energy: -4.488615; 64.000000 electrons
         Band energy:-520.649681;  BLOECHL correction: -0.006470
       DOS:  cpu time    0.0040: real time    0.0068
    CHARGE:  cpu time    2.0880: real time    2.1724
    MIXING:  cpu time    0.0520: real time    0.0532
    --------------------------------------------
      LOOP:  cpu time   79.8200: real time   80.2366

 eigenvalue-minimisations  :  1184
 total energy-change (2. order) : 0.8997622E+00  (-0.6110395E-01)
 number of electron      63.9999992 magnetization       3.7368645
 augmentation part        5.3896949 magnetization       2.3989249

 Broyden mixing:
  rms(total) = 0.64406E+00    rms(broyden)= 0.64281E+00
  rms(prec ) = 0.69757E+00
  weight for this iteration     100.00

 eigenvalues of (default mixing * dielectric matrix)
  average eigenvalue GAMMA=   1.0141
  4.6123  0.9757  1.3934  1.3934  1.0745  1.0745  0.8277  0.7065  0.7065  0.6320
  0.6320  0.4759  0.4759  0.5617  0.3761  0.3078

 Free energy of the ion-electron system (eV)
  ---------------------------------------------------
  alpha Z        PSCENC =        29.60393205
  Ewald energy   TEWEN  =      8065.03639907
  -Hartree energ DENC   =    -11679.36180878
  -exchange      EXHF   =         0.00000000
  -V(xc)+E(xc)   XCENC  =       111.98213644
  PAW double counting   =      2387.59566384    -2471.44271797
  entropy T*S    EENTRO =         0.00000000
  eigenvalues    EBANDS =      -520.64968083
  atomic energy  EATOM  =      4042.75775707
  Solvation  Ediel_sol  =         0.00000000
  ---------------------------------------------------
  free energy    TOTEN  =       -34.47831911 eV

  energy without entropy =      -34.47831911  energy(sigma->0) =      -34.47831911


--------------------------------------------------------------------------------------------------------




--------------------------------------- Iteration      1(  22)  ---------------------------------------


    POTLOK:  cpu time   50.6920: real time   51.0878
    SETDIJ:  cpu time    0.0400: real time    0.0429
     EDDAV:  cpu time   27.9000: real time   28.0656
 BZINTS: Fermi energy: -4.594534; 64.000000 electrons
         Band energy:-526.914206;  BLOECHL correction: -0.008629
       DOS:  cpu time    0.0080: real time    0.0054
    CHARGE:  cpu time    2.1560: real time    2.1597
    MIXING:  cpu time    0.0520: real time    0.0547
    --------------------------------------------
      LOOP:  cpu time   80.8480: real time   81.4161

 eigenvalue-minimisations  :  1248
 total energy-change (2. order) :-0.3719071E-02  (-0.6772287E-01)
 number of electron      63.9999991 magnetization       3.3913817
 augmentation part        6.2350492 magnetization       2.9891812

 Broyden mixing:
  rms(total) = 0.45487E+00    rms(broyden)= 0.45415E+00
  rms(prec ) = 0.45558E+00
  weight for this iteration     100.00

 eigenvalues of (default mixing * dielectric matrix)
  average eigenvalue GAMMA=   1.0584
  5.0724  2.3147  0.9755  1.2336  1.2336  0.9070  0.7609  0.7609  0.6356  0.6356
  0.4749  0.4749  0.7438  0.5428  0.5428  0.3763  0.3076

 Free energy of the ion-electron system (eV)
  ---------------------------------------------------
  alpha Z        PSCENC =        29.60393205
  Ewald energy   TEWEN  =      8065.03639907
  -Hartree energ DENC   =    -11672.89809460
  -exchange      EXHF   =         0.00000000
  -V(xc)+E(xc)   XCENC  =       111.66206752
  PAW double counting   =      2376.66937722    -2460.39927030
  entropy T*S    EENTRO =         0.00000000
  eigenvalues    EBANDS =      -526.91420620
  atomic energy  EATOM  =      4042.75775707
  Solvation  Ediel_sol  =         0.00000000
  ---------------------------------------------------
  free energy    TOTEN  =       -34.48203818 eV

  energy without entropy =      -34.48203818  energy(sigma->0) =      -34.48203818


--------------------------------------------------------------------------------------------------------




--------------------------------------- Iteration      1(  23)  ---------------------------------------


    POTLOK:  cpu time   50.7800: real time   50.9936
    SETDIJ:  cpu time    0.0400: real time    0.0428
     EDDAV:  cpu time   28.1800: real time   28.4248
 BZINTS: Fermi energy: -4.560818; 64.000000 electrons
         Band energy:-524.911823;  BLOECHL correction: -0.008532
       DOS:  cpu time    0.0040: real time    0.0073
    CHARGE:  cpu time    2.1320: real time    2.1322
    MIXING:  cpu time    0.0600: real time    0.0573
    --------------------------------------------
      LOOP:  cpu time   81.1960: real time   81.6581

 eigenvalue-minimisations  :  1264
 total energy-change (2. order) :-0.8124194E-01  (-0.8758483E-02)
 number of electron      63.9999991 magnetization       2.9118195
 augmentation part        6.0566310 magnetization       2.5954870

 Broyden mixing:
  rms(total) = 0.36891E+00    rms(broyden)= 0.36880E+00
  rms(prec ) = 0.37338E+00
  weight for this iteration     100.00

 eigenvalues of (default mixing * dielectric matrix)
  average eigenvalue GAMMA=   1.0904
  5.2478  0.9754  1.9225  1.9225  1.3334  1.3334  0.4743  0.4743  0.6352  0.6352
  0.7062  0.7062  0.7600  0.6738  0.6738  0.3762  0.4685  0.3077

 Free energy of the ion-electron system (eV)
  ---------------------------------------------------
  alpha Z        PSCENC =        29.60393205
  Ewald energy   TEWEN  =      8065.03639907
  -Hartree energ DENC   =    -11675.28888228
  -exchange      EXHF   =         0.00000000
  -V(xc)+E(xc)   XCENC  =       111.65572751
  PAW double counting   =      2381.36256010    -2464.77895023
  entropy T*S    EENTRO =         0.00000000
  eigenvalues    EBANDS =      -524.91182340
  atomic energy  EATOM  =      4042.75775707
  Solvation  Ediel_sol  =         0.00000000
  ---------------------------------------------------
  free energy    TOTEN  =       -34.56328012 eV

  energy without entropy =      -34.56328012  energy(sigma->0) =      -34.56328012


--------------------------------------------------------------------------------------------------------




--------------------------------------- Iteration      1(  24)  ---------------------------------------


    POTLOK:  cpu time   51.0360: real time   51.3485
    SETDIJ:  cpu time    0.0400: real time    0.0421
     EDDAV:  cpu time   25.0800: real time   25.5395
 BZINTS: Fermi energy: -4.561306; 64.000000 electrons
         Band energy:-526.346187;  BLOECHL correction: -0.008734
       DOS:  cpu time    0.0040: real time    0.0072
    CHARGE:  cpu time    2.1200: real time    2.1231
    MIXING:  cpu time    0.0560: real time    0.0591
    --------------------------------------------
      LOOP:  cpu time   78.3360: real time   79.1196

 eigenvalue-minimisations  :  1120
 total energy-change (2. order) :-0.2569723E-01  (-0.4039033E-02)
 number of electron      63.9999991 magnetization       2.1462485
 augmentation part        6.1446260 magnetization       1.7878031

 Broyden mixing:
  rms(total) = 0.27455E+00    rms(broyden)= 0.27455E+00
  rms(prec ) = 0.27684E+00
  weight for this iteration     100.00

 eigenvalues of (default mixing * dielectric matrix)
  average eigenvalue GAMMA=   1.1845
[...]
     34      -2.5104      0.00000
     35      -2.3004      0.00000
     36      -1.2065      0.00000
     37      -0.8958      0.00000
     38       0.8553      0.00000
     39       1.1691      0.00000
     40       1.3294      0.00000
     41       1.5877      0.00000
     42       2.0798      0.00000
     43       2.0814      0.00000
     44       2.3439      0.00000
     45       2.6344      0.00000
     46       2.7454      0.00000
     47       3.2692      0.00000
     48       3.3652      0.00000

 k-point     5 :      -0.4000    0.2000    0.0000
  band No.  band energies     occupation 
      1     -16.8687      1.00000
      2     -16.6669      1.00000
      3     -16.2003      1.00000
      4     -16.0764      1.00000
      5     -15.8767      1.00000
      6     -15.6828      1.00000
      7     -11.6729      1.00000
      8     -10.3958      1.00000
      9      -8.5615      1.00000
     10      -8.0448      1.00000
     11      -7.9803      1.00000
     12      -7.4734      1.00000
     13      -7.1538      1.00000
     14      -7.1278      1.00000
     15      -6.8985      1.00000
     16      -6.6760      1.00000
     17      -6.4867      1.00000
     18      -6.4369      1.00000
     19      -6.1537      1.00000
     20      -6.1302      1.00000
     21      -5.9164      1.00000
     22      -5.3308      1.00000
     23      -5.1479      1.00000
     24      -5.0067      1.00000
     25      -4.9608      1.00000
     26      -4.6747      1.00000
     27      -4.6263      1.00000
     28      -4.4682      1.00000
     29      -4.4358      1.00000
     30      -4.3853      1.00000
     31      -3.8435      1.00000
     32      -2.9901      1.00000
     33      -2.8379      0.00000
     34      -2.6683      0.00000
     35      -2.2844      0.00000
     36      -1.7172      0.00000
     37      -0.8939      0.00000
     38       0.6368      0.00000
     39       0.6411      0.00000
     40       1.2866      0.00000
     41       1.3016      0.00000
     42       1.4572      0.00000
     43       2.7006      0.00000
     44       2.7557      0.00000
     45       2.7593      0.00000
     46       2.9287      0.00000
     47       3.3045      0.00000
     48       3.6217      0.00000


--------------------------------------------------------------------------------------------------------


 soft charge-density along one line, spin component           1
         0         1         2         3         4         5         6         7         8         9
 total charge-density along one line

 soft charge-density along one line, spin component           2
         0         1         2         3         4         5         6         7         8         9
 total charge-density along one line

 pseudopotential strength for first ion, spin component:           1
-11.039  -0.069  -0.000  -0.000  -0.000   1.585   0.030   0.000
 -0.069 -11.112   0.000  -0.000  -0.000   0.030   1.616  -0.000
 -0.000   0.000 -10.989   0.000   0.000   0.000  -0.000   1.564
 -0.000  -0.000   0.000 -11.112   0.069   0.000   0.000  -0.000
 -0.000  -0.000   0.000   0.069 -11.039   0.000   0.000  -0.000
  1.585   0.030   0.000   0.000   0.000   0.657  -0.013  -0.000
  0.030   1.616  -0.000   0.000   0.000  -0.013   0.644   0.000
  0.000  -0.000   1.564  -0.000  -0.000  -0.000   0.000   0.667
  0.000   0.000  -0.000   1.616  -0.030  -0.000  -0.000   0.000
  0.000   0.000  -0.000  -0.030   1.585  -0.000  -0.000   0.000
  0.000  -0.000   0.002  -0.000   0.000   0.000  -0.000  -0.000
 -0.000   0.000  -0.000   0.000  -0.000   0.000  -0.000   0.000
 -0.000   0.000   0.000  -0.000   0.000   0.000  -0.000  -0.000
 -0.000  -0.000   0.000  -0.000  -0.000  -0.000   0.000  -0.000
  0.000  -0.000   0.000   0.000  -0.000   0.001  -0.000  -0.000
  0.000  -0.000  -0.000   0.000  -0.001  -0.000   0.000   0.000
  0.000   0.000  -0.000   0.000   0.000  -0.000  -0.000   0.000
 -0.001   0.000  -0.000  -0.000   0.000   0.000  -0.000   0.000
 pseudopotential strength for first ion, spin component:           2
-11.003  -0.055  -0.000  -0.000  -0.000   1.570   0.024   0.000
 -0.055 -11.058   0.000  -0.000  -0.000   0.024   1.593  -0.000
 -0.000   0.000 -10.961   0.000   0.000   0.000  -0.000   1.551
 -0.000  -0.000   0.000 -11.058   0.055   0.000   0.000  -0.000
 -0.000  -0.000   0.000   0.055 -11.003   0.000   0.000  -0.000
  1.570   0.024   0.000   0.000   0.000   0.664  -0.011  -0.000
  0.024   1.593  -0.000   0.000   0.000  -0.011   0.654   0.000
  0.000  -0.000   1.551  -0.000  -0.000  -0.000   0.000   0.673
  0.000   0.000  -0.000   1.593  -0.024  -0.000  -0.000   0.000
  0.000   0.000  -0.000  -0.024   1.570  -0.000  -0.000   0.000
  0.000  -0.000   0.001  -0.000   0.000   0.000  -0.000   0.000
 -0.000   0.000  -0.000   0.000  -0.000   0.000  -0.000   0.000
 -0.000   0.000   0.000  -0.000  -0.000   0.000  -0.000  -0.000
 -0.000  -0.000   0.000  -0.000  -0.000  -0.000   0.000  -0.000
 -0.000  -0.000   0.000   0.000  -0.000   0.001  -0.000  -0.000
  0.000  -0.000  -0.000   0.000  -0.001  -0.000   0.000   0.000
  0.000   0.000  -0.000   0.000   0.000  -0.000  -0.000   0.000
 -0.001   0.000  -0.000  -0.000   0.000   0.000  -0.000   0.000
 total augmentation occupancy for first ion, spin component:           1
  1.801  -0.170   0.000  -0.000  -0.000   0.017   0.115  -0.000   0.000  -0.000  -0.000  -0.000  -0.000  -0.000   0.004  -0.000
 -0.170   1.648  -0.000  -0.000  -0.000   0.115   0.125   0.000  -0.000   0.000  -0.000  -0.000  -0.000  -0.000   0.005   0.000
  0.000  -0.000   1.936  -0.000  -0.000  -0.000   0.000  -0.084   0.000   0.000  -0.014  -0.010  -0.000  -0.000   0.000   0.000
 -0.000  -0.000  -0.000   1.648   0.170   0.000   0.000   0.000   0.125  -0.115  -0.000   0.000  -0.005   0.000  -0.000   0.000
 -0.000  -0.000  -0.000   0.170   1.801   0.000   0.000   0.000  -0.115   0.017   0.000   0.000   0.004   0.000   0.000  -0.002
  0.017   0.115  -0.000   0.000   0.000   0.099   0.062   0.000   0.000  -0.000   0.000  -0.000   0.000  -0.000   0.027  -0.000
  0.115   0.125   0.000   0.000   0.000   0.062   0.171   0.000  -0.000   0.000  -0.000  -0.000  -0.000   0.000  -0.003   0.000
 -0.000   0.000  -0.084   0.000   0.000   0.000   0.000   0.084   0.000  -0.000   0.028  -0.015  -0.000  -0.000   0.000   0.000
  0.000  -0.000   0.000   0.125  -0.115   0.000  -0.000   0.000   0.171  -0.062  -0.000   0.000   0.003   0.000  -0.000  -0.000
 -0.000   0.000   0.000  -0.115   0.017  -0.000   0.000  -0.000  -0.062   0.099  -0.000   0.000   0.027   0.000  -0.000  -0.004
 -0.000  -0.000  -0.014  -0.000   0.000   0.000   0.000   0.028  -0.000  -0.000   1.045  -0.324   0.000  -0.000   0.000  -0.000
 -0.000  -0.000  -0.010   0.000   0.000  -0.000   0.000  -0.015  -0.000   0.000  -0.324   0.175  -0.000   0.000  -0.000   0.000
 -0.000  -0.000  -0.000  -0.005   0.004   0.000  -0.000  -0.000   0.003   0.027  -0.000  -0.000   0.215  -0.000  -0.000  -0.017
 -0.000   0.000  -0.000  -0.000   0.000  -0.000  -0.000  -0.000   0.000   0.000  -0.000   0.000  -0.000   0.225  -0.000   0.000
  0.004   0.005   0.000  -0.000   0.000   0.027  -0.003   0.000  -0.000  -0.000   0.000  -0.000  -0.000  -0.000   0.215   0.000
 -0.000   0.000   0.000   0.000  -0.002  -0.000   0.000   0.000  -0.000  -0.004  -0.000  -0.000  -0.017   0.000   0.000   0.002
  0.000   0.000   0.000  -0.000  -0.000   0.000  -0.000   0.000  -0.000  -0.000   0.000  -0.000   0.000  -0.020   0.000  -0.000
 -0.002  -0.000  -0.000   0.000   0.000  -0.004   0.000  -0.000   0.000   0.000   0.000   0.000  -0.000   0.000  -0.017  -0.000
 total augmentation occupancy for first ion, spin component:           2
  0.003   0.007   0.000   0.000  -0.000  -0.004  -0.004  -0.000   0.000  -0.000   0.000   0.000   0.000   0.000  -0.000   0.000
  0.007   0.014   0.000  -0.000   0.000  -0.004  -0.010  -0.000  -0.000  -0.000   0.000   0.000   0.000   0.000  -0.000   0.000
  0.000   0.000   0.000   0.000  -0.000  -0.000  -0.000  -0.002  -0.000   0.000   0.000   0.000   0.000   0.000  -0.000   0.000
  0.000  -0.000   0.000   0.014  -0.007  -0.000   0.000  -0.000  -0.010   0.004   0.000   0.000   0.000  -0.000   0.000  -0.000
 -0.000   0.000  -0.000  -0.007   0.003   0.000   0.000   0.000   0.004  -0.004  -0.000  -0.000  -0.000  -0.000  -0.000  -0.000
 -0.004  -0.004  -0.000  -0.000   0.000   0.001   0.002   0.000  -0.000  -0.000  -0.000  -0.000   0.000  -0.000   0.000   0.000
 -0.004  -0.010  -0.000   0.000   0.000   0.002   0.004   0.000  -0.000  -0.000  -0.000   0.000  -0.000  -0.000   0.000  -0.000
 -0.000  -0.000  -0.002  -0.000   0.000   0.000   0.000   0.001   0.000  -0.000  -0.000  -0.000  -0.000  -0.000   0.000  -0.000
  0.000  -0.000  -0.000  -0.010   0.004  -0.000  -0.000   0.000   0.004  -0.002  -0.000   0.000  -0.000  -0.000  -0.000   0.000
 -0.000  -0.000   0.000   0.004  -0.004  -0.000  -0.000  -0.000  -0.002   0.001   0.000   0.000   0.000   0.000  -0.000   0.000
  0.000  -0.000   0.000   0.000  -0.000  -0.000  -0.000  -0.000  -0.000   0.000   0.000   0.002   0.000   0.000   0.000  -0.000
  0.000   0.000   0.000   0.000  -0.000  -0.000  -0.000  -0.000  -0.000   0.000   0.002  -0.001   0.000   0.000  -0.000  -0.000
  0.000   0.000   0.000   0.000  -0.000   0.000  -0.000  -0.000  -0.000   0.000   0.000   0.000  -0.000   0.000   0.000   0.000
  0.000   0.000   0.000  -0.000  -0.000  -0.000  -0.000  -0.000   0.000   0.000   0.000   0.000  -0.000   0.000   0.000  -0.000
 -0.000  -0.000  -0.000   0.000  -0.000   0.000   0.000   0.000  -0.000  -0.000   0.000  -0.000   0.000  -0.000  -0.000  -0.000
  0.000   0.000   0.000  -0.000  -0.000   0.000  -0.000  -0.000   0.000   0.000   0.000  -0.000   0.000  -0.000  -0.000  -0.000
  0.000  -0.000   0.000   0.000  -0.000  -0.000  -0.000  -0.000   0.000   0.000   0.000   0.000  -0.000   0.000  -0.000   0.000
 -0.000   0.000  -0.000   0.000  -0.000   0.000  -0.000   0.000  -0.000  -0.000  -0.000   0.000   0.000  -0.000   0.000   0.000


------------------------ aborting loop because EDIFF is reached ----------------------------------------





 total charge     

# of ion       s       p       d       tot
------------------------------------------
    1        0.409   0.504   8.322   9.236
    2        0.409   0.504   8.322   9.236
    3        1.139   1.159   0.119   2.417
    4        1.139   1.159   0.119   2.417
    5        1.383   2.250   0.000   3.633
    6        1.382   2.309   0.000   3.691
    7        1.380   2.258   0.000   3.638
    8        1.383   2.250   0.000   3.633
    9        1.382   2.309   0.000   3.691
   10        1.380   2.258   0.000   3.638
--------------------------------------------------
tot         11.387  16.961  16.884  45.231



 magnetization (x)

# of ion       s       p       d       tot
------------------------------------------
    1       -0.000  -0.000   0.048   0.048
    2       -0.000  -0.000   0.048   0.048
    3       -0.000  -0.001   0.000  -0.001
    4       -0.000  -0.001   0.000  -0.001
    5        0.001   0.005   0.000   0.006
    6        0.000   0.003   0.000   0.003
    7        0.001   0.005   0.000   0.006
    8        0.001   0.005   0.000   0.006
    9        0.000   0.003   0.000   0.003
   10        0.001   0.005   0.000   0.006
--------------------------------------------------
tot          0.003   0.023   0.097   0.124

    CHARGE:  cpu time    2.1520: real time    2.1560
    FORLOC:  cpu time    0.0480: real time    0.0595
    FORNL :  cpu time    6.5240: real time    6.6019
    STRESS:  cpu time   19.6640: real time   19.8439
    FORCOR:  cpu time   51.6080: real time   51.7314
    FORHAR:  cpu time    0.3240: real time    0.3285
    MIXING:  cpu time    0.0440: real time    0.0414
    OFIELD:  cpu time    0.0000: real time    0.0001

  FORCE on cell =-STRESS in cart. coord.  units (eV):
  Direction    XX          YY          ZZ          XY          YZ          ZX
  --------------------------------------------------------------------------------------
  Alpha Z    39.68188    39.68188    39.68188
  Ewald   14813.49160 14813.48947-17053.85838    -0.00275    -0.00058    -0.00104
  Hartree 15553.18460 15553.18585-14896.30467    -0.00071     0.00006     0.00009
  E(xc)    -268.41314  -268.41321  -267.94968     0.00007     0.00000     0.00001
  Local  -31238.07836-31238.07877 31042.27192     0.00301     0.00034     0.00064
  n-local   409.97394   411.76812   413.04655     0.99932     1.05156     0.90299
  augment     3.45255     3.45246    -0.12730     0.00021     0.00016    -0.00004
  Kinetic   690.61369   680.94380   723.13741    -5.23468    -1.46221    -1.35218
  Fock        0.00000     0.00000     0.00000     0.00000     0.00000     0.00000
  -------------------------------------------------------------------------------------
  Total      -0.03182    -0.03182    -0.10228    -0.00001     0.00000     0.00000
  in kB      -0.07054    -0.07054    -0.22671    -0.00001     0.00000     0.00000
  external pressure =       -0.12 kB  Pullay stress =        0.00 kB


 VOLUME and BASIS-vectors are now :
 -----------------------------------------------------------------------------
  energy-cutoff  :      520.00
  volume of cell :      722.78
      direct lattice vectors                 reciprocal lattice vectors
     5.960882472  0.000000101 -0.000000000     0.167760397 -0.096856501  0.000000000
     2.980440856  5.162275486 -0.000000000    -0.000000003  0.193713027  0.000000000
    -0.000000000 -0.000000000 23.488500042     0.000000000  0.000000000  0.042574026

  length of vectors
     5.960882472  5.960882140 23.488500042     0.193713016  0.193713027  0.042574026


 FORCES acting on ions
    electron-ion (+dipol)            ewald-force                    non-local-force                 convergence-correction
 -----------------------------------------------------------------------------------------------
   -.191E-03 -.125E-03 -.451E+00   0.872E-03 0.523E-03 0.458E+00   0.139E-16 0.175E-20 -.601E-02   0.165E-06 -.275E-06 -.255E-02
   0.191E-03 0.125E-03 0.451E+00   -.872E-03 -.523E-03 -.458E+00   -.347E-17 -.175E-20 0.601E-02   -.165E-06 0.275E-06 0.255E-02
   -.844E-05 -.521E-04 0.291E+03   -.203E-03 -.114E-03 -.288E+03   -.621E-17 0.111E-16 -.253E+01   0.143E-06 0.629E-07 -.124E-01
   0.844E-05 0.521E-04 -.291E+03   0.203E-03 0.114E-03 0.288E+03   0.621E-17 -.181E-16 0.253E+01   -.143E-06 -.629E-07 0.124E-01
   -.403E+02 -.353E-01 -.585E+03   0.369E+02 0.332E-01 0.589E+03   0.337E+01 0.384E-02 -.385E+01   0.457E-02 -.139E-03 0.251E-01
   0.201E+02 0.349E+02 -.585E+03   -.184E+02 -.320E+02 0.589E+03   -.168E+01 -.292E+01 -.385E+01   -.241E-02 -.389E-02 0.251E-01
   0.202E+02 -.348E+02 -.585E+03   -.185E+02 0.319E+02 0.589E+03   -.169E+01 0.292E+01 -.385E+01   -.217E-02 0.403E-02 0.251E-01
   0.403E+02 0.353E-01 0.585E+03   -.369E+02 -.332E-01 -.589E+03   -.337E+01 -.384E-02 0.385E+01   -.457E-02 0.139E-03 -.251E-01
   -.201E+02 -.349E+02 0.585E+03   0.184E+02 0.320E+02 -.589E+03   0.168E+01 0.292E+01 0.385E+01   0.241E-02 0.389E-02 -.251E-01
   -.202E+02 0.348E+02 0.585E+03   0.185E+02 -.319E+02 -.589E+03   0.169E+01 -.292E+01 0.385E+01   0.217E-02 -.403E-02 -.251E-01
 -----------------------------------------------------------------------------------------------
   -.442E-09 -.185E-09 -.648E-10   -.142E-13 0.213E-13 0.000E+00   -.222E-15 -.444E-15 -.444E-15   -.781E-12 0.845E-12 0.446E-11


 POSITION                                       TOTAL-FORCE (eV/Angst)
 -----------------------------------------------------------------------------------
      2.98044      1.72076     11.74474         0.000000      0.000000     -0.001335
      5.96089      3.44152     11.74376         0.000000      0.000000      0.001335
     -0.00000     -0.00000     10.52792         0.000000      0.000000     -0.022881
     -0.00000     -0.00000     12.96058         0.000000      0.000000      0.022881
      3.68152     -0.00050     13.19294        -0.005170      0.002496     -0.029616
      1.13925      1.97424     13.19294         0.004747      0.003229     -0.029616
      4.12057      3.18854     13.19294         0.000423     -0.005725     -0.029616
      2.27936      0.00050     10.29556         0.005170     -0.002496      0.029616
      1.84119      3.18803     10.29556        -0.004747     -0.003229      0.029616
      4.82076      1.97373     10.29556        -0.000423      0.005725      0.029616
 -----------------------------------------------------------------------------------
    total drift:                               -0.000000     -0.000000     -0.000000


--------------------------------------------------------------------------------------------------------



  FREE ENERGIE OF THE ION-ELECTRON SYSTEM (eV)
  ---------------------------------------------------
  free  energy   TOTEN  =       -41.27063637 eV

  energy  without entropy=      -41.27063637  energy(sigma->0) =      -41.27063637

 d Force = 0.2359652E-03[-0.754E-04, 0.547E-03]  d Energy = 0.8684187E-04 0.149E-03
 d Force = 0.2751231E+01[ 0.275E+01, 0.275E+01]  d Ewald  = 0.4823194E+01-0.207E+01


--------------------------------------------------------------------------------------------------------


    POTLOK:  cpu time   51.7480: real time   51.9763


--------------------------------------------------------------------------------------------------------




--------------------------------------------------------------------------------------------------------


  
 reached required accuracy - stopping structural energy minimisation
     LOOP+:  cpu time  514.5880: real time  517.2621
    4ORBIT:  cpu time    0.0000: real time    0.0000



 total charge     

# of ion       s       p       d       tot
------------------------------------------
    1        0.409   0.504   8.322   9.236
    2        0.409   0.504   8.322   9.236
    3        1.139   1.159   0.119   2.417
    4        1.139   1.159   0.119   2.417
    5        1.383   2.250   0.000   3.633
    6        1.382   2.309   0.000   3.691
    7        1.380   2.258   0.000   3.638
    8        1.383   2.250   0.000   3.633
    9        1.382   2.309   0.000   3.691
   10        1.380   2.258   0.000   3.638
--------------------------------------------------
tot         11.387  16.961  16.884  45.231



 magnetization (x)

# of ion       s       p       d       tot
------------------------------------------
    1       -0.000  -0.000   0.048   0.048
    2       -0.000  -0.000   0.048   0.048
    3       -0.000  -0.001   0.000  -0.001
    4       -0.000  -0.001   0.000  -0.001
    5        0.001   0.005   0.000   0.006
    6        0.000   0.003   0.000   0.003
    7        0.001   0.005   0.000   0.006
    8        0.001   0.005   0.000   0.006
    9        0.000   0.003   0.000   0.003
   10        0.001   0.005   0.000   0.006
--------------------------------------------------
tot          0.003   0.023   0.097   0.124

 BZINTS: Fermi energy: -2.850992; 64.000000 electrons
         Band energy:-522.050353;  BLOECHL correction: -0.009178

 total amount of memory used by VASP MPI-rank0   128871. kBytes
=======================================================================

   base      :      30000. kBytes
   nonlr-proj:       8576. kBytes
   fftplans  :      11247. kBytes
   grid      :      66142. kBytes
   one-center:        311. kBytes
   wavefun   :      12595. kBytes

  
  
 General timing and accounting informations for this job:
 ========================================================
  
                  Total CPU time used (sec):    16924.045
                            User time (sec):    16555.752
                          System time (sec):      368.292
                         Elapsed time (sec):    17018.608
  
                   Maximum memory used (kb):      383140.
                   Average memory used (kb):           0.
  
                          Minor page faults:     16432596
                          Major page faults:            7
                 Voluntary context switches:         1060
