PROCAR lm decomposed
# of k-points:    5         # of bands:   48         # of ions:   10

 k-point     1 :    0.00000000 0.00000000 0.00000000     weight = 0.04000000

band     1 # energy  -17.81292252 # occ.  1.00000000

ion      s     py     pz     px    dxy    dyz    dz2    dxz  x2-y2    tot
    1  0.024  0.000  0.000  0.000  0.000  0.000  0.000  0.000  0.000  0.024
    2  0.024  0.000  0.000  0.000  0.000  0.000  0.000  0.000  0.000  0.024
    3  0.057  0.000  0.000  0.000  0.000  0.000  0.000  0.000  0.000  0.058
    4  0.057  0.000  0.000  0.000  0.000  0.000  0.000  0.000  0.000  0.058
    5  0.080  0.000  0.001  0.000  0.000  0.000  0.000  0.000  0.000  0.081
    6  0.080  0.000  0.001  0.000  0.000  0.000  0.000  0.000  0.000  0.081
    7  0.080  0.000  0.001  0.000  0.000  0.000  0.000  0.000  0.000  0.081
    8  0.080  0.000  0.001  0.000  0.000  0.000  0.000  0.000  0.000  0.081
    9  0.080  0.000  0.001  0.000  0.000  0.000  0.000  0.000  0.000  0.081
   10  0.080  0.000  0.001  0.000  0.000  0.000  0.000  0.000  0.000  0.081
tot    0.641  0.001  0.006  0.001  0.000  0.000  0.001  0.000  0.000  0.651

band     2 # energy  -16.69605297 # occ.  1.00000000

ion      s     py     pz     px    dxy    dyz    dz2    dxz  x2-y2    tot
    1  0.000  0.000  0.010  0.000  0.000  0.000  0.000  0.000  0.000  0.010
    2  0.000  0.000  0.010  0.000  0.000  0.000  0.000  0.000  0.000  0.010
    3  0.042  0.000  0.001  0.000  0.000  0.000  0.001  0.000  0.000  0.044
    4  0.042  0.000  0.001  0.000  0.000  0.000  0.001  0.000  0.000  0.044
    5  0.095  0.000  0.000  0.001  0.000  0.000  0.000  0.000  0.000  0.096
    6  0.095  0.000  0.000  0.000  0.000  0.000  0.000  0.000  0.000  0.096
    7  0.095  0.000  0.000  0.000  0.000  0.000  0.000  0.000  0.000  0.096
    8  0.095  0.000  0.000  0.001  0.000  0.000  0.000  0.000  0.000  0.096
    9  0.095  0.000  0.000  0.000  0.000  0.000  0.000  0.000  0.000  0.096
   10  0.095  0.000  0.000  0.000  0.000  0.000  0.000  0.000  0.000  0.096
tot    0.654  0.002  0.022  0.002  0.000  0.000  0.003  0.000  0.000  0.683

band     3 # energy  -15.58223329 # occ.  1.00000000

ion      s     py     pz     px    dxy    dyz    dz2    dxz  x2-y2    tot
    1  0.000  0.010  0.000  0.001  0.000  0.000  0.000  0.002  0.002  0.015
    2  0.000  0.010  0.000  0.001  0.000  0.000  0.000  0.002  0.002  0.015
    3  0.000  0.001  0.000  0.009  0.000  0.000  0.000  0.000  0.002  0.012
    4  0.000  0.001  0.000  0.009  0.000  0.000  0.000  0.000  0.002  0.012
    5  0.202  0.000  0.001  0.000  0.000  0.000  0.000  0.000  0.000  0.203
    6  0.125  0.000  0.001  0.000  0.000  0.000  0.000  0.000  0.000  0.126
    7  0.009  0.000  0.000  0.000  0.000  0.000  0.000  0.000  0.000  0.009
    8  0.202  0.000  0.001  0.000  0.000  0.000  0.000  0.000  0.000  0.203
    9  0.125  0.000  0.001  0.000  0.000  0.000  0.000  0.000  0.000  0.126
   10  0.009  0.000  0.000  0.000  0.000  0.000  0.000  0.000  0.000  0.009
tot    0.672  0.022  0.004  0.021  0.001  0.000  0.000  0.003  0.008  0.731

band     4 # energy  -15.58219408 # occ.  1.00000000

ion      s     py     pz     px    dxy    dyz    dz2    dxz  x2-y2    tot
    1  0.000  0.001  0.000  0.010  0.002  0.002  0.000  0.000  0.000  0.015
    2  0.000  0.001  0.000  0.010  0.002  0.002  0.000  0.000  0.000  0.015
    3  0.000  0.009  0.000  0.001  0.002  0.000  0.000  0.000  0.000  0.012
    4  0.000  0.009  0.000  0.001  0.002  0.000  0.000  0.000  0.000  0.012
    5  0.022  0.000  0.000  0.000  0.000  0.000  0.000  0.000  0.000  0.022
    6  0.099  0.000  0.001  0.000  0.000  0.000  0.000  0.000  0.000  0.100
    7  0.215  0.000  0.001  0.000  0.000  0.000  0.000  0.000  0.000  0.216
    8  0.022  0.000  0.000  0.000  0.000  0.000  0.000  0.000  0.000  0.022
    9  0.099  0.000  0.001  0.000  0.000  0.000  0.000  0.000  0.000  0.100
   10  0.215  0.000  0.001  0.000  0.000  0.000  0.000  0.000  0.000  0.216
tot    0.672  0.021  0.004  0.022  0.008  0.003  0.000  0.000  0.001  0.731

band     5 # energy  -15.43832247 # occ.  1.00000000

ion      s     py     pz     px    dxy    dyz    dz2    dxz  x2-y2    tot
    1  0.000  0.000  0.000  0.002  0.003  0.009  0.000  0.000  0.000  0.014
    2  0.000  0.000  0.000  0.002  0.003  0.009  0.000  0.000  0.000  0.014
    3  0.000  0.000  0.000  0.015  0.000  0.000  0.000  0.000  0.002  0.017
    4  0.000  0.000  0.000  0.015  0.000  0.000  0.000  0.000  0.002  0.017
    5  0.218  0.000  0.001  0.002  0.000  0.000  0.000  0.000  0.000  0.221
    6  0.083  0.001  0.000  0.000  0.000  0.000  0.000  0.000  0.000  0.083
    7  0.032  0.000  0.000  0.000  0.000  0.000  0.000  0.000  0.000  0.033
    8  0.218  0.000  0.001  0.002  0.000  0.000  0.000  0.000  0.000  0.221
    9  0.083  0.001  0.000  0.000  0.000  0.000  0.000  0.000  0.000  0.083
   10  0.032  0.000  0.000  0.000  0.000  0.000  0.000  0.000  0.000  0.033
tot    0.666  0.002  0.002  0.038  0.006  0.018  0.000  0.000  0.004  0.737

band     6 # energy  -15.43827581 # occ.  1.00000000

ion      s     py     pz     px    dxy    dyz    dz2    dxz  x2-y2    tot
    1  0.000  0.002  0.000  0.000  0.000  0.000  0.000  0.009  0.003  0.014
    2  0.000  0.002  0.000  0.000  0.000  0.000  0.000  0.009  0.003  0.014
    3  0.000  0.015  0.000  0.000  0.002  0.000  0.000  0.000  0.000  0.017
    4  0.000  0.015  0.000  0.000  0.002  0.000  0.000  0.000  0.000  0.017
    5  0.004  0.000  0.000  0.000  0.000  0.000  0.000  0.000  0.000  0.004
    6  0.140  0.001  0.000  0.000  0.000  0.000  0.000  0.000  0.000  0.141
    7  0.190  0.001  0.000  0.000  0.000  0.000  0.000  0.000  0.000  0.192
    8  0.004  0.000  0.000  0.000  0.000  0.000  0.000  0.000  0.000  0.004
    9  0.140  0.001  0.000  0.000  0.000  0.000  0.000  0.000  0.000  0.141
   10  0.190  0.001  0.000  0.000  0.000  0.000  0.000  0.000  0.000  0.192
tot    0.666  0.038  0.002  0.002  0.004  0.000  0.000  0.018  0.006  0.737

band     7 # energy  -12.08121548 # occ.  1.00000000

ion      s     py     pz     px    dxy    dyz    dz2    dxz  x2-y2    tot
    1  0.018  0.000  0.000  0.000  0.000  0.000  0.001  0.000  0.000  0.019
    2  0.018  0.000  0.000  0.000  0.000  0.000  0.001  0.000  0.000  0.019
    3  0.228  0.000  0.010  0.000  0.000  0.000  0.001  0.000  0.000  0.239
    4  0.228  0.000  0.010  0.000  0.000  0.000  0.001  0.000  0.000  0.239
    5  0.015  0.000  0.000  0.016  0.000  0.000  0.000  0.000  0.000  0.031
    6  0.015  0.012  0.000  0.004  0.000  0.000  0.000  0.000  0.000  0.031
    7  0.015  0.012  0.000  0.004  0.000  0.000  0.000  0.000  0.000  0.031
    8  0.015  0.000  0.000  0.016  0.000  0.000  0.000  0.000  0.000  0.031
    9  0.015  0.012  0.000  0.004  0.000  0.000  0.000  0.000  0.000  0.031
   10  0.015  0.012  0.000  0.004  0.000  0.000  0.000  0.000  0.000  0.031
tot    0.583  0.047  0.019  0.047  0.000  0.000  0.004  0.000  0.000  0.700

band     8 # energy  -10.01026394 # occ.  1.00000000

ion      s     py     pz     px    dxy    dyz    dz2    dxz  x2-y2    tot
    1  0.000  0.000  0.010  0.000  0.000  0.000  0.000  0.000  0.000  0.010
    2  0.000  0.000  0.010  0.000  0.000  0.000  0.000  0.000  0.000  0.010
    3  0.215  0.000  0.008  0.000  0.000  0.000  0.001  0.000  0.000  0.224
    4  0.215  0.000  0.008  0.000  0.000  0.000  0.001  0.000  0.000  0.224
    5  0.012  0.000  0.000  0.027  0.000  0.000  0.000  0.000  0.000  0.039
    6  0.012  0.020  0.000  0.007  0.000  0.000  0.000  0.000  0.000  0.039
    7  0.012  0.020  0.000  0.007  0.000  0.000  0.000  0.000  0.000  0.039
    8  0.012  0.000  0.000  0.027  0.000  0.000  0.000  0.000  0.000  0.039
    9  0.012  0.020  0.000  0.007  0.000  0.000  0.000  0.000  0.000  0.039
   10  0.012  0.020  0.000  0.007  0.000  0.000  0.000  0.000  0.000  0.039
tot    0.501  0.081  0.036  0.081  0.000  0.000  0.003  0.000  0.000  0.702

band     9 # energy   -8.72843637 # occ.  1.00000000

ion      s     py     pz     px    dxy    dyz    dz2    dxz  x2-y2    tot
    1  0.093  0.000  0.000  0.000  0.000  0.000  0.020  0.000  0.000  0.113
    2  0.093  0.000  0.000  0.000  0.000  0.000  0.020  0.000  0.000  0.113
    3  0.000  0.000  0.000  0.000  0.000  0.000  0.000  0.000  0.000  0.000
    4  0.000  0.000  0.000  0.000  0.000  0.000  0.000  0.000  0.000  0.000
    5  0.000  0.057  0.000  0.000  0.000  0.000  0.000  0.000  0.000  0.057
    6  0.000  0.014  0.000  0.043  0.000  0.000  0.000  0.000  0.000  0.057
    7  0.000  0.014  0.000  0.043  0.000  0.000  0.000  0.000  0.000  0.057
    8  0.000  0.057  0.000  0.000  0.000  0.000  0.000  0.000  0.000  0.057
    9  0.000  0.014  0.000  0.043  0.000  0.000  0.000  0.000  0.000  0.057
   10  0.000  0.014  0.000  0.043  0.000  0.000  0.000  0.000  0.000  0.057
tot    0.186  0.172  0.000  0.172  0.000  0.000  0.040  0.000  0.000  0.570

band    10 # energy   -8.58742215 # occ.  1.00000000

ion      s     py     pz     px    dxy    dyz    dz2    dxz  x2-y2    tot
    1  0.000  0.003  0.000  0.003  0.002  0.025  0.000  0.028  0.002  0.061
    2  0.000  0.003  0.000  0.003  0.002  0.025  0.000  0.028  0.002  0.061
    3  0.000  0.029  0.000  0.025  0.000  0.000  0.000  0.000  0.000  0.055
    4  0.000  0.029  0.000  0.025  0.000  0.000  0.000  0.000  0.000  0.055
    5  0.003  0.012  0.001  0.036  0.000  0.000  0.000  0.000  0.000  0.052
    6  0.006  0.062  0.001  0.011  0.000  0.000  0.000  0.000  0.000  0.081
    7  0.001  0.000  0.000  0.027  0.000  0.000  0.000  0.000  0.000  0.028
    8  0.003  0.012  0.001  0.036  0.000  0.000  0.000  0.000  0.000  0.052
    9  0.006  0.062  0.001  0.011  0.000  0.000  0.000  0.000  0.000  0.081
   10  0.001  0.000  0.000  0.027  0.000  0.000  0.000  0.000  0.000  0.028
tot    0.020  0.213  0.004  0.204  0.003  0.049  0.000  0.056  0.004  0.552

band    11 # energy   -8.58739758 # occ.  1.00000000

ion      s     py     pz     px    dxy    dyz    dz2    dxz  x2-y2    tot
    1  0.000  0.003  0.000  0.003  0.002  0.028  0.000  0.025  0.002  0.061
    2  0.000  0.003  0.000  0.003  0.002  0.028  0.000  0.025  0.002  0.061
    3  0.000  0.025  0.000  0.029  0.000  0.000  0.000  0.000  0.000  0.055
    4  0.000  0.025  0.000  0.029  0.000  0.000  0.000  0.000  0.000  0.055
    5  0.004  0.011  0.001  0.040  0.000  0.000  0.000  0.000  0.000  0.055
    6  0.000  0.000  0.000  0.025  0.000  0.000  0.000  0.000  0.000  0.026
    7  0.006  0.063  0.001  0.009  0.000  0.000  0.000  0.000  0.000  0.079
    8  0.004  0.011  0.001  0.040  0.000  0.000  0.000  0.000  0.000  0.055
    9  0.000  0.000  0.000  0.025  0.000  0.000  0.000  0.000  0.000  0.026
   10  0.006  0.063  0.001  0.009  0.000  0.000  0.000  0.000  0.000  0.079
tot    0.020  0.204  0.004  0.213  0.004  0.056  0.000  0.049  0.003  0.552

band    12 # energy   -8.42613997 # occ.  1.00000000

ion      s     py     pz     px    dxy    dyz    dz2    dxz  x2-y2    tot
    1  0.041  0.000  0.000  0.000  0.000  0.000  0.027  0.000  0.000  0.068
    2  0.041  0.000  0.000  0.000  0.000  0.000  0.027  0.000  0.000  0.068
    3  0.000  0.000  0.038  0.000  0.000  0.000  0.001  0.000  0.000  0.038
    4  0.000  0.000  0.038  0.000  0.000  0.000  0.001  0.000  0.000  0.038
    5  0.005  0.000  0.044  0.003  0.000  0.000  0.000  0.000  0.000  0.052
    6  0.005  0.002  0.044  0.001  0.000  0.000  0.000  0.000  0.000  0.052
    7  0.005  0.002  0.044  0.001  0.000  0.000  0.000  0.000  0.000  0.052
    8  0.005  0.000  0.044  0.003  0.000  0.000  0.000  0.000  0.000  0.052
    9  0.005  0.002  0.044  0.001  0.000  0.000  0.000  0.000  0.000  0.052
   10  0.005  0.002  0.044  0.001  0.000  0.000  0.000  0.000  0.000  0.052
tot    0.113  0.008  0.341  0.008  0.000  0.000  0.055  0.000  0.000  0.524

band    13 # energy   -8.29042130 # occ.  1.00000000

ion      s     py     pz     px    dxy    dyz    dz2    dxz  x2-y2    tot
    1  0.000  0.017  0.000  0.002  0.002  0.002  0.000  0.018  0.013  0.054
    2  0.000  0.017  0.000  0.002  0.002  0.002  0.000  0.018  0.013  0.054
    3  0.000  0.005  0.000  0.041  0.000  0.000  0.000  0.001  0.000  0.048
    4  0.000  0.005  0.000  0.041  0.000  0.000  0.000  0.001  0.000  0.048
    5  0.000  0.002  0.010  0.074  0.000  0.000  0.000  0.000  0.000  0.087
    6  0.000  0.057  0.007  0.001  0.000  0.000  0.000  0.000  0.000  0.065
    7  0.000  0.014  0.000  0.010  0.000  0.000  0.000  0.000  0.000  0.024
    8  0.000  0.002  0.010  0.074  0.000  0.000  0.000  0.000  0.000  0.087
    9  0.000  0.057  0.007  0.001  0.000  0.000  0.000  0.000  0.000  0.065
   10  0.000  0.014  0.000  0.010  0.000  0.000  0.000  0.000  0.000  0.024
tot    0.000  0.192  0.035  0.256  0.003  0.005  0.000  0.037  0.026  0.553

band    14 # energy   -8.29039185 # occ.  1.00000000

ion      s     py     pz     px    dxy    dyz    dz2    dxz  x2-y2    tot
    1  0.000  0.002  0.000  0.017  0.013  0.018  0.000  0.002  0.002  0.054
    2  0.000  0.002  0.000  0.017  0.013  0.018  0.000  0.002  0.002  0.054
    3  0.000  0.041  0.000  0.005  0.000  0.001  0.000  0.000  0.000  0.048
    4  0.000  0.041  0.000  0.005  0.000  0.001  0.000  0.000  0.000  0.048
    5  0.000  0.019  0.001  0.010  0.000  0.000  0.000  0.000  0.000  0.030
    6  0.000  0.011  0.005  0.037  0.000  0.000  0.000  0.000  0.000  0.053
    7  0.000  0.054  0.011  0.027  0.000  0.000  0.000  0.000  0.000  0.093
    8  0.000  0.019  0.001  0.010  0.000  0.000  0.000  0.000  0.000  0.030
    9  0.000  0.011  0.005  0.037  0.000  0.000  0.000  0.000  0.000  0.053
   10  0.000  0.054  0.011  0.027  0.000  0.000  0.000  0.000  0.000  0.093
tot    0.000  0.256  0.035  0.192  0.026  0.037  0.000  0.005  0.003  0.553

band    15 # energy   -7.25577006 # occ.  1.00000000

ion      s     py     pz     px    dxy    dyz    dz2    dxz  x2-y2    tot
    1  0.000  0.000  0.049  0.000  0.000  0.000  0.000  0.000  0.000  0.049
    2  0.000  0.000  0.049  0.000  0.000  0.000  0.000  0.000  0.000  0.049
    3  0.000  0.000  0.000  0.000  0.000  0.000  0.000  0.000  0.000  0.000
    4  0.000  0.000  0.000  0.000  0.000  0.000  0.000  0.000  0.000  0.000
    5  0.000  0.073  0.000  0.000  0.000  0.000  0.000  0.000  0.000  0.073
    6  0.000  0.018  0.000  0.055  0.000  0.000  0.000  0.000  0.000  0.073
    7  0.000  0.018  0.000  0.055  0.000  0.000  0.000  0.000  0.000  0.073
    8  0.000  0.073  0.000  0.000  0.000  0.000  0.000  0.000  0.000  0.073
    9  0.000  0.018  0.000  0.055  0.000  0.000  0.000  0.000  0.000  0.073
   10  0.000  0.018  0.000  0.055  0.000  0.000  0.000  0.000  0.000  0.073
tot    0.000  0.219  0.098  0.219  0.000  0.000  0.000  0.000  0.000  0.535

band    16 # energy   -6.64977885 # occ.  1.00000000

ion      s     py     pz     px    dxy    dyz    dz2    dxz  x2-y2    tot
    1  0.000  0.001  0.000  0.000  0.000  0.000  0.000  0.153  0.131  0.286
    2  0.000  0.001  0.000  0.000  0.000  0.000  0.000  0.153  0.131  0.286
    3  0.000  0.000  0.000  0.000  0.000  0.000  0.000  0.000  0.001  0.002
    4  0.000  0.000  0.000  0.000  0.000  0.000  0.000  0.000  0.001  0.002
    5  0.002  0.000  0.030  0.003  0.000  0.000  0.000  0.000  0.000  0.035
    6  0.001  0.004  0.009  0.027  0.000  0.000  0.000  0.000  0.000  0.041
    7  0.000  0.005  0.006  0.029  0.000  0.000  0.000  0.000  0.000  0.041
    8  0.002  0.000  0.030  0.003  0.000  0.000  0.000  0.000  0.000  0.035
    9  0.001  0.004  0.009  0.027  0.000  0.000  0.000  0.000  0.000  0.041
   10  0.000  0.005  0.006  0.029  0.000  0.000  0.000  0.000  0.000  0.041
tot    0.005  0.019  0.091  0.120  0.001  0.001  0.000  0.307  0.264  0.808

band    17 # energy   -6.64976241 # occ.  1.00000000

ion      s     py     pz     px    dxy    dyz    dz2    dxz  x2-y2    tot
    1  0.000  0.000  0.000  0.001  0.131  0.153  0.000  0.000  0.000  0.286
    2  0.000  0.000  0.000  0.001  0.131  0.153  0.000  0.000  0.000  0.286
    3  0.000  0.000  0.000  0.000  0.001  0.000  0.000  0.000  0.000  0.002
    4  0.000  0.000  0.000  0.000  0.001  0.000  0.000  0.000  0.000  0.002
    5  0.000  0.043  0.000  0.000  0.000  0.000  0.000  0.000  0.000  0.043
    6  0.001  0.009  0.021  0.006  0.000  0.000  0.000  0.000  0.000  0.037
    7  0.001  0.008  0.024  0.003  0.000  0.000  0.000  0.000  0.000  0.037
    8  0.000  0.043  0.000  0.000  0.000  0.000  0.000  0.000  0.000  0.043
    9  0.001  0.009  0.021  0.006  0.000  0.000  0.000  0.000  0.000  0.037
   10  0.001  0.008  0.024  0.003  0.000  0.000  0.000  0.000  0.000  0.037
tot    0.005  0.120  0.091  0.019  0.264  0.307  0.000  0.001  0.001  0.808

band    18 # energy   -6.13541511 # occ.  1.00000000

ion      s     py     pz     px    dxy    dyz    dz2    dxz  x2-y2    tot
    1  0.000  0.000  0.000  0.001  0.112  0.082  0.000  0.027  0.037  0.258
    2  0.000  0.000  0.000  0.001  0.112  0.082  0.000  0.027  0.037  0.258
    3  0.000  0.000  0.000  0.000  0.000  0.000  0.000  0.002  0.000  0.002
    4  0.000  0.000  0.000  0.000  0.000  0.000  0.000  0.002  0.000  0.002
    5  0.004  0.001  0.057  0.000  0.000  0.000  0.000  0.000  0.000  0.062
    6  0.004  0.000  0.057  0.000  0.000  0.000  0.000  0.000  0.000  0.062
    7  0.000  0.001  0.000  0.002  0.000  0.000  0.000  0.000  0.000  0.003
    8  0.004  0.001  0.057  0.000  0.000  0.000  0.000  0.000  0.000  0.062
    9  0.004  0.000  0.057  0.000  0.000  0.000  0.000  0.000  0.000  0.062
   10  0.000  0.001  0.000  0.002  0.000  0.000  0.000  0.000  0.000  0.003
tot    0.018  0.004  0.228  0.007  0.224  0.164  0.000  0.056  0.074  0.775

band    19 # energy   -6.13540280 # occ.  1.00000000

ion      s     py     pz     px    dxy    dyz    dz2    dxz  x2-y2    tot
    1  0.000  0.001  0.000  0.000  0.037  0.027  0.000  0.082  0.112  0.258
    2  0.000  0.001  0.000  0.000  0.037  0.027  0.000  0.082  0.112  0.258
    3  0.000  0.000  0.000  0.000  0.000  0.002  0.000  0.000  0.000  0.002
    4  0.000  0.000  0.000  0.000  0.000  0.002  0.000  0.000  0.000  0.002
    5  0.001  0.002  0.019  0.000  0.000  0.000  0.000  0.000  0.000  0.022
    6  0.001  0.000  0.019  0.002  0.000  0.000  0.000  0.000  0.000  0.023
    7  0.006  0.000  0.076  0.000  0.000  0.000  0.000  0.000  0.000  0.082
    8  0.001  0.002  0.019  0.000  0.000  0.000  0.000  0.000  0.000  0.022
    9  0.001  0.000  0.019  0.002  0.000  0.000  0.000  0.000  0.000  0.023
   10  0.006  0.000  0.076  0.000  0.000  0.000  0.000  0.000  0.000  0.082
tot    0.018  0.007  0.228  0.004  0.074  0.056  0.000  0.164  0.224  0.775

band    20 # energy   -5.21225442 # occ.  1.00000000

ion      s     py     pz     px    dxy    dyz    dz2    dxz  x2-y2    tot
    1  0.001  0.000  0.000  0.000  0.000  0.000  0.367  0.000  0.000  0.368
    2  0.001  0.000  0.000  0.000  0.000  0.000  0.367  0.000  0.000  0.368
    3  0.004  0.000  0.037  0.000  0.000  0.000  0.002  0.000  0.000  0.043
    4  0.004  0.000  0.037  0.000  0.000  0.000  0.002  0.000  0.000  0.043
    5  0.001  0.000  0.000  0.006  0.000  0.000  0.000  0.000  0.000  0.007
    6  0.001  0.004  0.000  0.001  0.000  0.000  0.000  0.000  0.000  0.007
    7  0.001  0.004  0.000  0.001  0.000  0.000  0.000  0.000  0.000  0.007
    8  0.001  0.000  0.000  0.006  0.000  0.000  0.000  0.000  0.000  0.007
    9  0.001  0.004  0.000  0.001  0.000  0.000  0.000  0.000  0.000  0.007
   10  0.001  0.004  0.000  0.001  0.000  0.000  0.000  0.000  0.000  0.007
tot    0.017  0.018  0.074  0.018  0.000  0.000  0.738  0.000  0.000  0.864

band    21 # energy   -5.13006876 # occ.  1.00000000

ion      s     py     pz     px    dxy    dyz    dz2    dxz  x2-y2    tot
    1  0.000  0.000  0.010  0.000  0.000  0.000  0.000  0.000  0.000  0.010
    2  0.000  0.000  0.010  0.000  0.000  0.000  0.000  0.000  0.000  0.010
    3  0.001  0.000  0.010  0.000  0.000  0.000  0.002  0.000  0.000  0.014
    4  0.001  0.000  0.010  0.000  0.000  0.000  0.002  0.000  0.000  0.014
    5  0.000  0.000  0.078  0.000  0.000  0.000  0.000  0.000  0.000  0.078
    6  0.000  0.000  0.078  0.000  0.000  0.000  0.000  0.000  0.000  0.078
    7  0.000  0.000  0.078  0.000  0.000  0.000  0.000  0.000  0.000  0.078
    8  0.000  0.000  0.078  0.000  0.000  0.000  0.000  0.000  0.000  0.078
    9  0.000  0.000  0.078  0.000  0.000  0.000  0.000  0.000  0.000  0.078
   10  0.000  0.000  0.078  0.000  0.000  0.000  0.000  0.000  0.000  0.078
tot    0.005  0.001  0.507  0.001  0.000  0.000  0.004  0.000  0.000  0.519

band    22 # energy   -5.12776886 # occ.  1.00000000

ion      s     py     pz     px    dxy    dyz    dz2    dxz  x2-y2    tot
    1  0.000  0.007  0.000  0.001  0.002  0.014  0.000  0.084  0.013  0.121
    2  0.000  0.007  0.000  0.001  0.002  0.014  0.000  0.084  0.013  0.121
    3  0.000  0.003  0.000  0.019  0.000  0.000  0.000  0.000  0.002  0.024
    4  0.000  0.003  0.000  0.019  0.000  0.000  0.000  0.000  0.002  0.024
    5  0.004  0.001  0.070  0.033  0.000  0.000  0.000  0.000  0.000  0.108
    6  0.003  0.012  0.051  0.014  0.000  0.000  0.000  0.000  0.000  0.080
    7  0.000  0.000  0.002  0.006  0.000  0.000  0.000  0.000  0.000  0.008
    8  0.004  0.001  0.070  0.033  0.000  0.000  0.000  0.000  0.000  0.108
    9  0.003  0.012  0.051  0.014  0.000  0.000  0.000  0.000  0.000  0.080
   10  0.000  0.000  0.002  0.006  0.000  0.000  0.000  0.000  0.000  0.008
tot    0.015  0.046  0.245  0.146  0.005  0.027  0.000  0.168  0.030  0.682

band    23 # energy   -5.12774979 # occ.  1.00000000

ion      s     py     pz     px    dxy    dyz    dz2    dxz  x2-y2    tot
    1  0.000  0.001  0.000  0.007  0.013  0.084  0.000  0.014  0.002  0.121
    2  0.000  0.001  0.000  0.007  0.013  0.084  0.000  0.014  0.002  0.121
    3  0.000  0.019  0.000  0.003  0.002  0.000  0.000  0.000  0.000  0.024
    4  0.000  0.019  0.000  0.003  0.002  0.000  0.000  0.000  0.000  0.024
    5  0.001  0.005  0.012  0.005  0.000  0.000  0.000  0.000  0.000  0.023
    6  0.002  0.018  0.031  0.000  0.000  0.000  0.000  0.000  0.000  0.051
    7  0.005  0.030  0.080  0.008  0.000  0.000  0.000  0.000  0.000  0.122
    8  0.001  0.005  0.012  0.005  0.000  0.000  0.000  0.000  0.000  0.023
    9  0.002  0.018  0.031  0.000  0.000  0.000  0.000  0.000  0.000  0.051
   10  0.005  0.030  0.080  0.008  0.000  0.000  0.000  0.000  0.000  0.122
tot    0.015  0.146  0.245  0.046  0.030  0.168  0.000  0.027  0.005  0.682

band    24 # energy   -4.81717934 # occ.  1.00000000

ion      s     py     pz     px    dxy    dyz    dz2    dxz  x2-y2    tot
    1  0.000  0.003  0.000  0.007  0.160  0.080  0.000  0.036  0.072  0.358
    2  0.000  0.003  0.000  0.007  0.160  0.080  0.000  0.036  0.072  0.358
    3  0.000  0.000  0.000  0.000  0.001  0.000  0.000  0.000  0.000  0.002
    4  0.000  0.000  0.000  0.000  0.001  0.000  0.000  0.000  0.000  0.002
    5  0.000  0.004  0.010  0.000  0.000  0.000  0.000  0.000  0.000  0.015
    6  0.001  0.000  0.033  0.000  0.000  0.000  0.000  0.000  0.000  0.034
    7  0.000  0.002  0.007  0.003  0.000  0.000  0.000  0.000  0.000  0.012
    8  0.000  0.004  0.010  0.000  0.000  0.000  0.000  0.000  0.000  0.015
    9  0.001  0.000  0.033  0.000  0.000  0.000  0.000  0.000  0.000  0.034
   10  0.000  0.002  0.007  0.003  0.000  0.000  0.000  0.000  0.000  0.012
tot    0.002  0.019  0.101  0.021  0.320  0.162  0.000  0.073  0.144  0.842

band    25 # energy   -4.81717007 # occ.  1.00000000

ion      s     py     pz     px    dxy    dyz    dz2    dxz  x2-y2    tot
    1  0.000  0.007  0.000  0.003  0.072  0.036  0.000  0.080  0.160  0.358
    2  0.000  0.007  0.000  0.003  0.072  0.036  0.000  0.080  0.160  0.358
    3  0.000  0.000  0.000  0.000  0.000  0.000  0.000  0.000  0.001  0.002
    4  0.000  0.000  0.000  0.000  0.000  0.000  0.000  0.000  0.001  0.002
    5  0.000  0.002  0.023  0.000  0.000  0.000  0.000  0.000  0.000  0.026
    6  0.000  0.002  0.000  0.004  0.000  0.000  0.000  0.000  0.000  0.006
    7  0.001  0.000  0.027  0.001  0.000  0.000  0.000  0.000  0.000  0.029
    8  0.000  0.002  0.023  0.000  0.000  0.000  0.000  0.000  0.000  0.026
    9  0.000  0.002  0.000  0.004  0.000  0.000  0.000  0.000  0.000  0.006
   10  0.001  0.000  0.027  0.001  0.000  0.000  0.000  0.000  0.000  0.029
tot    0.002  0.021  0.101  0.019  0.144  0.073  0.000  0.162  0.320  0.842

band    26 # energy   -4.80025499 # occ.  1.00000000

ion      s     py     pz     px    dxy    dyz    dz2    dxz  x2-y2    tot
    1  0.011  0.000  0.000  0.000  0.000  0.000  0.454  0.000  0.000  0.465
    2  0.011  0.000  0.000  0.000  0.000  0.000  0.454  0.000  0.000  0.465
    3  0.000  0.000  0.000  0.000  0.000  0.000  0.000  0.000  0.000  0.000
    4  0.000  0.000  0.000  0.000  0.000  0.000  0.000  0.000  0.000  0.000
    5  0.000  0.002  0.000  0.000  0.000  0.000  0.000  0.000  0.000  0.002
    6  0.000  0.000  0.000  0.001  0.000  0.000  0.000  0.000  0.000  0.002
    7  0.000  0.000  0.000  0.001  0.000  0.000  0.000  0.000  0.000  0.002
    8  0.000  0.002  0.000  0.000  0.000  0.000  0.000  0.000  0.000  0.002
    9  0.000  0.000  0.000  0.001  0.000  0.000  0.000  0.000  0.000  0.002
   10  0.000  0.000  0.000  0.001  0.000  0.000  0.000  0.000  0.000  0.002
tot    0.022  0.006  0.000  0.006  0.000  0.000  0.908  0.000  0.000  0.942

band    27 # energy   -4.69794046 # occ.  1.00000000

ion      s     py     pz     px    dxy    dyz    dz2    dxz  x2-y2    tot
    1  0.000  0.000  0.000  0.001  0.186  0.109  0.000  0.047  0.079  0.423
    2  0.000  0.000  0.000  0.001  0.186  0.109  0.000  0.047  0.079  0.423
    3  0.000  0.002  0.000  0.005  0.000  0.000  0.000  0.000  0.000  0.007
    4  0.000  0.002  0.000  0.005  0.000  0.000  0.000  0.000  0.000  0.007
    5  0.001  0.002  0.007  0.002  0.000  0.000  0.000  0.000  0.000  0.012
    6  0.000  0.001  0.000  0.004  0.000  0.000  0.000  0.000  0.000  0.006
    7  0.001  0.004  0.008  0.000  0.000  0.000  0.000  0.000  0.000  0.013
    8  0.001  0.002  0.007  0.002  0.000  0.000  0.000  0.000  0.000  0.012
    9  0.000  0.001  0.000  0.004  0.000  0.000  0.000  0.000  0.000  0.006
   10  0.001  0.004  0.008  0.000  0.000  0.000  0.000  0.000  0.000  0.013
tot    0.005  0.018  0.030  0.026  0.373  0.218  0.000  0.093  0.159  0.923

band    28 # energy   -4.69793684 # occ.  1.00000000

ion      s     py     pz     px    dxy    dyz    dz2    dxz  x2-y2    tot
    1  0.000  0.001  0.000  0.000  0.079  0.047  0.000  0.109  0.186  0.423
    2  0.000  0.001  0.000  0.000  0.079  0.047  0.000  0.109  0.186  0.423
    3  0.000  0.005  0.000  0.002  0.000  0.000  0.000  0.000  0.000  0.007
    4  0.000  0.005  0.000  0.002  0.000  0.000  0.000  0.000  0.000  0.007
    5  0.001  0.004  0.003  0.001  0.000  0.000  0.000  0.000  0.000  0.008
    6  0.002  0.002  0.010  0.001  0.000  0.000  0.000  0.000  0.000  0.015
    7  0.000  0.000  0.002  0.005  0.000  0.000  0.000  0.000  0.000  0.007
    8  0.001  0.004  0.003  0.001  0.000  0.000  0.000  0.000  0.000  0.008
    9  0.002  0.002  0.010  0.001  0.000  0.000  0.000  0.000  0.000  0.015
   10  0.000  0.000  0.002  0.005  0.000  0.000  0.000  0.000  0.000  0.007
tot    0.005  0.026  0.030  0.018  0.159  0.093  0.000  0.218  0.373  0.923

band    29 # energy   -3.96989843 # occ.  1.00000000

ion      s     py     pz     px    dxy    dyz    dz2    dxz  x2-y2    tot
    1  0.000  0.004  0.000  0.019  0.000  0.017  0.000  0.004  0.000  0.044
    2  0.000  0.004  0.000  0.019  0.000  0.017  0.000  0.004  0.000  0.044
    3  0.000  0.003  0.000  0.013  0.001  0.000  0.000  0.001  0.005  0.022
    4  0.000  0.003  0.000  0.013  0.001  0.000  0.000  0.001  0.005  0.022
    5  0.003  0.020  0.013  0.044  0.000  0.000  0.000  0.000  0.000  0.080
    6  0.000  0.022  0.000  0.090  0.000  0.000  0.000  0.000  0.000  0.113
    7  0.002  0.004  0.010  0.069  0.000  0.000  0.000  0.000  0.000  0.086
    8  0.003  0.020  0.013  0.044  0.000  0.000  0.000  0.000  0.000  0.080
    9  0.000  0.022  0.000  0.090  0.000  0.000  0.000  0.000  0.000  0.113
   10  0.002  0.004  0.010  0.069  0.000  0.000  0.000  0.000  0.000  0.086
tot    0.010  0.107  0.047  0.471  0.003  0.034  0.000  0.009  0.009  0.689

band    30 # energy   -3.96986501 # occ.  1.00000000

ion      s     py     pz     px    dxy    dyz    dz2    dxz  x2-y2    tot
    1  0.000  0.019  0.000  0.004  0.000  0.004  0.000  0.017  0.000  0.044
    2  0.000  0.019  0.000  0.004  0.000  0.004  0.000  0.017  0.000  0.044
    3  0.000  0.013  0.000  0.003  0.005  0.001  0.000  0.000  0.001  0.022
    4  0.000  0.013  0.000  0.003  0.005  0.001  0.000  0.000  0.001  0.022
    5  0.001  0.093  0.003  0.009  0.000  0.000  0.000  0.000  0.000  0.106
    6  0.003  0.046  0.015  0.008  0.000  0.000  0.000  0.000  0.000  0.073
    7  0.001  0.064  0.005  0.029  0.000  0.000  0.000  0.000  0.000  0.100
    8  0.001  0.093  0.003  0.009  0.000  0.000  0.000  0.000  0.000  0.106
    9  0.003  0.046  0.015  0.008  0.000  0.000  0.000  0.000  0.000  0.073
   10  0.001  0.064  0.005  0.029  0.000  0.000  0.000  0.000  0.000  0.100
tot    0.010  0.471  0.047  0.107  0.009  0.009  0.000  0.034  0.003  0.689

band    31 # energy   -3.45207820 # occ.  1.00000000

ion      s     py     pz     px    dxy    dyz    dz2    dxz  x2-y2    tot
    1  0.009  0.000  0.000  0.000  0.000  0.000  0.069  0.000  0.000  0.078
    2  0.009  0.000  0.000  0.000  0.000  0.000  0.069  0.000  0.000  0.078
    3  0.001  0.000  0.130  0.000  0.000  0.000  0.008  0.000  0.000  0.139
    4  0.001  0.000  0.130  0.000  0.000  0.000  0.008  0.000  0.000  0.139
    5  0.000  0.000  0.019  0.019  0.000  0.000  0.000  0.000  0.000  0.038
    6  0.000  0.014  0.019  0.005  0.000  0.000  0.000  0.000  0.000  0.038
    7  0.000  0.014  0.019  0.005  0.000  0.000  0.000  0.000  0.000  0.038
    8  0.000  0.000  0.019  0.019  0.000  0.000  0.000  0.000  0.000  0.038
    9  0.000  0.014  0.019  0.005  0.000  0.000  0.000  0.000  0.000  0.038