<?xml version="1.0" encoding="ISO-8859-1"?>
<modeling>
 <generator>
  <i name="program" type="string">vasp </i>
  <i name="version" type="string">5.4.4.18Apr17-6-g9f103f2a35  </i>
  <i name="subversion" type="string">(build May  1 2020 15:48:39) complex            parallel </i>
  <i name="platform" type="string">LinuxGNU </i>
  <i name="date" type="string">2020 06 18 </i>
  <i name="time" type="string">18:40:54 </i>
 </generator>
 <incar>
  <i type="int" name="ISTART">     1</i>
  <i type="string" name="PREC">accurate</i>
  <i type="string" name="ALGO"> Normal</i>
  <i type="int" name="ISPIN">     2</i>
  <i name="AMIN">      0.01000000</i>
  <i type="int" name="NELM">   400</i>
  <i type="int" name="IBRION">     2</i>
  <i name="EDIFF">      0.00010000</i>
  <i type="int" name="NSW">    99</i>
  <i type="int" name="ISIF">     3</i>
  <i name="ENCUT">    520.00000000</i>
  <v name="MAGMOM">      1.26000000      1.26000000      0.60000000      0.60000000      0.60000000      0.60000000      0.60000000      0.60000000      0.60000000      0.60000000</v>
  <i type="string" name="LREAL"> Auto</i>
  <i type="int" name="ISMEAR">    -5</i>
  <i name="SIGMA">      0.05000000</i>
  <i type="logical" name="LWAVE"> F  </i>
  <i type="int" name="LORBIT">    11</i>
  <v type="int" name="KPOINT_BSE">    -1     0     0     0</v>
  <i type="int" name="NELM">   400</i>
  <i type="string" name="GGA"> Bo</i>
  <i name="PARAM1">      0.18333333</i>
  <i name="PARAM2">      0.22000000</i>
  <i type="logical" name="LUSE_VDW"> T  </i>
  <i name="AGGAC">      0.00000000</i>
 </incar>
 <structure name="primitive_cell" >
  <crystal>
   <varray name="basis" >
    <v>       6.90777700      -0.00000000       0.00000000 </v>
    <v>       3.45388800       5.98231000       0.00000000 </v>
    <v>       0.00000000       0.00000000      23.44458800 </v>
   </varray>
   <i name="volume">    968.83501932 </i>
   <varray name="rec_basis" >
    <v>       0.14476437      -0.08357974       0.00000000 </v>
    <v>       0.00000000       0.16715951      -0.00000000 </v>
    <v>      -0.00000000       0.00000000       0.04265377 </v>
   </varray>
  </crystal>
  <varray name="positions" >
   <v>       0.33333300       0.33333300       0.49992500 </v>
   <v>       0.00042000       0.37322400      -0.42624800 </v>
   <v>      -0.37364300       0.00042000      -0.42624800 </v>
   <v>       0.37322400      -0.37364300      -0.42624800 </v>
   <v>       0.37364300      -0.00042000       0.42624800 </v>
   <v>      -0.37322400       0.37364300       0.42624800 </v>
   <v>      -0.00042000      -0.37322400       0.42624800 </v>
   <v>      -0.33333300      -0.33333300      -0.49992500 </v>
   <v>       0.00000000       0.00000000       0.44821600 </v>
   <v>       0.00000000       0.00000000      -0.44821600 </v>
  </varray>
 </structure>
 <varray name="primitive_index" >
  <v type="int" >        1 </v>
  <v type="int" >        6 </v>
  <v type="int" >        5 </v>
  <v type="int" >        7 </v>
  <v type="int" >        8 </v>
  <v type="int" >       10 </v>
  <v type="int" >        9 </v>
  <v type="int" >        2 </v>
  <v type="int" >        3 </v>
  <v type="int" >        4 </v>
 </varray>
 <kpoints>
  <generation param="Gamma">
   <v type="int" name="divisions">       5        5        1 </v>
   <v name="usershift">      0.00000000       0.00000000       0.00000000 </v>
   <v name="genvec1">      0.20000000       0.00000000       0.00000000 </v>
   <v name="genvec2">      0.00000000       0.20000000       0.00000000 </v>
   <v name="genvec3">      0.00000000       0.00000000       1.00000000 </v>
   <v name="shift">      0.00000000       0.00000000       0.00000000 </v>
  </generation>
  <varray name="kpointlist" >
   <v>       0.00000000       0.00000000       0.00000000 </v>
   <v>       0.20000000       0.00000000       0.00000000 </v>
   <v>       0.40000000       0.00000000       0.00000000 </v>
   <v>       0.40000000       0.20000000       0.00000000 </v>
   <v>      -0.40000000       0.20000000       0.00000000 </v>
  </varray>
  <varray name="weights" >
   <v>       0.04000000 </v>
   <v>       0.24000000 </v>
   <v>       0.24000000 </v>
   <v>       0.24000000 </v>
   <v>       0.24000000 </v>
  </varray>
  <varray name="tetrahedronlist"  type="int" >
   <v type="int" >        6        1        1        2        2 </v>
   <v type="int" >       12        1        2        2        2 </v>
   <v type="int" >       12        2        2        3        4 </v>
   <v type="int" >       12        2        2        2        4 </v>
   <v type="int" >       12        2        3        3        4 </v>
   <v type="int" >       12        2        3        4        4 </v>
   <v type="int" >        6        2        2        4        4 </v>
   <v type="int" >       12        3        3        3        5 </v>
   <v type="int" >       12        3        3        4        5 </v>
   <v type="int" >       12        3        4        4        5 </v>
   <v type="int" >        6        3        3        5        5 </v>
   <v type="int" >       12        3        4        5        5 </v>
   <v type="int" >        6        4        4        5        5 </v>
   <v type="int" >       12        4        5        5        5 </v>
   <v type="int" >        6        5        5        5        5 </v>
  </varray>
  <i name="volumeweight">      0.00666667 </i>
 </kpoints>
 <parameters>
  <separator name="general" >
   <i type="string" name="SYSTEM">unknown system</i>
   <i type="logical" name="LCOMPAT"> F  </i>
  </separator>
  <separator name="electronic" >
   <i type="string" name="PREC">accura</i>
   <i name="ENMAX">    520.00000000</i>
   <i name="ENAUG">    544.56500000</i>
   <i name="EDIFF">      0.00010000</i>
   <i type="int" name="IALGO">    38</i>
   <i type="int" name="IWAVPR">    11</i>
   <i type="int" name="NBANDS">    48</i>
   <i name="NELECT">     64.00000000</i>
   <i type="int" name="TURBO">     0</i>
   <i type="int" name="IRESTART">     0</i>
   <i type="int" name="NREBOOT">     0</i>
   <i type="int" name="NMIN">     0</i>
   <i name="EREF">      0.00000000</i>
   <separator name="electronic smearing" >
    <i type="int" name="ISMEAR">    -5</i>
    <i name="SIGMA">      0.05000000</i>
    <i name="KSPACING">      0.50000000</i>
    <i type="logical" name="KGAMMA"> T  </i>
   </separator>
   <separator name="electronic projectors" >
    <i type="logical" name="LREAL"> T  </i>
    <v name="ROPT">     -0.00025000     -0.00025000     -0.00025000</v>
    <i type="int" name="LMAXPAW">  -100</i>
    <i type="int" name="LMAXMIX">     2</i>
    <i type="logical" name="NLSPLINE"> F  </i>
   </separator>
   <separator name="electronic startup" >
    <i type="int" name="ISTART">     0</i>
    <i type="int" name="ICHARG">     2</i>
    <i type="int" name="INIWAV">     1</i>
   </separator>
   <separator name="electronic spin" >
    <i type="int" name="ISPIN">     2</i>
    <i type="logical" name="LNONCOLLINEAR"> F  </i>
    <v name="MAGMOM">      1.26000000      1.26000000      0.60000000      0.60000000      0.60000000      0.60000000      0.60000000      0.60000000      0.60000000      0.60000000</v>
    <i name="NUPDOWN">     -1.00000000</i>
    <i type="logical" name="LSORBIT"> F  </i>
    <v name="SAXIS">      0.00000000      0.00000000      1.00000000</v>
    <i type="logical" name="LSPIRAL"> F  </i>
    <v name="QSPIRAL">      0.00000000      0.00000000      0.00000000</v>
    <i type="logical" name="LZEROZ"> F  </i>
   </separator>
   <separator name="electronic exchange-correlation" >
    <i type="logical" name="LASPH"> F  </i>
    <i type="logical" name="LMETAGGA"> F  </i>
   </separator>
   <separator name="electronic convergence" >
    <i type="int" name="NELM">   400</i>
    <i type="int" name="NELMDL">     0</i>
    <i type="int" name="NELMIN">     2</i>
    <i name="ENINI">    520.00000000</i>
    <separator name="electronic convergence detail" >
     <i type="logical" name="LDIAG"> T  </i>
     <i type="logical" name="LSUBROT"> F  </i>
     <i name="WEIMIN">      0.00100000</i>
     <i name="EBREAK">      0.00000052</i>
     <i name="DEPER">      0.30000000</i>
     <i type="int" name="NRMM">     4</i>
     <i name="TIME">      0.40000000</i>
    </separator>
   </separator>
   <separator name="electronic mixer" >
    <i name="AMIX">      0.40000000</i>
    <i name="BMIX">      1.00000000</i>
    <i name="AMIN">      0.01000000</i>
    <i name="AMIX_MAG">      1.60000000</i>
    <i name="BMIX_MAG">      1.00000000</i>
    <separator name="electronic mixer details" >
     <i type="int" name="IMIX">     4</i>
     <i type="logical" name="MIXFIRST"> F  </i>
     <i type="int" name="MAXMIX">   -45</i>
     <i name="WC">    100.00000000</i>
     <i type="int" name="INIMIX">     1</i>
     <i type="int" name="MIXPRE">     1</i>
     <i type="int" name="MREMOVE">     5</i>
    </separator>
   </separator>
   <separator name="electronic dipolcorrection" >
    <i type="logical" name="LDIPOL"> F  </i>
    <i type="logical" name="LMONO"> F  </i>
    <i type="int" name="IDIPOL">     0</i>
    <i name="EPSILON">      1.00000000</i>
    <v name="DIPOL">   -100.00000000   -100.00000000   -100.00000000</v>
    <i name="EFIELD">      0.00000000</i>
   </separator>
  </separator>
  <separator name="grids" >
   <i type="int" name="NGX">    54</i>
   <i type="int" name="NGY">    54</i>
   <i type="int" name="NGZ">   180</i>
   <i type="int" name="NGXF">   108</i>
   <i type="int" name="NGYF">   108</i>
   <i type="int" name="NGZF">   360</i>
   <i type="logical" name="ADDGRID"> F  </i>
  </separator>
  <separator name="ionic" >
   <i type="int" name="NSW">    99</i>
   <i type="int" name="IBRION">     2</i>
   <i type="int" name="MDALGO">     0</i>
   <i type="int" name="ISIF">     3</i>
   <i name="PSTRESS">      0.00000000</i>
   <i name="EDIFFG">      0.00100000</i>
   <i type="int" name="NFREE">     1</i>
   <i name="POTIM">      0.50000000</i>
   <i name="SMASS">     -3.00000000</i>
   <i name="SCALEE">      1.00000000</i>
  </separator>
  <separator name="ionic md" >
   <i name="TEBEG">      0.00010000</i>
   <i name="TEEND">      0.00010000</i>
   <i type="int" name="NBLOCK">     1</i>
   <i type="int" name="KBLOCK">    99</i>
   <i type="int" name="NPACO">   256</i>
   <i name="APACO">     16.00000000</i>
  </separator>
  <separator name="symmetry" >
   <i type="int" name="ISYM">     2</i>
   <i name="SYMPREC">      0.00001000</i>
  </separator>
  <separator name="dos" >
   <i type="int" name="LORBIT">    11</i>
   <v name="RWIGS">     -1.00000000     -1.00000000     -1.00000000</v>
   <i type="int" name="NEDOS">   301</i>
   <i name="EMIN">     10.00000000</i>
   <i name="EMAX">    -10.00000000</i>
   <i name="EFERMI">      0.00000000</i>
  </separator>
  <separator name="writing" >
   <i type="int" name="NWRITE">     2</i>
   <i type="logical" name="LWAVE"> F  </i>
   <i type="logical" name="LDOWNSAMPLE"> F  </i>
   <i type="logical" name="LCHARG"> T  </i>
   <i type="logical" name="LPARD"> F  </i>
   <i type="logical" name="LVTOT"> F  </i>
   <i type="logical" name="LVHAR"> F  </i>
   <i type="logical" name="LELF"> F  </i>
   <i type="logical" name="LOPTICS"> F  </i>
   <v name="STM">      0.00000000      0.00000000      0.00000000      0.00000000      0.00000000      0.00000000      0.00000000</v>
  </separator>
  <separator name="performance" >
   <i type="int" name="NPAR">    16</i>
   <i type="int" name="NSIM">     4</i>
   <i type="int" name="NBLK">    -1</i>
   <i type="logical" name="LPLANE"> T  </i>
   <i type="logical" name="LSCALAPACK"> T  </i>
   <i type="logical" name="LSCAAWARE"> F  </i>
   <i type="logical" name="LSCALU"> F  </i>
   <i type="logical" name="LASYNC"> F  </i>
   <i type="logical" name="LORBITALREAL"> F  </i>
  </separator>
  <separator name="miscellaneous" >
   <i type="int" name="IDIOT">     3</i>
   <i type="int" name="ISPECIAL">     0</i>
   <i type="logical" name="LMUSIC"> F  </i>
   <v name="POMASS">     58.69000000     72.61000000     32.06600000</v>
   <v name="DARWINR">      0.00000000      0.00000000      0.00000000</v>
   <v name="DARWINV">      1.00000000      1.00000000      1.00000000</v>
   <i type="logical" name="LCORR"> T  </i>
  </separator>
  <i type="logical" name="GGA_COMPAT"> T  </i>
  <i type="logical" name="LBERRY"> F  </i>
  <i type="int" name="ICORELEVEL">     0</i>
  <i type="logical" name="LDAU"> F  </i>
  <i type="int" name="I_CONSTRAINED_M">     0</i>
  <separator name="electronic exchange-correlation" >
   <i type="string" name="GGA">BO</i>
   <i type="int" name="VOSKOWN">     0</i>
   <i type="logical" name="LHFCALC"> F  </i>
   <i type="string" name="PRECFOCK"></i>
   <i type="logical" name="LSYMGRAD"> F  </i>
   <i type="logical" name="LHFONE"> F  </i>
   <i type="logical" name="LRHFCALC"> F  </i>
   <i type="logical" name="LTHOMAS"> F  </i>
   <i type="logical" name="LMODELHF"> F  </i>
   <i name="ENCUT4O">     -1.00000000</i>
   <i type="int" name="EXXOEP">     0</i>
   <i type="int" name="FOURORBIT">     0</i>
   <i name="AEXX">      0.00000000</i>
   <i name="HFALPHA">      0.00000000</i>
   <i name="MCALPHA">      0.00000000</i>
   <i name="ALDAX">      1.00000000</i>
   <i name="AGGAX">      1.00000000</i>
   <i name="ALDAC">      1.00000000</i>
   <i name="AGGAC">      0.00000000</i>
   <i type="int" name="NKREDX">     1</i>
   <i type="int" name="NKREDY">     1</i>
   <i type="int" name="NKREDZ">     1</i>
   <i type="logical" name="SHIFTRED"> F  </i>
   <i type="logical" name="ODDONLY"> F  </i>
   <i type="logical" name="EVENONLY"> F  </i>
   <i type="int" name="LMAXFOCK">     0</i>
   <i type="int" name="NMAXFOCKAE">     0</i>
   <i type="logical" name="LFOCKAEDFT"> F  </i>
   <i name="HFSCREEN">      0.00000000</i>
   <i name="HFSCREENC">      0.00000000</i>
   <i type="int" name="NBANDSGWLOW">     0</i>
  </separator>
  <separator name="vdW DFT" >
   <i type="logical" name="LUSE_VDW"> T  </i>
   <i name="Zab_VDW">     -0.84910000</i>
   <i name="PARAM1">      0.18333333</i>
   <i name="PARAM2">      0.22000000</i>
   <i name="PARAM3">      0.00000000</i>
  </separator>
  <separator name="model GW" >
   <i type="int" name="MODEL_GW">     0</i>
   <i name="MODEL_EPS0">     58.13010116</i>
   <i name="MODEL_ALPHA">      1.00000000</i>
  </separator>
  <separator name="linear response parameters" >
   <i type="logical" name="LEPSILON"> F  </i>
   <i type="logical" name="LRPA"> F  </i>
   <i type="logical" name="LNABLA"> F  </i>
   <i type="logical" name="LVEL"> F  </i>
   <i type="int" name="KINTER">     0</i>
   <i name="CSHIFT">      0.10000000</i>
   <i name="OMEGAMAX">     -1.00000000</i>
   <i name="DEG_THRESHOLD">      0.00200000</i>
   <i name="RTIME">     -0.10000000</i>
   <i name="WPLASMAI">      0.00000000</i>
   <v name="DFIELD">      0.00000000      0.00000000      0.00000000</v>
   <v name="WPLASMA">      0.00000000      0.00000000      0.00000000      0.00000000      0.00000000      0.00000000      0.00000000      0.00000000      0.00000000</v>
  </separator>
  <separator name="orbital magnetization" >
   <i type="logical" name="NUCIND"> F  </i>
   <v name="MAGPOS">      0.00000000      0.00000000      0.00000000</v>
   <i type="logical" name="LNICSALL"> T  </i>
   <i type="logical" name="ORBITALMAG"> F  </i>
   <i type="logical" name="LMAGBLOCH"> F  </i>
   <i type="logical" name="LCHIMAG"> F  </i>
   <i type="logical" name="LGAUGE"> T  </i>
   <i type="int" name="MAGATOM">     0</i>
   <v name="MAGDIPOL">      0.00000000      0.00000000      0.00000000</v>
   <v name="AVECCONST">      0.00000000      0.00000000      0.00000000</v>
  </separator>
  <separator name="response functions" >
   <i type="logical" name="LADDER"> F  </i>
   <i type="logical" name="LRPAFORCE"> F  </i>
   <i type="logical" name="LFXC"> F  </i>
   <i type="logical" name="LHARTREE"> T  </i>
   <i type="int" name="IBSE">     0</i>
   <v type="int" name="KPOINT">    -1     0     0     0</v>
   <i type="logical" name="LTCTE"> F  </i>
   <i type="logical" name="LTETE"> F  </i>
   <i type="logical" name="LTRIPLET"> F  </i>
   <i type="logical" name="LFXCEPS"> F  </i>
   <i type="logical" name="LFXHEG"> F  </i>
   <i type="int" name="NATURALO">     2</i>
   <i type="logical" name="L2ORDER"> F  </i>
   <i type="logical" name="LMP2LT"> F  </i>
   <i type="logical" name="LUSEW"> F  </i>
   <i name="ENCUTGW">     -2.00000000</i>
   <i name="ENCUTGWSOFT">     -2.00000000</i>
   <i name="ENCUTLF">     -1.00000000</i>
   <i type="int" name="LMAXMP2">    -1</i>
   <i name="SCISSOR">      0.00000000</i>
   <i type="int" name="NOMEGA">     0</i>
   <i type="int" name="NOMEGAR">     0</i>
   <i type="int" name="NBANDSGW">    -1</i>
   <i type="int" name="NBANDSO">    -1</i>
   <i type="int" name="NBANDSV">    -1</i>
   <i type="int" name="NELM">   400</i>
   <i type="int" name="NELMHF">     1</i>
   <i type="int" name="DIM">     3</i>
   <i type="int" name="ANTIRES">     0</i>
   <i name="OMEGAMAX">    -30.00000000</i>
   <i name="OMEGAMIN">    -30.00000000</i>
   <i name="OMEGATL">   -200.00000000</i>
   <i type="int" name="OMEGAGRID">   140</i>
   <i name="CSHIFT">     -0.10000000</i>
   <i type="logical" name="SELFENERGY"> F  </i>
   <i type="logical" name="LSPECTRAL"> F  </i>
   <i type="logical" name="LSPECTRALGW"> F  </i>
   <i type="logical" name="LSINGLES"> F  </i>
   <i type="logical" name="LFERMIGW"> F  </i>
   <i type="logical" name="ODDONLYGW"> F  </i>
   <i type="logical" name="EVENONLYGW"> F  </i>
   <i type="int" name="NKREDLFX">     1</i>
   <i type="int" name="NKREDLFY">     1</i>
   <i type="int" name="NKREDLFZ">     1</i>
   <i type="int" name="MAXMEM">  2800</i>
   <i type="int" name="TELESCOPE">     0</i>
   <i type="int" name="TAUPAR">     1</i>
   <i type="int" name="OMEGAPAR">    -1</i>
   <i name="LAMBDA">      1.00000000</i>
  </separator>
  <separator name="External order field" >
   <i name="OFIELD_KAPPA">      0.00000000</i>
   <v name="OFIELD_K">      0.00000000      0.00000000      0.00000000</v>
   <i name="OFIELD_Q6_NEAR">      0.00000000</i>
   <i name="OFIELD_Q6_FAR">      0.00000000</i>
   <i name="OFIELD_A">      0.00000000</i>
  </separator>
 </parameters>
 <atominfo>
  <atoms>      10 </atoms>
  <types>       3 </types>
  <array name="atoms" >
   <dimension dim="1">ion</dimension>
   <field type="string">element</field>
   <field type="int">atomtype</field>
   <set>
    <rc><c>Ni</c><c>   1</c></rc>
    <rc><c>Ni</c><c>   1</c></rc>
    <rc><c>Ge</c><c>   2</c></rc>
    <rc><c>Ge</c><c>   2</c></rc>
    <rc><c>S </c><c>   3</c></rc>
    <rc><c>S </c><c>   3</c></rc>
    <rc><c>S </c><c>   3</c></rc>
    <rc><c>S </c><c>   3</c></rc>
    <rc><c>S </c><c>   3</c></rc>
    <rc><c>S </c><c>   3</c></rc>
   </set>
  </array>
  <array name="atomtypes" >
   <dimension dim="1">type</dimension>
   <field type="int">atomspertype</field>
   <field type="string">element</field>
   <field>mass</field>
   <field>valence</field>
   <field type="string">pseudopotential</field>
   <set>
    <rc><c>   2</c><c>Ni</c><c>     58.69000000</c><c>     10.00000000</c><c> PAW_PBE Ni 06Sep2000                   </c></rc>
    <rc><c>   2</c><c>Ge</c><c>     72.61000000</c><c>      4.00000000</c><c> PAW_PBE Ge 05Jan2001                   </c></rc>
    <rc><c>   6</c><c>S </c><c>     32.06600000</c><c>      6.00000000</c><c>  PAW_PBE S 17Jan2003                   </c></rc>
   </set>
  </array>
 </atominfo>
 <structure name="initialpos" >
  <crystal>
   <varray name="basis" >
    <v>       6.90777700      -0.00000000       0.00000000 </v>
    <v>       3.45388800       5.98231000       0.00000000 </v>
    <v>       0.00000000       0.00000000      23.44458800 </v>
   </varray>
   <i name="volume">    968.83501932 </i>
   <varray name="rec_basis" >
    <v>       0.14476437      -0.08357974       0.00000000 </v>
    <v>       0.00000000       0.16715951      -0.00000000 </v>
    <v>      -0.00000000       0.00000000       0.04265377 </v>
   </varray>
  </crystal>
  <varray name="positions" >
   <v>       0.33333300       0.33333300       0.49992500 </v>
   <v>       0.66666700       0.66666700       0.50007500 </v>
   <v>       0.00000000       0.00000000       0.44821600 </v>
   <v>       0.00000000       0.00000000       0.55178400 </v>
   <v>       0.62635700       0.00042000       0.57375200 </v>
   <v>       0.00042000       0.37322400       0.57375200 </v>
   <v>       0.37322400       0.62635700       0.57375200 </v>
   <v>       0.37364300       0.99958000       0.42624800 </v>
   <v>       0.99958000       0.62677600       0.42624800 </v>
   <v>       0.62677600       0.37364300       0.42624800 </v>
  </varray>
  <varray name="selective"  type="logical" >
   <v type="logical" >  T  T  T </v>
   <v type="logical" >  T  T  T </v>
   <v type="logical" >  F  F  F </v>
   <v type="logical" >  F  F  F </v>
   <v type="logical" >  T  T  T </v>
   <v type="logical" >  T  T  T </v>
   <v type="logical" >  T  T  T </v>
   <v type="logical" >  T  T  T </v>
   <v type="logical" >  T  T  T </v>
   <v type="logical" >  T  T  T </v>
  </varray>
  <nose>
   <v>      -3.00000000       0.00000000       0.00010000       0.00010000 </v>
  </nose>
 </structure>
 <calculation>
  <scstep>
   <time name="dav">   22.07   22.71</time>
   <time name="total">   74.87   75.92</time>
   <energy>
    <i name="alphaZ">     29.60393205 </i>
    <i name="ewald">   8065.03639907 </i>
    <i name="hartreedc"> -11703.58683588 </i>
    <i name="XCdc">    111.56248542 </i>
    <i name="pawpsdc">   2418.54594175 </i>
    <i name="pawaedc">  -2499.37916973 </i>
    <i name="eentropy">      0.00000000 </i>
    <i name="bandstr">    -47.08812615 </i>
    <i name="atom">   4042.75775707 </i>
    <i name="e_fr_energy">    417.45238361 </i>
    <i name="e_wo_entrp">    417.45238361 </i>
    <i name="e_0_energy">    417.45238361 </i>
   </energy>
  </scstep>
  <scstep>
   <time name="dav">   33.27   33.43</time>
   <time name="total">   33.28   33.44</time>
   <energy>
    <i name="e_fr_energy">     34.13916343 </i>
    <i name="e_wo_entrp">     34.13916343 </i>
    <i name="e_0_energy">     34.13916343 </i>
   </energy>
  </scstep>
  <scstep>
   <time name="dav">   28.25   28.36</time>
   <time name="total">   28.26   28.37</time>
   <energy>
    <i name="e_fr_energy">    -40.08860824 </i>
    <i name="e_wo_entrp">    -40.08860824 </i>
    <i name="e_0_energy">    -40.08860824 </i>
   </energy>
  </scstep>
  <scstep>
   <time name="dav">   27.82   28.03</time>
   <time name="total">   27.82   28.04</time>
   <energy>
    <i name="e_fr_energy">    -43.00748174 </i>
    <i name="e_wo_entrp">    -43.00748174 </i>
    <i name="e_0_energy">    -43.00748174 </i>
   </energy>
  </scstep>
  <scstep>
   <time name="dav">   28.94   29.17</time>
   <time name="total">   31.08   31.33</time>
   <energy>
    <i name="e_fr_energy">    -43.08809299 </i>
    <i name="e_wo_entrp">    -43.08809299 </i>
    <i name="e_0_energy">    -43.08809299 </i>
   </energy>
  </scstep>
  <scstep>
   <time name="dav">   29.52   30.32</time>
   <time name="total">   84.25   85.35</time>
   <energy>
    <i name="e_fr_energy">   -103.13342247 </i>
    <i name="e_wo_entrp">   -103.13342247 </i>
    <i name="e_0_energy">   -103.13342247 </i>
   </energy>
  </scstep>
  <scstep>
   <time name="dav">   25.57   25.87</time>
   <time name="total">   79.92   80.67</time>
   <energy>
    <i name="e_fr_energy">    -51.88847551 </i>
    <i name="e_wo_entrp">    -51.88847551 </i>
    <i name="e_0_energy">    -51.88847551 </i>
   </energy>
  </scstep>
  <scstep>
   <time name="dav">   29.31   29.36</time>
   <time name="total">   83.88   84.14</time>
   <energy>
    <i name="e_fr_energy">    -37.74425340 </i>
    <i name="e_wo_entrp">    -37.74425340 </i>
    <i name="e_0_energy">    -37.74425340 </i>
   </energy>
  </scstep>
  <scstep>
   <time name="dav">   29.14   29.47</time>
   <time name="total">   82.30   82.88</time>
   <energy>
    <i name="e_fr_energy">    -34.05587132 </i>
    <i name="e_wo_entrp">    -34.05587132 </i>
    <i name="e_0_energy">    -34.05587132 </i>
   </energy>
  </scstep>
  <scstep>
   <time name="dav">   26.42   26.54</time>
   <time name="total">   79.34   79.70</time>
   <energy>
    <i name="e_fr_energy">    -34.30766551 </i>
    <i name="e_wo_entrp">    -34.30766551 </i>
    <i name="e_0_energy">    -34.30766551 </i>
   </energy>
  </scstep>
  <scstep>
   <time name="dav">   30.34   30.46</time>
   <time name="total">   83.47   83.70</time>
   <energy>
    <i name="e_fr_energy">    -34.16759181 </i>
    <i name="e_wo_entrp">    -34.16759181 </i>
    <i name="e_0_energy">    -34.16759181 </i>
   </energy>
  </scstep>
  <scstep>
   <time name="dav">   31.67   31.72</time>
   <time name="total">   84.57   84.88</time>
   <energy>
    <i name="e_fr_energy">    -34.10632906 </i>
    <i name="e_wo_entrp">    -34.10632906 </i>
    <i name="e_0_energy">    -34.10632906 </i>
   </energy>
  </scstep>
  <scstep>
   <time name="dav">   31.22   31.38</time>
   <time name="total">   84.28   84.59</time>
   <energy>
    <i name="e_fr_energy">    -34.04493473 </i>
    <i name="e_wo_entrp">    -34.04493473 </i>
    <i name="e_0_energy">    -34.04493473 </i>
   </energy>
  </scstep>
  <scstep>
   <time name="dav">   23.08   23.21</time>
   <time name="total">   76.19   76.43</time>
   <energy>
    <i name="e_fr_energy">    -34.13831731 </i>
    <i name="e_wo_entrp">    -34.13831731 </i>
    <i name="e_0_energy">    -34.13831731 </i>
   </energy>
  </scstep>
  <scstep>
   <time name="dav">   23.15   23.51</time>
   <time name="total">   76.18   76.74</time>
   <energy>
    <i name="e_fr_energy">    -34.14771711 </i>
    <i name="e_wo_entrp">    -34.14771711 </i>
    <i name="e_0_energy">    -34.14771711 </i>
   </energy>
  </scstep>
  <scstep>
   <time name="dav">   27.27   27.43</time>
   <time name="total">   80.27   80.79</time>
   <energy>
    <i name="e_fr_energy">    -33.80914391 </i>
    <i name="e_wo_entrp">    -33.80914391 </i>
    <i name="e_0_energy">    -33.80914391 </i>
   </energy>
  </scstep>
  <scstep>
   <time name="dav">   27.08   27.26</time>
   <time name="total">   80.30   80.51</time>
   <energy>
    <i name="e_fr_energy">    -33.35173270 </i>
    <i name="e_wo_entrp">    -33.35173270 </i>
    <i name="e_0_energy">    -33.35173270 </i>
   </energy>
  </scstep>
  <scstep>
   <time name="dav">   23.62   23.77</time>
   <time name="total">   76.61   77.04</time>
   <energy>
    <i name="e_fr_energy">    -33.83080431 </i>
    <i name="e_wo_entrp">    -33.83080431 </i>
    <i name="e_0_energy">    -33.83080431 </i>
   </energy>
  </scstep>
  <scstep>
   <time name="dav">   26.12   26.34</time>
   <time name="total">   79.16   79.64</time>
   <energy>
    <i name="e_fr_energy">    -35.16212834 </i>
    <i name="e_wo_entrp">    -35.16212834 </i>
    <i name="e_0_energy">    -35.16212834 </i>
   </energy>
  </scstep>
  <scstep>
   <time name="dav">   27.75   27.85</time>
   <time name="total">   81.07   81.25</time>
   <energy>
    <i name="e_fr_energy">    -35.37808129 </i>
    <i name="e_wo_entrp">    -35.37808129 </i>
    <i name="e_0_energy">    -35.37808129 </i>
   </energy>
  </scstep>
  <scstep>
   <time name="dav">   26.59   26.83</time>
   <time name="total">   79.82   80.24</time>
   <energy>
    <i name="e_fr_energy">    -34.47831911 </i>
    <i name="e_wo_entrp">    -34.47831911 </i>
    <i name="e_0_energy">    -34.47831911 </i>
   </energy>
  </scstep>
  <scstep>
   <time name="dav">   27.90   28.07</time>
   <time name="total">   80.85   81.42</time>
   <energy>
    <i name="e_fr_energy">    -34.48203818 </i>
    <i name="e_wo_entrp">    -34.48203818 </i>
    <i name="e_0_energy">    -34.48203818 </i>
   </energy>
  </scstep>
  <scstep>
   <time name="dav">   28.18   28.42</time>
   <time name="total">   81.20   81.66</time>
   <energy>
    <i name="e_fr_energy">    -34.56328012 </i>
    <i name="e_wo_entrp">    -34.56328012 </i>
    <i name="e_0_energy">    -34.56328012 </i>
   </energy>
  </scstep>
  <scstep>
   <time name="dav">   25.08   25.54</time>
   <time name="total">   78.34   79.12</time>
   <energy>
    <i name="e_fr_energy">    -34.58897735 </i>
    <i name="e_wo_entrp">    -34.58897735 </i>
    <i name="e_0_energy">    -34.58897735 </i>
   </energy>
  </scstep>
  <scstep>
   <time name="dav">   25.31   25.89</time>
   <time name="total">   78.16   79.11</time>
   <energy>
    <i name="e_fr_energy">    -34.63174491 </i>
    <i name="e_wo_entrp">    -34.63174491 </i>
    <i name="e_0_energy">    -34.63174491 </i>
   </energy>
  </scstep>
  <scstep>
   <time name="dav">   28.56   28.91</time>
   <time name="total">   81.67   82.19</time>
   <energy>
    <i name="e_fr_energy">    -34.68788722 </i>
    <i name="e_wo_entrp">    -34.68788722 </i>
    <i name="e_0_energy">    -34.68788722 </i>
   </energy>
  </scstep>
  <scstep>
   <time name="dav">   27.13   27.31</time>
   <time name="total">   80.22   80.69</time>
   <energy>
    <i name="e_fr_energy">    -34.70852709 </i>
    <i name="e_wo_entrp">    -34.70852709 </i>
    <i name="e_0_energy">    -34.70852709 </i>
   </energy>
  </scstep>
  <scstep>
   <time name="dav">   25.58   25.70</time>
   <time name="total">   78.88   79.08</time>
   <energy>
    <i name="e_fr_energy">    -34.70470368 </i>
    <i name="e_wo_entrp">    -34.70470368 </i>
    <i name="e_0_energy">    -34.70470368 </i>
   </energy>
  </scstep>
  <scstep>
   <time name="dav">   26.97   27.03</time>
   <time name="total">   80.06   80.33</time>
   <energy>
    <i name="e_fr_energy">    -34.68623602 </i>
    <i name="e_wo_entrp">    -34.68623602 </i>
    <i name="e_0_energy">    -34.68623602 </i>
   </energy>
  </scstep>
  <scstep>
   <time name="dav">   26.94   27.03</time>
   <time name="total">   79.98   80.31</time>
   <energy>
    <i name="e_fr_energy">    -34.68781066 </i>
    <i name="e_wo_entrp">    -34.68781066 </i>
    <i name="e_0_energy">    -34.68781066 </i>
   </energy>
  </scstep>
  <scstep>
   <time name="dav">   25.66   26.09</time>
   <time name="total">   78.50   79.45</time>
   <energy>
    <i name="e_fr_energy">    -34.69664243 </i>
    <i name="e_wo_entrp">    -34.69664243 </i>
    <i name="e_0_energy">    -34.69664243 </i>
   </energy>
  </scstep>
  <scstep>
   <time name="dav">   25.62   25.78</time>
   <time name="total">   78.83   79.24</time>
   <energy>
    <i name="e_fr_energy">    -34.70024410 </i>
    <i name="e_wo_entrp">    -34.70024410 </i>
    <i name="e_0_energy">    -34.70024410 </i>
   </energy>
  </scstep>
  <scstep>
   <time name="dav">   28.86   29.01</time>
   <time name="total">   82.11   82.43</time>
   <energy>
    <i name="e_fr_energy">    -34.70479322 </i>
    <i name="e_wo_entrp">    -34.70479322 </i>
    <i name="e_0_energy">    -34.70479322 </i>
   </energy>
  </scstep>
  <scstep>
   <time name="dav">   27.54   27.68</time>
   <time name="total">   80.81   81.14</time>
   <energy>
    <i name="e_fr_energy">    -34.70601123 </i>
    <i name="e_wo_entrp">    -34.70601123 </i>
    <i name="e_0_energy">    -34.70601123 </i>
   </energy>
  </scstep>
  <scstep>
   <time name="dav">   26.37   26.64</time>
   <time name="total">   79.62   80.21</time>
   <energy>
    <i name="e_fr_energy">    -34.70897064 </i>
    <i name="e_wo_entrp">    -34.70897064 </i>
    <i name="e_0_energy">    -34.70897064 </i>
   </energy>
  </scstep>
  <scstep>
   <time name="dav">   26.12   26.16</time>
   <time name="total">   79.42   79.67</time>
   <energy>
    <i name="e_fr_energy">    -34.70949444 </i>
    <i name="e_wo_entrp">    -34.70949444 </i>
    <i name="e_0_energy">    -34.70949444 </i>
   </energy>
  </scstep>
  <scstep>
   <time name="dav">   30.07   30.33</time>
   <time name="total">   80.75   81.48</time>
   <energy>
    <i name="alphaZ">     29.60393205 </i>
    <i name="ewald">   8065.03639907 </i>
    <i name="hartreedc"> -11674.47895180 </i>
    <i name="XCdc">    111.19198448 </i>
    <i name="pawpsdc">   2384.00223706 </i>
    <i name="pawaedc">  -2465.64709871 </i>
    <i name="eentropy">      0.00000000 </i>
    <i name="bandstr">   -527.17565780 </i>
    <i name="atom">   4042.75775707 </i>
    <i name="e_fr_energy">    -34.70939858 </i>
    <i name="e_wo_entrp">    -34.70939858 </i>
    <i name="e_0_energy">    -34.70939858 </i>
   </energy>
  </scstep>
  <structure>
   <crystal>
    <varray name="basis" >
     <v>       6.90777700      -0.00000000       0.00000000 </v>
     <v>       3.45388800       5.98231000       0.00000000 </v>
     <v>       0.00000000       0.00000000      23.44458800 </v>
    </varray>
    <i name="volume">    968.83501932 </i>
    <varray name="rec_basis" >
     <v>       0.14476437      -0.08357974       0.00000000 </v>
     <v>       0.00000000       0.16715951      -0.00000000 </v>
     <v>      -0.00000000       0.00000000       0.04265377 </v>
    </varray>
   </crystal>
   <varray name="positions" >
    <v>       0.33333300       0.33333300       0.49992500 </v>
    <v>       0.66666700       0.66666700       0.50007500 </v>
    <v>       0.00000000       0.00000000       0.44821600 </v>
    <v>       0.00000000       0.00000000       0.55178400 </v>
    <v>       0.62635700       0.00042000       0.57375200 </v>
    <v>       0.00042000       0.37322400       0.57375200 </v>
    <v>       0.37322400       0.62635700       0.57375200 </v>
    <v>       0.37364300       0.99958000       0.42624800 </v>
    <v>       0.99958000       0.62677600       0.42624800 </v>
    <v>       0.62677600       0.37364300       0.42624800 </v>
   </varray>
  </structure>
  <varray name="forces" >
   <v>      -0.00000000       0.00000000       0.00907368 </v>
   <v>      -0.00000000       0.00000000      -0.00907368 </v>
   <v>      -0.00000000       0.00000000      -1.22752754 </v>
   <v>      -0.00000000      -0.00000000       1.22752754 </v>
   <v>       0.87079644      -0.00312187      -1.59252161 </v>
   <v>      -0.43810177      -0.75257086      -1.59252161 </v>
   <v>      -0.43269467       0.75569272      -1.59252161 </v>
   <v>      -0.87079644       0.00312187       1.59252161 </v>
   <v>       0.43810177       0.75257086       1.59252161 </v>
   <v>       0.43269467      -0.75569272       1.59252161 </v>
  </varray>
  <varray name="stress" >
   <v>     -40.96237035      -0.00000165       0.00000000 </v>
   <v>       0.00000849     -40.96236534       0.00000000 </v>
   <v>       0.00000000       0.00000000     -17.61909387 </v>
  </varray>
  <energy>
   <i name="e_fr_energy">    -34.70939858 </i>
   <i name="e_wo_entrp">    -34.70939858 </i>
   <i name="e_0_energy">      0.00000000 </i>
  </energy>
  <time name="totalsc"> 2914.54 2931.82</time>
 </calculation>
 <calculation>
  <scstep>
   <time name="dav">   29.13   29.42</time>
   <time name="total">   82.99   83.46</time>
   <energy>
    <i name="alphaZ">     40.25350435 </i>
    <i name="ewald">  10443.31450750 </i>
    <i name="hartreedc"> -14382.23701205 </i>
    <i name="XCdc">    131.17987067 </i>
    <i name="pawpsdc">   2384.50435066 </i>
    <i name="pawaedc">  -2466.11724528 </i>
    <i name="eentropy">      0.00000000 </i>
    <i name="bandstr">   -311.55403932 </i>
    <i name="atom">   4042.75775707 </i>
    <i name="e_fr_energy">   -117.89830639 </i>
    <i name="e_wo_entrp">   -117.89830639 </i>
    <i name="e_0_energy">   -117.89830639 </i>
   </energy>
  </scstep>
  <scstep>
   <time name="dav">   34.27   34.37</time>
   <time name="total">   88.18   88.49</time>
   <energy>
    <i name="e_fr_energy">   -337.05111866 </i>
    <i name="e_wo_entrp">   -337.05111866 </i>
    <i name="e_0_energy">   -337.05111866 </i>
   </energy>
  </scstep>
  <scstep>
   <time name="dav">   27.82   27.94</time>
   <time name="total">   81.76   82.00</time>
   <energy>
    <i name="e_fr_energy">    -82.22914371 </i>
    <i name="e_wo_entrp">    -82.22914371 </i>
    <i name="e_0_energy">    -82.22914371 </i>
   </energy>
  </scstep>
  <scstep>
   <time name="dav">   29.84   30.13</time>
   <time name="total">   83.58   84.13</time>
   <energy>
    <i name="e_fr_energy">    -44.50594536 </i>
    <i name="e_wo_entrp">    -44.50594536 </i>
    <i name="e_0_energy">    -44.50594536 </i>
   </energy>
  </scstep>
  <scstep>
   <time name="dav">   31.66   32.00</time>
   <time name="total">   85.30   86.02</time>
   <energy>
    <i name="e_fr_energy">    -40.89235157 </i>
    <i name="e_wo_entrp">    -40.89235157 </i>
    <i name="e_0_energy">    -40.89235157 </i>
   </energy>
  </scstep>
  <scstep>
   <time name="dav">   32.10   32.35</time>
   <time name="total">   86.09   86.44</time>
   <energy>
    <i name="e_fr_energy">    -40.89530775 </i>
    <i name="e_wo_entrp">    -40.89530775 </i>
    <i name="e_0_energy">    -40.89530775 </i>
   </energy>
  </scstep>
  <scstep>
   <time name="dav">   28.18   28.45</time>
   <time name="total">   81.98   82.65</time>
   <energy>
    <i name="e_fr_energy">    -40.74645472 </i>
    <i name="e_wo_entrp">    -40.74645472 </i>
    <i name="e_0_energy">    -40.74645472 </i>
   </energy>
  </scstep>
  <scstep>
   <time name="dav">   31.45   31.83</time>
   <time name="total">   85.08   85.97</time>
   <energy>
    <i name="e_fr_energy">    -40.77844009 </i>
    <i name="e_wo_entrp">    -40.77844009 </i>
    <i name="e_0_energy">    -40.77844009 </i>
   </energy>
  </scstep>
  <scstep>
   <time name="dav">   28.19   28.34</time>
   <time name="total">   81.96   82.52</time>
   <energy>
    <i name="e_fr_energy">    -40.71360547 </i>
    <i name="e_wo_entrp">    -40.71360547 </i>
    <i name="e_0_energy">    -40.71360547 </i>
   </energy>
  </scstep>
  <scstep>
   <time name="dav">   27.70   28.16</time>
   <time name="total">   81.24   82.23</time>
   <energy>
    <i name="e_fr_energy">    -40.73954540 </i>
    <i name="e_wo_entrp">    -40.73954540 </i>
    <i name="e_0_energy">    -40.73954540 </i>
   </energy>
  </scstep>
  <scstep>
   <time name="dav">   27.16   27.27</time>
   <time name="total">   80.86   81.41</time>
   <energy>
    <i name="e_fr_energy">    -40.77041988 </i>
    <i name="e_wo_entrp">    -40.77041988 </i>
    <i name="e_0_energy">    -40.77041988 </i>
   </energy>
  </scstep>
  <scstep>
   <time name="dav">   29.49   29.92</time>
   <time name="total">   83.50   84.08</time>
   <energy>
    <i name="e_fr_energy">    -40.77074207 </i>
    <i name="e_wo_entrp">    -40.77074207 </i>
    <i name="e_0_energy">    -40.77074207 </i>
   </energy>
  </scstep>
  <scstep>
   <time name="dav">   26.00   26.32</time>
   <time name="total">   79.85   80.54</time>
   <energy>
    <i name="e_fr_energy">    -40.77049967 </i>
    <i name="e_wo_entrp">    -40.77049967 </i>
    <i name="e_0_energy">    -40.77049967 </i>
   </energy>
  </scstep>
  <scstep>
   <time name="dav">   27.54   27.96</time>
   <time name="total">   81.55   82.16</time>
   <energy>
    <i name="e_fr_energy">    -40.77154084 </i>
    <i name="e_wo_entrp">    -40.77154084 </i>
    <i name="e_0_energy">    -40.77154084 </i>
   </energy>
  </scstep>
  <scstep>
   <time name="dav">   29.29   29.37</time>
   <time name="total">   83.22   83.51</time>
   <energy>
    <i name="e_fr_energy">    -40.77254487 </i>
    <i name="e_wo_entrp">    -40.77254487 </i>
    <i name="e_0_energy">    -40.77254487 </i>
   </energy>
  </scstep>
  <scstep>
   <time name="dav">   31.71   32.00</time>
   <time name="total">   85.72   86.13</time>
   <energy>
    <i name="e_fr_energy">    -40.77053396 </i>
    <i name="e_wo_entrp">    -40.77053396 </i>
    <i name="e_0_energy">    -40.77053396 </i>
   </energy>
  </scstep>
  <scstep>
   <time name="dav">   27.58   27.73</time>
   <time name="total">   81.57   82.00</time>
   <energy>
    <i name="e_fr_energy">    -40.77240813 </i>
    <i name="e_wo_entrp">    -40.77240813 </i>
    <i name="e_0_energy">    -40.77240813 </i>
   </energy>
  </scstep>
  <scstep>
   <time name="dav">   24.76   24.80</time>
   <time name="total">   78.72   78.97</time>
   <energy>
    <i name="e_fr_energy">    -40.77308744 </i>
    <i name="e_wo_entrp">    -40.77308744 </i>
    <i name="e_0_energy">    -40.77308744 </i>
   </energy>
  </scstep>
  <scstep>
   <time name="dav">   22.38   22.42</time>
   <time name="total">   76.38   76.68</time>
   <energy>
    <i name="e_fr_energy">    -40.77381470 </i>
    <i name="e_wo_entrp">    -40.77381470 </i>
    <i name="e_0_energy">    -40.77381470 </i>
   </energy>
  </scstep>
  <scstep>
   <time name="dav">   23.66   23.80</time>
   <time name="total">   77.85   78.01</time>
   <energy>
    <i name="e_fr_energy">    -40.77353276 </i>
    <i name="e_wo_entrp">    -40.77353276 </i>
    <i name="e_0_energy">    -40.77353276 </i>
   </energy>
  </scstep>
  <scstep>
   <time name="dav">   22.75   22.78</time>
   <time name="total">   74.67   75.29</time>
   <energy>
    <i name="alphaZ">     40.25350435 </i>
    <i name="ewald">  10443.31450750 </i>
    <i name="hartreedc"> -14086.67924800 </i>
    <i name="XCdc">    117.20546753 </i>
    <i name="pawpsdc">   2501.22196685 </i>
    <i name="pawaedc">  -2585.44759343 </i>
    <i name="eentropy">      0.00000000 </i>
    <i name="bandstr">   -513.39984385 </i>
    <i name="atom">   4042.75775707 </i>
    <i name="e_fr_energy">    -40.77348197 </i>
    <i name="e_wo_entrp">    -40.77348197 </i>
    <i name="e_0_energy">    -40.77348197 </i>
   </energy>
  </scstep>
  <structure>
   <crystal>
    <varray name="basis" >
     <v>       6.08232119      -0.00000003       0.00000000 </v>
     <v>       3.04116030       5.26744442       0.00000000 </v>
     <v>       0.00000000       0.00000000      22.23956146 </v>
    </varray>
    <i name="volume">    712.51749483 </i>
    <varray name="rec_basis" >
     <v>       0.16441092      -0.09492268       0.00000000 </v>
     <v>       0.00000000       0.18984538      -0.00000000 </v>
     <v>      -0.00000000      -0.00000000       0.04496492 </v>
    </varray>
   </crystal>
   <varray name="positions" >
    <v>       0.33333300       0.33333300       0.49994367 </v>
    <v>       0.66666700       0.66666700       0.50005633 </v>
    <v>       0.00000000       0.00000000       0.44821600 </v>
    <v>       0.00000000       0.00000000       0.55178400 </v>
    <v>       0.63245107       0.00039482       0.57047502 </v>
    <v>       0.00039482       0.36715510       0.57047502 </v>
    <v>       0.36715510       0.63245107       0.57047502 </v>
    <v>       0.36754893       0.99960518       0.42952498 </v>
    <v>       0.99960518       0.63284490       0.42952498 </v>
    <v>       0.63284490       0.36754893       0.42952498 </v>
   </varray>
  </structure>
  <varray name="forces" >
   <v>      -0.00000000       0.00000000       0.00356229 </v>
   <v>      -0.00000000      -0.00000000      -0.00356229 </v>
   <v>      -0.00000000      -0.00000000      -1.22727434 </v>
   <v>      -0.00000000       0.00000000       1.22727434 </v>
   <v>      -0.32813785      -0.00691333      -0.63752300 </v>
   <v>       0.15808179       0.28763237      -0.63752300 </v>
   <v>       0.17005606      -0.28071904      -0.63752300 </v>
   <v>       0.32813785       0.00691333       0.63752300 </v>
   <v>      -0.15808179      -0.28763237       0.63752300 </v>
   <v>      -0.17005606       0.28071904       0.63752300 </v>
  </varray>
  <varray name="stress" >
   <v>     -14.52066907       0.00000500       0.00000000 </v>
   <v>      -0.00000323     -14.52066778      -0.00000000 </v>
   <v>       0.00000000      -0.00000000      -7.52746284 </v>
  </varray>
  <energy>
   <i name="e_fr_energy">    -40.77348197 </i>
   <i name="e_wo_entrp">    -40.77348197 </i>
   <i name="e_0_energy">      0.00000000 </i>
  </energy>
  <time name="totalsc"> 1857.18 1868.33</time>
 </calculation>
 <calculation>
  <scstep>
   <time name="dav">   29.68   29.84</time>
   <time name="total">   84.04   84.23</time>
   <energy>
    <i name="alphaZ">     41.99688133 </i>
    <i name="ewald">  10824.82574210 </i>
    <i name="hartreedc"> -14510.80474371 </i>
    <i name="XCdc">    119.92405712 </i>
    <i name="pawpsdc">   2501.21288634 </i>
    <i name="pawaedc">  -2585.44374318 </i>
    <i name="eentropy">      0.00000000 </i>
    <i name="bandstr">   -476.56341719 </i>
    <i name="atom">   4042.75775707 </i>
    <i name="e_fr_energy">    -42.09458012 </i>
    <i name="e_wo_entrp">    -42.09458012 </i>
    <i name="e_0_energy">    -42.09458012 </i>
   </energy>
  </scstep>
  <scstep>
   <time name="dav">   26.22   26.42</time>
   <time name="total">   80.56   80.81</time>
   <energy>
    <i name="e_fr_energy">    -46.35087882 </i>
    <i name="e_wo_entrp">    -46.35087882 </i>
    <i name="e_0_energy">    -46.35087882 </i>
   </energy>
  </scstep>
  <scstep>
   <time name="dav">   25.78   26.11</time>
   <time name="total">   79.38   80.37</time>
   <energy>
    <i name="e_fr_energy">    -40.87685604 </i>
    <i name="e_wo_entrp">    -40.87685604 </i>
    <i name="e_0_energy">    -40.87685604 </i>
   </energy>
  </scstep>
  <scstep>
   <time name="dav">   29.51   29.78</time>
   <time name="total">   83.49   84.07</time>
   <energy>
    <i name="e_fr_energy">    -40.99876041 </i>
    <i name="e_wo_entrp">    -40.99876041 </i>
    <i name="e_0_energy">    -40.99876041 </i>
   </energy>
  </scstep>
  <scstep>
   <time name="dav">   27.78   27.83</time>
   <time name="total">   81.86   82.14</time>
   <energy>
    <i name="e_fr_energy">    -40.92154808 </i>
    <i name="e_wo_entrp">    -40.92154808 </i>
    <i name="e_0_energy">    -40.92154808 </i>
   </energy>
  </scstep>
  <scstep>
   <time name="dav">   25.68   25.85</time>
   <time name="total">   79.76   80.02</time>
   <energy>
    <i name="e_fr_energy">    -40.92266161 </i>
    <i name="e_wo_entrp">    -40.92266161 </i>
    <i name="e_0_energy">    -40.92266161 </i>
   </energy>
  </scstep>
  <scstep>
   <time name="dav">   27.90   28.11</time>
   <time name="total">   81.65   82.35</time>
   <energy>
    <i name="e_fr_energy">    -40.92362587 </i>
    <i name="e_wo_entrp">    -40.92362587 </i>
    <i name="e_0_energy">    -40.92362587 </i>
   </energy>
  </scstep>
  <scstep>
   <time name="dav">   25.84   26.00</time>
   <time name="total">   77.55   78.00</time>
   <energy>
    <i name="alphaZ">     41.99688133 </i>
    <i name="ewald">  10824.82574210 </i>
    <i name="hartreedc"> -14475.80628777 </i>
    <i name="XCdc">    118.23573586 </i>
    <i name="pawpsdc">   2526.58065058 </i>
    <i name="pawaedc">  -2611.45174007 </i>
    <i name="eentropy">      0.00000000 </i>
    <i name="bandstr">   -508.06233024 </i>
    <i name="atom">   4042.75775707 </i>
    <i name="e_fr_energy">    -40.92359115 </i>
    <i name="e_wo_entrp">    -40.92359115 </i>
    <i name="e_0_energy">    -40.92359115 </i>
   </energy>
  </scstep>
  <structure>
   <crystal>
    <varray name="basis" >
     <v>       5.97568841      -0.00000004       0.00000000 </v>
     <v>       2.98784394       5.17509773       0.00000000 </v>
     <v>       0.00000000       0.00000000      22.08389555 </v>
    </varray>
    <i name="volume">    682.93942721 </i>
    <varray name="rec_basis" >
     <v>       0.16734474      -0.09661652       0.00000000 </v>
     <v>       0.00000000       0.19323306      -0.00000000 </v>
     <v>      -0.00000000      -0.00000000       0.04528187 </v>
    </varray>
   </crystal>
   <varray name="positions" >
    <v>       0.33333300       0.33333300       0.49994621 </v>
    <v>       0.66666700       0.66666700       0.50005379 </v>
    <v>       0.00000000       0.00000000       0.44821600 </v>
    <v>       0.00000000       0.00000000       0.55178400 </v>
    <v>       0.63334514       0.00039113       0.57002876 </v>
    <v>       0.00039113       0.36626472       0.57002876 </v>
    <v>       0.36626472       0.63334514       0.57002876 </v>
    <v>       0.36665486       0.99960887       0.42997124 </v>
    <v>       0.99960887       0.63373528       0.42997124 </v>
    <v>       0.63373528       0.36665486       0.42997124 </v>
   </varray>
  </structure>
  <varray name="forces" >
   <v>       0.00000000      -0.00000000       0.00098540 </v>
   <v>       0.00000000       0.00000000      -0.00098540 </v>
   <v>       0.00000000      -0.00000000      -1.22317665 </v>
   <v>       0.00000000       0.00000000       1.22317665 </v>
   <v>      -0.72174439      -0.00810410      -0.37623163 </v>
   <v>       0.35385380       0.62910100      -0.37623163 </v>
   <v>       0.36789059      -0.62099690      -0.37623163 </v>
   <v>       0.72174439       0.00810410       0.37623163 </v>
   <v>      -0.35385380      -0.62910100       0.37623163 </v>
   <v>      -0.36789059       0.62099690       0.37623163 </v>
  </varray>
  <varray name="stress" >
   <v>      -0.36906404      -0.00000003      -0.00000000 </v>
   <v>       0.00000008      -0.36906401      -0.00000000 </v>
   <v>      -0.00000000       0.00000000      -0.73293189 </v>
  </varray>
  <energy>
   <i name="e_fr_energy">    -40.92359115 </i>
   <i name="e_wo_entrp">    -40.92359115 </i>
   <i name="e_0_energy">      0.00000000 </i>
  </energy>
  <time name="totalsc">  784.04  788.29</time>
 </calculation>
 <calculation>
  <scstep>
   <time name="dav">   22.70   23.15</time>
   <time name="total">   76.89   77.47</time>
   <energy>
    <i name="alphaZ">     42.37784108 </i>
    <i name="ewald">  10944.92659131 </i>
    <i name="hartreedc"> -14606.52743806 </i>
    <i name="XCdc">    118.86489905 </i>
    <i name="pawpsdc">   2527.33898097 </i>
    <i name="pawaedc">  -2612.20192716 </i>
    <i name="eentropy">      0.00000000 </i>
    <i name="bandstr">   -498.60690536 </i>
    <i name="atom">   4042.75775707 </i>
    <i name="e_fr_energy">    -41.07020110 </i>
    <i name="e_wo_entrp">    -41.07020110 </i>
    <i name="e_0_energy">    -41.07020110 </i>
   </energy>
  </scstep>
  <scstep>
   <time name="dav">   33.50   33.89</time>
   <time name="total">   87.50   88.32</time>
   <energy>
    <i name="e_fr_energy">    -41.28738303 </i>
    <i name="e_wo_entrp">    -41.28738303 </i>
    <i name="e_0_energy">    -41.28738303 </i>
   </energy>
  </scstep>
  <scstep>
   <time name="dav">   27.12   27.22</time>
   <time name="total">   81.02   81.67</time>
   <energy>
    <i name="e_fr_energy">    -41.09025823 </i>
    <i name="e_wo_entrp">    -41.09025823 </i>
    <i name="e_0_energy">    -41.09025823 </i>
   </energy>
  </scstep>
  <scstep>
   <time name="dav">   26.82   27.04</time>
   <time name="total">   80.44   81.28</time>
   <energy>
    <i name="e_fr_energy">    -41.08458650 </i>
    <i name="e_wo_entrp">    -41.08458650 </i>
    <i name="e_0_energy">    -41.08458650 </i>
   </energy>
  </scstep>
  <scstep>
   <time name="dav">   27.75   27.79</time>
   <time name="total">   81.89   82.14</time>
   <energy>
    <i name="e_fr_energy">    -41.08148742 </i>
    <i name="e_wo_entrp">    -41.08148742 </i>
    <i name="e_0_energy">    -41.08148742 </i>
   </energy>
  </scstep>
  <scstep>
   <time name="dav">   24.02   24.13</time>
   <time name="total">   78.11   78.47</time>
   <energy>
    <i name="e_fr_energy">    -41.08187627 </i>
    <i name="e_wo_entrp">    -41.08187627 </i>
    <i name="e_0_energy">    -41.08187627 </i>
   </energy>
  </scstep>
  <scstep>
   <time name="dav">   23.61   23.78</time>
   <time name="total">   75.64   75.89</time>
   <energy>
    <i name="alphaZ">     42.37784108 </i>
    <i name="ewald">  10944.92659131 </i>
    <i name="hartreedc"> -14598.16736429 </i>
    <i name="XCdc">    118.40515247 </i>
    <i name="pawpsdc">   2537.32441157 </i>
    <i name="pawaedc">  -2622.41258145 </i>
    <i name="eentropy">      0.00000000 </i>
    <i name="bandstr">   -506.29374973 </i>
    <i name="atom">   4042.75775707 </i>
    <i name="e_fr_energy">    -41.08194198 </i>
    <i name="e_wo_entrp">    -41.08194198 </i>
    <i name="e_0_energy">    -41.08194198 </i>
   </energy>
  </scstep>
  <structure>
   <crystal>
    <varray name="basis" >
     <v>       5.95649519      -0.00000004       0.00000000 </v>
     <v>       2.97824734       5.15847592      -0.00000000 </v>
     <v>      -0.00000000       0.00000000      22.02663699 </v>
    </varray>
    <i name="volume">    676.80007645 </i>
    <varray name="rec_basis" >
     <v>       0.16788396      -0.09692784       0.00000000 </v>
     <v>       0.00000000       0.19385571      -0.00000000 </v>
     <v>      -0.00000000       0.00000000       0.04539958 </v>
    </varray>
   </crystal>
   <varray name="positions" >
    <v>       0.33333300       0.33333300       0.49994883 </v>
    <v>       0.66666700       0.66666700       0.50005117 </v>
    <v>       0.00000000       0.00000000       0.44821600 </v>
    <v>       0.00000000       0.00000000       0.55178400 </v>
    <v>       0.62755005       0.00031304       0.56911480 </v>
    <v>       0.00031304       0.37213791       0.56911480 </v>
    <v>       0.37213791       0.62755005       0.56911480 </v>
    <v>       0.37244995       0.99968696       0.43088520 </v>
    <v>       0.99968696       0.62786209       0.43088520 </v>
    <v>       0.62786209       0.37244995       0.43088520 </v>
   </varray>
  </structure>
  <varray name="forces" >
   <v>      -0.00000000       0.00000000       0.00009254 </v>
   <v>      -0.00000000       0.00000000      -0.00009254 </v>
   <v>      -0.00000000       0.00000000      -1.39818626 </v>
   <v>      -0.00000000       0.00000000       1.39818626 </v>
   <v>      -0.36892044      -0.00662234      -0.27212836 </v>
   <v>       0.17872509       0.32280563      -0.27212836 </v>
   <v>       0.19019535      -0.31618329      -0.27212836 </v>
   <v>       0.36892044       0.00662234       0.27212836 </v>
   <v>      -0.17872509      -0.32280563       0.27212836 </v>
   <v>      -0.19019535       0.31618329       0.27212836 </v>
  </varray>
  <varray name="stress" >
   <v>      -1.98053542       0.00000038       0.00000000 </v>
   <v>      -0.00000015      -1.98053525       0.00000000 </v>
   <v>       0.00000000       0.00000000       1.07943570 </v>
  </varray>
  <energy>
   <i name="e_fr_energy">    -41.08194198 </i>
   <i name="e_wo_entrp">    -41.08194198 </i>
   <i name="e_0_energy">      0.00000000 </i>
  </energy>
  <time name="totalsc">  697.57  701.85</time>
 </calculation>
 <calculation>
  <scstep>
   <time name="dav">   23.20   23.42</time>
   <time name="total">   77.26   77.66</time>
   <energy>
    <i name="alphaZ">     42.78383335 </i>
    <i name="ewald">  11073.64300002 </i>
    <i name="hartreedc"> -14737.47434487 </i>
    <i name="XCdc">    119.08356037 </i>
    <i name="pawpsdc">   2537.71339044 </i>
    <i name="pawaedc">  -2622.81674949 </i>
    <i name="eentropy">      0.00000000 </i>
    <i name="bandstr">   -496.82633927 </i>
    <i name="atom">   4042.75775707 </i>
    <i name="e_fr_energy">    -41.13589239 </i>
    <i name="e_wo_entrp">    -41.13589239 </i>
    <i name="e_0_energy">    -41.13589239 </i>
   </energy>
  </scstep>
  <scstep>
   <time name="dav">   33.92   34.11</time>
   <time name="total">   88.04   88.39</time>
   <energy>
    <i name="e_fr_energy">    -41.36408589 </i>
    <i name="e_wo_entrp">    -41.36408589 </i>
    <i name="e_0_energy">    -41.36408589 </i>
   </energy>
  </scstep>
  <scstep>
   <time name="dav">   27.47   27.64</time>
   <time name="total">   81.84   82.54</time>
   <energy>
    <i name="e_fr_energy">    -41.15920602 </i>
    <i name="e_wo_entrp">    -41.15920602 </i>
    <i name="e_0_energy">    -41.15920602 </i>
   </energy>
  </scstep>
  <scstep>
   <time name="dav">   27.05   27.10</time>
   <time name="total">   82.32   83.08</time>
   <energy>
    <i name="e_fr_energy">    -41.15311978 </i>
    <i name="e_wo_entrp">    -41.15311978 </i>
    <i name="e_0_energy">    -41.15311978 </i>
   </energy>
  </scstep>
  <scstep>
   <time name="dav">   26.35   26.46</time>
   <time name="total">   80.19   80.66</time>
   <energy>
    <i name="e_fr_energy">    -41.14931388 </i>
    <i name="e_wo_entrp">    -41.14931388 </i>
    <i name="e_0_energy">    -41.14931388 </i>
   </energy>
  </scstep>
  <scstep>
   <time name="dav">   24.60   24.87</time>
   <time name="total">   78.74   79.12</time>
   <energy>
    <i name="e_fr_energy">    -41.14945089 </i>
    <i name="e_wo_entrp">    -41.14945089 </i>
    <i name="e_0_energy">    -41.14945089 </i>
   </energy>
  </scstep>
  <scstep>
   <time name="dav">   20.04   20.30</time>
   <time name="total">   71.93   72.39</time>
   <energy>
    <i name="alphaZ">     42.78383335 </i>
    <i name="ewald">  11073.64300002 </i>
    <i name="hartreedc"> -14728.30215702 </i>
    <i name="XCdc">    118.60387170 </i>
    <i name="pawpsdc">   2550.12888188 </i>
    <i name="pawaedc">  -2635.54009229 </i>
    <i name="eentropy">      0.00000000 </i>
    <i name="bandstr">   -505.22463267 </i>
    <i name="atom">   4042.75775707 </i>
    <i name="e_fr_energy">    -41.14953798 </i>
    <i name="e_wo_entrp">    -41.14953798 </i>
    <i name="e_0_energy">    -41.14953798 </i>
   </energy>
  </scstep>
  <structure>
   <crystal>
    <varray name="basis" >
     <v>       5.93629300      -0.00000004      -0.00000000 </v>
     <v>       2.96814624       5.14098031      -0.00000000 </v>
     <v>      -0.00000000       0.00000000      21.96636839 </v>
    </varray>
    <i name="volume">    670.37765991 </i>
    <varray name="rec_basis" >
     <v>       0.16845530      -0.09725771       0.00000000 </v>
     <v>       0.00000000       0.19451543      -0.00000000 </v>
     <v>       0.00000000       0.00000000       0.04552414 </v>
    </varray>
   </crystal>
   <varray name="positions" >
    <v>       0.33333300       0.33333300       0.49995158 </v>
    <v>       0.66666700       0.66666700       0.50004842 </v>
    <v>       0.00000000       0.00000000       0.44821600 </v>
    <v>       0.00000000       0.00000000       0.55178400 </v>
    <v>       0.62143066       0.00023058       0.56815029 </v>
    <v>       0.00023058       0.37833976       0.56815029 </v>
    <v>       0.37833976       0.62143066       0.56815029 </v>
    <v>       0.37856934       0.99976942       0.43184971 </v>
    <v>       0.99976942       0.62166024       0.43184971 </v>
    <v>       0.62166024       0.37856934       0.43184971 </v>
   </varray>
  </structure>
  <varray name="forces" >
   <v>      -0.00000000      -0.00000000       0.00147848 </v>
   <v>       0.00000000      -0.00000000      -0.00147848 </v>
   <v>       0.00000000      -0.00000000      -1.60030759 </v>
   <v>      -0.00000000       0.00000000       1.60030759 </v>
   <v>      -0.00758283      -0.00545943      -0.13053846 </v>
   <v>      -0.00093659       0.00929664      -0.13053846 </v>
   <v>       0.00851942      -0.00383721      -0.13053846 </v>
   <v>       0.00758283       0.00545943       0.13053846 </v>
   <v>       0.00093659      -0.00929664       0.13053846 </v>
   <v>      -0.00851942       0.00383721       0.13053846 </v>
  </varray>
  <varray name="stress" >
   <v>      -1.49690505      -0.00000200      -0.00000000 </v>
   <v>       0.00000217      -1.49690492      -0.00000000 </v>
   <v>       0.00000000      -0.00000000       5.16177783 </v>
  </varray>
  <energy>
   <i name="e_fr_energy">    -41.14953798 </i>
   <i name="e_wo_entrp">    -41.14953798 </i>
   <i name="e_0_energy">      0.00000000 </i>
  </energy>
  <time name="totalsc">  695.78  700.30</time>
 </calculation>
 <calculation>
  <scstep>
   <time name="dav">   25.35   25.45</time>
   <time name="total">   79.42   79.79</time>
   <energy>
    <i name="alphaZ">     42.84957082 </i>
    <i name="ewald">  11094.56416353 </i>
    <i name="hartreedc"> -14750.63050175 </i>
    <i name="XCdc">    118.71400930 </i>
    <i name="pawpsdc">   2550.56541402 </i>
    <i name="pawaedc">  -2635.99191799 </i>
    <i name="eentropy">      0.00000000 </i>
    <i name="bandstr">   -503.97893103 </i>
    <i name="atom">   4042.75775707 </i>
    <i name="e_fr_energy">    -41.15043604 </i>
    <i name="e_wo_entrp">    -41.15043604 </i>
    <i name="e_0_energy">    -41.15043604 </i>
   </energy>
  </scstep>
  <scstep>
   <time name="dav">   30.88   31.10</time>
   <time name="total">   85.18   85.54</time>
   <energy>
    <i name="e_fr_energy">    -41.15674737 </i>
    <i name="e_wo_entrp">    -41.15674737 </i>
    <i name="e_0_energy">    -41.15674737 </i>
   </energy>
  </scstep>
  <scstep>
   <time name="dav">   23.99   24.16</time>
   <time name="total">   77.91   78.46</time>
   <energy>
    <i name="e_fr_energy">    -41.15123344 </i>
    <i name="e_wo_entrp">    -41.15123344 </i>
    <i name="e_0_energy">    -41.15123344 </i>
   </energy>
  </scstep>
  <scstep>
   <time name="dav">   26.69   26.78</time>
   <time name="total">   80.84   81.01</time>
   <energy>
    <i name="e_fr_energy">    -41.15107802 </i>
    <i name="e_wo_entrp">    -41.15107802 </i>
    <i name="e_0_energy">    -41.15107802 </i>
   </energy>
  </scstep>
  <scstep>
   <time name="dav">   20.89   20.93</time>
   <time name="total">   72.87   73.06</time>
   <energy>
    <i name="alphaZ">     42.84957082 </i>
    <i name="ewald">  11094.56416353 </i>
    <i name="hartreedc"> -14748.91490273 </i>
    <i name="XCdc">    118.63778304 </i>
    <i name="pawpsdc">   2552.52644923 </i>
    <i name="pawaedc">  -2637.97489997 </i>
    <i name="eentropy">      0.00000000 </i>
    <i name="bandstr">   -505.59697168 </i>
    <i name="atom">   4042.75775707 </i>
    <i name="e_fr_energy">    -41.15105069 </i>
    <i name="e_wo_entrp">    -41.15105069 </i>
    <i name="e_0_energy">    -41.15105069 </i>
   </energy>
  </scstep>
  <structure>
   <crystal>
    <varray name="basis" >
     <v>       5.93304600      -0.00000004      -0.00000000 </v>
     <v>       2.96652274       5.13816832      -0.00000000 </v>
     <v>      -0.00000000       0.00000000      21.95668171 </v>
    </varray>
    <i name="volume">    669.34920313 </i>
    <varray name="rec_basis" >
     <v>       0.16854749      -0.09731093       0.00000000 </v>
     <v>       0.00000000       0.19462188      -0.00000000 </v>
     <v>       0.00000000       0.00000000       0.04554422 </v>
    </varray>
   </crystal>
   <varray name="positions" >
    <v>       0.33333300       0.33333300       0.49995203 </v>
    <v>       0.66666700       0.66666700       0.50004797 </v>
    <v>       0.00000000       0.00000000       0.44821600 </v>
    <v>       0.00000000       0.00000000       0.55178400 </v>
    <v>       0.62044377       0.00021728       0.56799485 </v>
    <v>       0.00021728       0.37933995       0.56799485 </v>
    <v>       0.37933995       0.62044377       0.56799485 </v>
    <v>       0.37955623       0.99978272       0.43200515 </v>
    <v>       0.99978272       0.62066005       0.43200515 </v>
    <v>       0.62066005       0.37955623       0.43200515 </v>
   </varray>
  </structure>
  <varray name="forces" >
   <v>      -0.00000000       0.00000000       0.00100892 </v>
   <v>      -0.00000000      -0.00000000      -0.00100892 </v>
   <v>      -0.00000000      -0.00000000      -1.63285804 </v>
   <v>      -0.00000000       0.00000000       1.63285804 </v>
   <v>       0.04321537      -0.00483732      -0.10898702 </v>
   <v>      -0.02579693      -0.03500695      -0.10898702 </v>
   <v>      -0.01741844       0.03984427      -0.10898702 </v>
   <v>      -0.04321537       0.00483732       0.10898702 </v>
   <v>       0.02579693       0.03500695       0.10898702 </v>
   <v>       0.01741844      -0.03984427       0.10898702 </v>
  </varray>
  <varray name="stress" >
   <v>      -1.07395761      -0.00000208      -0.00000000 </v>
   <v>       0.00000220      -1.07395752      -0.00000000 </v>
   <v>       0.00000000      -0.00000000       6.31002738 </v>
  </varray>
  <energy>
   <i name="e_fr_energy">    -41.15105069 </i>
   <i name="e_wo_entrp">    -41.15105069 </i>
   <i name="e_0_energy">      0.00000000 </i>
  </energy>
  <time name="totalsc">  531.74  534.31</time>
 </calculation>
 <calculation>
  <scstep>
   <time name="dav">   26.87   27.14</time>
   <time name="total">   80.71   81.50</time>
   <energy>
    <i name="alphaZ">     42.49752594 </i>
    <i name="ewald">  11479.32987703 </i>
    <i name="hartreedc"> -15105.14249574 </i>
    <i name="XCdc">    118.23229663 </i>
    <i name="pawpsdc">   2552.82700710 </i>
    <i name="pawaedc">  -2638.29446656 </i>
    <i name="eentropy">      0.00000000 </i>
    <i name="bandstr">   -533.50922394 </i>
    <i name="atom">   4042.75775707 </i>
    <i name="e_fr_energy">    -41.30172248 </i>
    <i name="e_wo_entrp">    -41.30172248 </i>
    <i name="e_0_energy">    -41.30172248 </i>
   </energy>
  </scstep>
  <scstep>
   <time name="dav">   28.10   28.27</time>
   <time name="total">   82.13   82.49</time>
   <energy>
    <i name="e_fr_energy">    -41.51453107 </i>
    <i name="e_wo_entrp">    -41.51453107 </i>
    <i name="e_0_energy">    -41.51453107 </i>
   </energy>
  </scstep>
  <scstep>
   <time name="dav">   27.95   28.04</time>
   <time name="total">   82.09   82.39</time>
   <energy>
    <i name="e_fr_energy">    -41.22042260 </i>
    <i name="e_wo_entrp">    -41.22042260 </i>
    <i name="e_0_energy">    -41.22042260 </i>
   </energy>
  </scstep>
  <scstep>
   <time name="dav">   30.70   30.86</time>
   <time name="total">   84.98   85.25</time>
   <energy>
    <i name="e_fr_energy">    -41.19447969 </i>
    <i name="e_wo_entrp">    -41.19447969 </i>
    <i name="e_0_energy">    -41.19447969 </i>
   </energy>
  </scstep>
  <scstep>
   <time name="dav">   32.02   32.13</time>
   <time name="total">   86.26   86.49</time>
   <energy>
    <i name="e_fr_energy">    -41.19334963 </i>
    <i name="e_wo_entrp">    -41.19334963 </i>
    <i name="e_0_energy">    -41.19334963 </i>
   </energy>
  </scstep>
  <scstep>
   <time name="dav">   25.10   25.19</time>
   <time name="total">   79.48   79.62</time>
   <energy>
    <i name="e_fr_energy">    -41.19288709 </i>
    <i name="e_wo_entrp">    -41.19288709 </i>
    <i name="e_0_energy">    -41.19288709 </i>
   </energy>
  </scstep>
  <scstep>
   <time name="dav">   22.59   22.92</time>
   <time name="total">   76.63   77.41</time>
   <energy>
    <i name="e_fr_energy">    -41.19249384 </i>
    <i name="e_wo_entrp">    -41.19249384 </i>
    <i name="e_0_energy">    -41.19249384 </i>
   </energy>
  </scstep>
  <scstep>
   <time name="dav">   19.78   19.91</time>
   <time name="total">   73.66   74.20</time>
   <energy>
    <i name="e_fr_energy">    -41.19205919 </i>
    <i name="e_wo_entrp">    -41.19205919 </i>
    <i name="e_0_energy">    -41.19205919 </i>
   </energy>
  </scstep>
  <scstep>
   <time name="dav">   20.07   20.23</time>
   <time name="total">   71.82   72.27</time>
   <energy>
    <i name="alphaZ">     42.49752594 </i>
    <i name="ewald">  11479.32987703 </i>
    <i name="hartreedc"> -15124.65983467 </i>
    <i name="XCdc">    118.63735827 </i>
    <i name="pawpsdc">   2553.31255045 </i>
    <i name="pawaedc">  -2638.79130046 </i>
    <i name="eentropy">      0.00000000 </i>
    <i name="bandstr">   -514.27598405 </i>
    <i name="atom">   4042.75775707 </i>
    <i name="e_fr_energy">    -41.19205044 </i>
    <i name="e_wo_entrp">    -41.19205044 </i>
    <i name="e_0_energy">    -41.19205044 </i>
   </energy>
  </scstep>
  <structure>
   <crystal>
    <varray name="basis" >
     <v>       5.91173837      -0.00000007      -0.00000000 </v>
     <v>       2.95586896       5.11971536      -0.00000000 </v>
     <v>      -0.00000000      -0.00000000      22.29844378 </v>
    </varray>
    <i name="volume">    674.89401908 </i>
    <varray name="rec_basis" >
     <v>       0.16915498      -0.09766167       0.00000000 </v>
     <v>       0.00000000       0.19532336       0.00000000 </v>
     <v>       0.00000000       0.00000000       0.04484618 </v>
    </varray>
   </crystal>
   <varray name="positions" >
    <v>       0.33333300       0.33333300       0.49995553 </v>
    <v>       0.66666700       0.66666700       0.50004447 </v>
    <v>       0.00000000       0.00000000       0.44821600 </v>
    <v>       0.00000000       0.00000000       0.55178400 </v>
    <v>       0.61941601       0.00013902       0.56745209 </v>
    <v>       0.00013902       0.38044597       0.56745209 </v>
    <v>       0.38044597       0.61941601       0.56745209 </v>
    <v>       0.38058399       0.99986098       0.43254791 </v>
    <v>       0.99986098       0.61955403       0.43254791 </v>
    <v>       0.61955403       0.38058399       0.43254791 </v>
   </varray>
  </structure>
  <varray name="forces" >
   <v>       0.00000000      -0.00000000       0.00461290 </v>
   <v>       0.00000000       0.00000000      -0.00461290 </v>
   <v>       0.00000000       0.00000000      -1.13790332 </v>
   <v>      -0.00000000      -0.00000000       1.13790332 </v>
   <v>       0.05958423      -0.00240247      -0.14571761 </v>
   <v>      -0.03187271      -0.05040022      -0.14571761 </v>
   <v>      -0.02771152       0.05280269      -0.14571761 </v>
   <v>      -0.05958423       0.00240247       0.14571761 </v>
   <v>       0.03187271       0.05040022       0.14571761 </v>
   <v>       0.02771152      -0.05280269       0.14571761 </v>
  </varray>
  <varray name="stress" >
   <v>       0.17515290       0.00000214       0.00000000 </v>
   <v>      -0.00000216       0.17515289       0.00000000 </v>
   <v>       0.00000000       0.00000000       3.67795423 </v>
  </varray>
  <energy>
   <i name="e_fr_energy">    -41.19205044 </i>
   <i name="e_wo_entrp">    -41.19205044 </i>
   <i name="e_0_energy">      0.00000000 </i>
  </energy>
  <time name="totalsc">  853.54  858.11</time>
 </calculation>
 <calculation>
  <scstep>
   <time name="dav">   27.62   27.84</time>
   <time name="total">   81.85   82.16</time>
   <energy>
    <i name="alphaZ">     41.93049887 </i>
    <i name="ewald">  12147.32757141 </i>
    <i name="hartreedc"> -15745.82248877 </i>
    <i name="XCdc">    117.99275440 </i>
    <i name="pawpsdc">   2553.22829291 </i>
    <i name="pawaedc">  -2638.70466345 </i>
    <i name="eentropy">      0.00000000 </i>
    <i name="bandstr">   -560.22940733 </i>
    <i name="atom">   4042.75775707 </i>
    <i name="e_fr_energy">    -41.51968490 </i>
    <i name="e_wo_entrp">    -41.51968490 </i>
    <i name="e_0_energy">    -41.51968490 </i>
   </energy>
  </scstep>
  <scstep>
   <time name="dav">   28.19   28.34</time>
   <time name="total">   82.43   82.70</time>
   <energy>
    <i name="e_fr_energy">    -42.08074524 </i>
    <i name="e_wo_entrp">    -42.08074524 </i>
    <i name="e_0_energy">    -42.08074524 </i>
   </energy>
  </scstep>
  <scstep>
   <time name="dav">   23.99   24.35</time>
   <time name="total">   77.97   78.50</time>
   <energy>
    <i name="e_fr_energy">    -41.29587998 </i>
    <i name="e_wo_entrp">    -41.29587998 </i>
    <i name="e_0_energy">    -41.29587998 </i>
   </energy>
  </scstep>
  <scstep>
   <time name="dav">   29.54   29.76</time>
   <time name="total">   83.74   83.99</time>
   <energy>
    <i name="e_fr_energy">    -41.22070458 </i>
    <i name="e_wo_entrp">    -41.22070458 </i>
    <i name="e_0_energy">    -41.22070458 </i>
   </energy>
  </scstep>
  <scstep>
   <time name="dav">   27.88   28.09</time>
   <time name="total">   81.88   82.45</time>
   <energy>
    <i name="e_fr_energy">    -41.21721882 </i>
    <i name="e_wo_entrp">    -41.21721882 </i>
    <i name="e_0_energy">    -41.21721882 </i>
   </energy>
  </scstep>
  <scstep>
   <time name="dav">   22.57   23.03</time>
   <time name="total">   76.51   77.43</time>
   <energy>
    <i name="e_fr_energy">    -41.21473404 </i>
    <i name="e_wo_entrp">    -41.21473404 </i>
    <i name="e_0_energy">    -41.21473404 </i>
   </energy>
  </scstep>
  <scstep>
   <time name="dav">   24.98   25.22</time>
   <time name="total">   79.14   79.75</time>
   <energy>
    <i name="e_fr_energy">    -41.21179476 </i>
    <i name="e_wo_entrp">    -41.21179476 </i>
    <i name="e_0_energy">    -41.21179476 </i>
   </energy>
  </scstep>
  <scstep>
   <time name="dav">   23.37   23.50</time>
   <time name="total">   77.52   77.69</time>
   <energy>
    <i name="e_fr_energy">    -41.20894006 </i>
    <i name="e_wo_entrp">    -41.20894006 </i>
    <i name="e_0_energy">    -41.20894006 </i>
   </energy>
  </scstep>
  <scstep>
   <time name="dav">   25.25   25.47</time>
   <time name="total">   79.00   79.88</time>
   <energy>
    <i name="e_fr_energy">    -41.20641803 </i>
    <i name="e_wo_entrp">    -41.20641803 </i>
    <i name="e_0_energy">    -41.20641803 </i>
   </energy>
  </scstep>
  <scstep>
   <time name="dav">   23.40   23.74</time>
   <time name="total">   77.60   78.06</time>
   <energy>
    <i name="e_fr_energy">    -41.20619263 </i>
    <i name="e_wo_entrp">    -41.20619263 </i>
    <i name="e_0_energy">    -41.20619263 </i>
   </energy>
  </scstep>
  <scstep>
   <time name="dav">   25.34   25.42</time>
   <time name="total">   79.45   79.66</time>
   <energy>
    <i name="e_fr_energy">    -41.20216261 </i>
    <i name="e_wo_entrp">    -41.20216261 </i>
    <i name="e_0_energy">    -41.20216261 </i>
   </energy>
  </scstep>
  <scstep>
   <time name="dav">   22.87   23.01</time>
   <time name="total">   77.04   77.27</time>
   <energy>
    <i name="e_fr_energy">    -41.20097560 </i>
    <i name="e_wo_entrp">    -41.20097560 </i>
    <i name="e_0_energy">    -41.20097560 </i>
   </energy>
  </scstep>
  <scstep>
   <time name="dav">   24.48   24.61</time>
   <time name="total">   78.55   78.89</time>
   <energy>
    <i name="e_fr_energy">    -41.20155776 </i>
    <i name="e_wo_entrp">    -41.20155776 </i>
    <i name="e_0_energy">    -41.20155776 </i>
   </energy>
  </scstep>
  <scstep>
   <time name="dav">   26.00   26.13</time>
   <time name="total">   79.97   80.42</time>
   <energy>
    <i name="e_fr_energy">    -41.20313095 </i>
    <i name="e_wo_entrp">    -41.20313095 </i>
    <i name="e_0_energy">    -41.20313095 </i>
   </energy>
  </scstep>
  <scstep>
   <time name="dav">   24.42   24.53</time>
   <time name="total">   78.50   78.76</time>
   <energy>
    <i name="e_fr_energy">    -41.20457141 </i>
    <i name="e_wo_entrp">    -41.20457141 </i>
    <i name="e_0_energy">    -41.20457141 </i>
   </energy>
  </scstep>
  <scstep>
   <time name="dav">   25.51   25.61</time>
   <time name="total">   79.29   79.81</time>
   <energy>
    <i name="e_fr_energy">    -41.20507184 </i>
    <i name="e_wo_entrp">    -41.20507184 </i>
    <i name="e_0_energy">    -41.20507184 </i>
   </energy>
  </scstep>
  <scstep>
   <time name="dav">   21.70   21.90</time>
   <time name="total">   75.59   76.07</time>
   <energy>
    <i name="e_fr_energy">    -41.20540719 </i>
    <i name="e_wo_entrp">    -41.20540719 </i>
    <i name="e_0_energy">    -41.20540719 </i>
   </energy>
  </scstep>
  <scstep>
   <time name="dav">   21.56   21.63</time>
   <time name="total">   75.69   75.88</time>
   <energy>
    <i name="e_fr_energy">    -41.20575658 </i>
    <i name="e_wo_entrp">    -41.20575658 </i>
    <i name="e_0_energy">    -41.20575658 </i>
   </energy>
  </scstep>
  <scstep>
   <time name="dav">   19.71   19.79</time>
   <time name="total">   73.83   74.01</time>
   <energy>
    <i name="e_fr_energy">    -41.20591905 </i>
    <i name="e_wo_entrp">    -41.20591905 </i>
    <i name="e_0_energy">    -41.20591905 </i>
   </energy>
  </scstep>
  <scstep>
   <time name="dav">   20.18   20.22</time>
   <time name="total">   74.27   74.51</time>
   <energy>
    <i name="e_fr_energy">    -41.20607217 </i>
    <i name="e_wo_entrp">    -41.20607217 </i>
    <i name="e_0_energy">    -41.20607217 </i>
   </energy>
  </scstep>
  <scstep>
   <time name="dav">   18.32   18.36</time>
   <time name="total">   70.10   70.44</time>
   <energy>
    <i name="alphaZ">     41.93049887 </i>
    <i name="ewald">  12147.32757141 </i>
    <i name="hartreedc"> -15796.72513578 </i>
    <i name="XCdc">    118.71687684 </i>
    <i name="pawpsdc">   2553.40562251 </i>
    <i name="pawaedc">  -2638.86478764 </i>
    <i name="eentropy">      0.00000000 </i>
    <i name="bandstr">   -509.75453042 </i>
    <i name="atom">   4042.75775707 </i>
    <i name="e_fr_energy">    -41.20612715 </i>
    <i name="e_wo_entrp">    -41.20612715 </i>
    <i name="e_0_energy">    -41.20612715 </i>
   </energy>
  </scstep>
  <structure>
   <crystal>
    <varray name="basis" >
     <v>       5.87550730      -0.00000013      -0.00000000 </v>
     <v>       2.93775348       5.08833831      -0.00000000 </v>
     <v>      -0.00000000      -0.00000000      22.87956924 </v>
    </varray>
    <i name="volume">    684.02062594 </i>
    <varray name="rec_basis" >
     <v>       0.17019807      -0.09826390       0.00000000 </v>
     <v>       0.00000000       0.19652781       0.00000000 </v>
     <v>       0.00000000       0.00000000       0.04370712 </v>
    </varray>
   </crystal>
   <varray name="positions" >
    <v>       0.33333300       0.33333300       0.49996141 </v>
    <v>       0.66666700       0.66666700       0.50003859 </v>
    <v>       0.00000000       0.00000000       0.44821600 </v>
    <v>       0.00000000       0.00000000       0.55178400 </v>
    <v>       0.61766212       0.00000547       0.56654335 </v>
    <v>       0.00000547       0.38233342       0.56654335 </v>
    <v>       0.38233342       0.61766212       0.56654335 </v>
    <v>       0.38233788       0.99999453       0.43345665 </v>
    <v>       0.99999453       0.61766658       0.43345665 </v>
    <v>       0.61766658       0.38233788       0.43345665 </v>
   </varray>
  </structure>
  <varray name="forces" >
   <v>       0.00000000       0.00000000       0.00653055 </v>
   <v>       0.00000000       0.00000000      -0.00653055 </v>
   <v>       0.00000000       0.00000000      -0.42656123 </v>
   <v>       0.00000000       0.00000000       0.42656123 </v>
   <v>       0.07664201       0.00147177      -0.19299242 </v>
   <v>      -0.03704641      -0.06710981      -0.19299242 </v>
   <v>      -0.03959560       0.06563804      -0.19299242 </v>
   <v>      -0.07664201      -0.00147177       0.19299242 </v>
   <v>       0.03704641       0.06710981       0.19299242 </v>
   <v>       0.03959560      -0.06563804       0.19299242 </v>
  </varray>
  <varray name="stress" >
   <v>       2.69721002      -0.00000033       0.00000000 </v>
   <v>       0.00000004       2.69720980       0.00000000 </v>
   <v>       0.00000000       0.00000000      -1.91672465 </v>
  </varray>
  <energy>
   <i name="e_fr_energy">    -41.20612715 </i>
   <i name="e_wo_entrp">    -41.20612715 </i>
   <i name="e_0_energy">      0.00000000 </i>
  </energy>
  <time name="totalsc"> 1775.45 1784.48</time>
 </calculation>
 <calculation>
  <scstep>
   <time name="dav">   25.77   26.13</time>
   <time name="total">   79.80   80.43</time>
   <energy>
    <i name="alphaZ">     42.06405084 </i>
    <i name="ewald">  11984.55459225 </i>
    <i name="hartreedc"> -15645.09753775 </i>
    <i name="XCdc">    118.87062902 </i>
    <i name="pawpsdc">   2553.39616477 </i>
    <i name="pawaedc">  -2638.85584006 </i>
    <i name="eentropy">      0.00000000 </i>
    <i name="bandstr">   -498.91525232 </i>
    <i name="atom">   4042.75775707 </i>
    <i name="e_fr_energy">    -41.22543617 </i>
    <i name="e_wo_entrp">    -41.22543617 </i>
    <i name="e_0_energy">    -41.22543617 </i>
   </energy>
  </scstep>
  <scstep>
   <time name="dav">   23.70   23.79</time>
   <time name="total">   77.72   78.07</time>
   <energy>
    <i name="e_fr_energy">    -41.25371516 </i>
    <i name="e_wo_entrp">    -41.25371516 </i>
    <i name="e_0_energy">    -41.25371516 </i>
   </energy>
  </scstep>
  <scstep>
   <time name="dav">   26.25   26.52</time>
   <time name="total">   80.07   80.71</time>
   <energy>
    <i name="e_fr_energy">    -41.21106167 </i>
[...]
        <r>  0.0008  0.0189  0.0305  0.0032  0.0000  0.0000  0.0000  0.0000  0.0000 </r>
        <r>  0.0000  0.0066  0.0000  0.0198  0.0000  0.0000  0.0000  0.0000  0.0000 </r>
        <r>  0.0008  0.0058  0.0303  0.0163  0.0000  0.0000  0.0000  0.0000  0.0000 </r>
       </set>
       <set comment="band 30">
        <r>  0.0012  0.0016  0.0045  0.0008  0.0512  0.0292  0.0077  0.0570  0.1076 </r>
        <r>  0.0012  0.0016  0.0045  0.0008  0.0512  0.0292  0.0077  0.0570  0.1076 </r>
        <r>  0.0016  0.0142  0.0005  0.0047  0.0010  0.0000  0.0001  0.0000  0.0003 </r>
        <r>  0.0016  0.0142  0.0005  0.0047  0.0010  0.0000  0.0001  0.0000  0.0003 </r>
        <r>  0.0006  0.0152  0.0071  0.0056  0.0000  0.0000  0.0000  0.0000  0.0000 </r>
        <r>  0.0036  0.0152  0.0366  0.0052  0.0000  0.0000  0.0000  0.0000  0.0000 </r>
        <r>  0.0006  0.0123  0.0072  0.0083  0.0000  0.0000  0.0000  0.0000  0.0000 </r>
        <r>  0.0006  0.0152  0.0071  0.0056  0.0000  0.0000  0.0000  0.0000  0.0000 </r>
        <r>  0.0036  0.0152  0.0366  0.0052  0.0000  0.0000  0.0000  0.0000  0.0000 </r>
        <r>  0.0006  0.0123  0.0072  0.0083  0.0000  0.0000  0.0000  0.0000  0.0000 </r>
       </set>
       <set comment="band 31">
        <r>  0.0017  0.0038  0.0000  0.0044  0.0005  0.0591  0.0224  0.0266  0.0015 </r>
        <r>  0.0017  0.0038  0.0000  0.0044  0.0005  0.0591  0.0224  0.0266  0.0015 </r>
        <r>  0.0072  0.0006  0.0847  0.0002  0.0000  0.0000  0.0065  0.0000  0.0000 </r>
        <r>  0.0072  0.0006  0.0847  0.0002  0.0000  0.0000  0.0065  0.0000  0.0000 </r>
        <r>  0.0013  0.0001  0.0106  0.0189  0.0000  0.0000  0.0000  0.0000  0.0000 </r>
        <r>  0.0024  0.0137  0.0427  0.0045  0.0000  0.0000  0.0000  0.0000  0.0000 </r>
        <r>  0.0013  0.0154  0.0107  0.0036  0.0000  0.0000  0.0000  0.0000  0.0000 </r>
        <r>  0.0013  0.0001  0.0106  0.0189  0.0000  0.0000  0.0000  0.0000  0.0000 </r>
        <r>  0.0024  0.0137  0.0427  0.0045  0.0000  0.0000  0.0000  0.0000  0.0000 </r>
        <r>  0.0013  0.0154  0.0107  0.0036  0.0000  0.0000  0.0000  0.0000  0.0000 </r>
       </set>
       <set comment="band 32">
        <r>  0.0000  0.0001  0.0000  0.0001  0.0266  0.0334  0.0015  0.0994  0.0549 </r>
        <r>  0.0000  0.0001  0.0000  0.0001  0.0266  0.0334  0.0015  0.0994  0.0549 </r>
        <r>  0.0081  0.0010  0.0131  0.0003  0.0005  0.0001  0.0033  0.0000  0.0002 </r>
        <r>  0.0081  0.0010  0.0131  0.0003  0.0005  0.0001  0.0033  0.0000  0.0002 </r>
        <r>  0.0020  0.0066  0.0138  0.0119  0.0000  0.0000  0.0000  0.0000  0.0000 </r>
        <r>  0.0099  0.0003  0.0527  0.0001  0.0000  0.0000  0.0000  0.0000  0.0000 </r>
        <r>  0.0020  0.0161  0.0138  0.0024  0.0000  0.0000  0.0000  0.0000  0.0000 </r>
        <r>  0.0020  0.0066  0.0138  0.0119  0.0000  0.0000  0.0000  0.0000  0.0000 </r>
        <r>  0.0099  0.0003  0.0527  0.0001  0.0000  0.0000  0.0000  0.0000  0.0000 </r>
        <r>  0.0020  0.0161  0.0138  0.0024  0.0000  0.0000  0.0000  0.0000  0.0000 </r>
       </set>
       <set comment="band 33">
        <r>  0.0001  0.0003  0.0001  0.0002  0.0237  0.0926  0.0072  0.0893  0.0193 </r>
        <r>  0.0001  0.0003  0.0001  0.0002  0.0237  0.0926  0.0072  0.0893  0.0193 </r>
        <r>  0.0000  0.0024  0.0000  0.0071  0.0006  0.0002  0.0000  0.0006  0.0018 </r>
        <r>  0.0000  0.0024  0.0000  0.0071  0.0006  0.0002  0.0000  0.0006  0.0018 </r>
        <r>  0.0061  0.0234  0.0167  0.0107  0.0000  0.0000  0.0000  0.0000  0.0000 </r>
        <r>  0.0000  0.0061  0.0000  0.0182  0.0000  0.0000  0.0000  0.0000  0.0000 </r>
        <r>  0.0061  0.0056  0.0166  0.0285  0.0000  0.0000  0.0000  0.0000  0.0000 </r>
        <r>  0.0061  0.0234  0.0167  0.0107  0.0000  0.0000  0.0000  0.0000  0.0000 </r>
        <r>  0.0000  0.0061  0.0000  0.0182  0.0000  0.0000  0.0000  0.0000  0.0000 </r>
        <r>  0.0061  0.0056  0.0166  0.0285  0.0000  0.0000  0.0000  0.0000  0.0000 </r>
       </set>
       <set comment="band 34">
        <r>  0.0001  0.0002  0.0000  0.0001  0.0802  0.0583  0.0071  0.0318  0.0270 </r>
        <r>  0.0001  0.0002  0.0000  0.0001  0.0802  0.0583  0.0071  0.0318  0.0270 </r>
        <r>  0.0098  0.0006  0.0026  0.0002  0.0002  0.0006  0.0030  0.0002  0.0001 </r>
        <r>  0.0098  0.0006  0.0026  0.0002  0.0002  0.0006  0.0030  0.0002  0.0001 </r>
        <r>  0.0042  0.0104  0.0432  0.0024  0.0000  0.0000  0.0000  0.0000  0.0000 </r>
        <r>  0.0019  0.0205  0.0094  0.0069  0.0000  0.0000  0.0000  0.0000  0.0000 </r>
        <r>  0.0042  0.0040  0.0433  0.0088  0.0000  0.0000  0.0000  0.0000  0.0000 </r>
        <r>  0.0042  0.0104  0.0432  0.0024  0.0000  0.0000  0.0000  0.0000  0.0000 </r>
        <r>  0.0019  0.0205  0.0094  0.0069  0.0000  0.0000  0.0000  0.0000  0.0000 </r>
        <r>  0.0042  0.0040  0.0433  0.0088  0.0000  0.0000  0.0000  0.0000  0.0000 </r>
       </set>
       <set comment="band 35">
        <r>  0.0004  0.0002  0.0004  0.0002  0.0117  0.0754  0.0000  0.0878  0.0132 </r>
        <r>  0.0004  0.0002  0.0004  0.0002  0.0117  0.0754  0.0000  0.0878  0.0132 </r>
        <r>  0.0000  0.0007  0.0000  0.0020  0.0002  0.0000  0.0000  0.0000  0.0005 </r>
        <r>  0.0000  0.0007  0.0000  0.0020  0.0002  0.0000  0.0000  0.0000  0.0005 </r>
        <r>  0.0012  0.0603  0.0013  0.0003  0.0000  0.0000  0.0000  0.0000  0.0000 </r>
        <r>  0.0000  0.0142  0.0000  0.0427  0.0000  0.0000  0.0000  0.0000  0.0000 </r>
        <r>  0.0012  0.0121  0.0013  0.0485  0.0000  0.0000  0.0000  0.0000  0.0000 </r>
        <r>  0.0012  0.0603  0.0013  0.0003  0.0000  0.0000  0.0000  0.0000  0.0000 </r>
        <r>  0.0000  0.0142  0.0000  0.0427  0.0000  0.0000  0.0000  0.0000  0.0000 </r>
        <r>  0.0012  0.0121  0.0013  0.0485  0.0000  0.0000  0.0000  0.0000  0.0000 </r>
       </set>
       <set comment="band 36">
        <r>  0.0000  0.0018  0.0004  0.0012  0.0025  0.0040  0.0000  0.0040  0.0058 </r>
        <r>  0.0000  0.0018  0.0004  0.0012  0.0025  0.0040  0.0000  0.0040  0.0058 </r>
        <r>  0.0916  0.0004  0.0099  0.0001  0.0000  0.0000  0.0035  0.0000  0.0000 </r>
        <r>  0.0916  0.0004  0.0099  0.0001  0.0000  0.0000  0.0035  0.0000  0.0000 </r>
        <r>  0.0055  0.0056  0.0010  0.0516  0.0000  0.0000  0.0000  0.0000  0.0000 </r>
        <r>  0.0034  0.0442  0.0081  0.0147  0.0000  0.0000  0.0000  0.0000  0.0000 </r>
        <r>  0.0055  0.0253  0.0010  0.0319  0.0000  0.0000  0.0000  0.0000  0.0000 </r>
        <r>  0.0055  0.0056  0.0010  0.0516  0.0000  0.0000  0.0000  0.0000  0.0000 </r>
        <r>  0.0034  0.0442  0.0081  0.0147  0.0000  0.0000  0.0000  0.0000  0.0000 </r>
        <r>  0.0055  0.0253  0.0010  0.0319  0.0000  0.0000  0.0000  0.0000  0.0000 </r>
       </set>
       <set comment="band 37">
        <r>  0.0000  0.0005  0.0000  0.0011  0.0081  0.0271  0.0004  0.0161  0.0049 </r>
        <r>  0.0000  0.0005  0.0000  0.0011  0.0081  0.0271  0.0004  0.0161  0.0049 </r>
        <r>  0.0423  0.0002  0.0775  0.0001  0.0000  0.0000  0.0019  0.0000  0.0000 </r>
        <r>  0.0423  0.0002  0.0775  0.0001  0.0000  0.0000  0.0019  0.0000  0.0000 </r>
        <r>  0.0007  0.0006  0.0211  0.0326  0.0000  0.0000  0.0000  0.0000  0.0000 </r>
        <r>  0.0005  0.0180  0.0082  0.0060  0.0000  0.0000  0.0000  0.0000  0.0000 </r>
        <r>  0.0007  0.0207  0.0211  0.0125  0.0000  0.0000  0.0000  0.0000  0.0000 </r>
        <r>  0.0007  0.0006  0.0211  0.0326  0.0000  0.0000  0.0000  0.0000  0.0000 </r>
        <r>  0.0005  0.0180  0.0082  0.0060  0.0000  0.0000  0.0000  0.0000  0.0000 </r>
        <r>  0.0007  0.0207  0.0211  0.0125  0.0000  0.0000  0.0000  0.0000  0.0000 </r>
       </set>
       <set comment="band 38">
        <r>  0.0345  0.0005  0.0033  0.0018  0.0012  0.0004  0.0020  0.0010  0.0009 </r>
        <r>  0.0345  0.0005  0.0033  0.0018  0.0012  0.0004  0.0020  0.0010  0.0009 </r>
        <r>  0.0003  0.0599  0.0004  0.0229  0.0094  0.0039  0.0002  0.0015  0.0036 </r>
        <r>  0.0003  0.0599  0.0004  0.0229  0.0094  0.0039  0.0002  0.0015  0.0036 </r>
        <r>  0.0024  0.0005  0.0008  0.0045  0.0000  0.0000  0.0000  0.0000  0.0000 </r>
        <r>  0.0143  0.0301  0.0004  0.0096  0.0000  0.0000  0.0000  0.0000  0.0000 </r>
        <r>  0.0019  0.0016  0.0007  0.0025  0.0000  0.0000  0.0000  0.0000  0.0000 </r>
        <r>  0.0024  0.0005  0.0008  0.0045  0.0000  0.0000  0.0000  0.0000  0.0000 </r>
        <r>  0.0143  0.0301  0.0004  0.0096  0.0000  0.0000  0.0000  0.0000  0.0000 </r>
        <r>  0.0019  0.0016  0.0007  0.0025  0.0000  0.0000  0.0000  0.0000  0.0000 </r>
       </set>
       <set comment="band 39">
        <r>  0.0250  0.0031  0.0031  0.0024  0.0042  0.0015  0.0032  0.0011  0.0020 </r>
        <r>  0.0250  0.0031  0.0031  0.0024  0.0042  0.0015  0.0032  0.0011  0.0020 </r>
        <r>  0.0000  0.0211  0.0000  0.0547  0.0029  0.0012  0.0000  0.0032  0.0073 </r>
        <r>  0.0000  0.0211  0.0000  0.0547  0.0029  0.0012  0.0000  0.0032  0.0073 </r>
        <r>  0.0082  0.0123  0.0001  0.0256  0.0000  0.0000  0.0000  0.0000  0.0000 </r>
        <r>  0.0000  0.0008  0.0000  0.0038  0.0000  0.0000  0.0000  0.0000  0.0000 </r>
        <r>  0.0087  0.0380  0.0001  0.0007  0.0000  0.0000  0.0000  0.0000  0.0000 </r>
        <r>  0.0082  0.0123  0.0001  0.0256  0.0000  0.0000  0.0000  0.0000  0.0000 </r>
        <r>  0.0000  0.0008  0.0000  0.0038  0.0000  0.0000  0.0000  0.0000  0.0000 </r>
        <r>  0.0087  0.0380  0.0001  0.0007  0.0000  0.0000  0.0000  0.0000  0.0000 </r>
       </set>
       <set comment="band 40">
        <r>  0.0089  0.0002  0.0039  0.0004  0.0028  0.0037  0.0018  0.0035  0.0055 </r>
        <r>  0.0089  0.0002  0.0039  0.0004  0.0028  0.0037  0.0018  0.0035  0.0055 </r>
        <r>  0.0000  0.0211  0.0000  0.0665  0.0029  0.0002  0.0000  0.0007  0.0092 </r>
        <r>  0.0000  0.0211  0.0000  0.0665  0.0029  0.0002  0.0000  0.0007  0.0092 </r>
        <r>  0.0084  0.0090  0.0020  0.0135  0.0000  0.0000  0.0000  0.0000  0.0000 </r>
        <r>  0.0000  0.0033  0.0000  0.0092  0.0000  0.0000  0.0000  0.0000  0.0000 </r>
        <r>  0.0083  0.0217  0.0018  0.0006  0.0000  0.0000  0.0000  0.0000  0.0000 </r>
        <r>  0.0084  0.0090  0.0020  0.0135  0.0000  0.0000  0.0000  0.0000  0.0000 </r>
        <r>  0.0000  0.0033  0.0000  0.0092  0.0000  0.0000  0.0000  0.0000  0.0000 </r>
        <r>  0.0083  0.0217  0.0018  0.0006  0.0000  0.0000  0.0000  0.0000  0.0000 </r>
       </set>
       <set comment="band 41">
        <r>  0.0093  0.0013  0.0036  0.0010  0.0028  0.0013  0.0013  0.0005  0.0081 </r>
        <r>  0.0093  0.0013  0.0036  0.0010  0.0028  0.0013  0.0013  0.0005  0.0081 </r>
        <r>  0.0173  0.0252  0.0486  0.0074  0.0051  0.0005  0.0093  0.0002  0.0015 </r>
        <r>  0.0173  0.0252  0.0486  0.0074  0.0051  0.0005  0.0093  0.0002  0.0015 </r>
        <r>  0.0004  0.0007  0.0087  0.0020  0.0000  0.0000  0.0000  0.0000  0.0000 </r>
        <r>  0.0072  0.0049  0.0087  0.0018  0.0000  0.0000  0.0000  0.0000  0.0000 </r>
        <r>  0.0005  0.0009  0.0089  0.0020  0.0000  0.0000  0.0000  0.0000  0.0000 </r>
        <r>  0.0004  0.0007  0.0087  0.0020  0.0000  0.0000  0.0000  0.0000  0.0000 </r>
        <r>  0.0072  0.0049  0.0087  0.0018  0.0000  0.0000  0.0000  0.0000  0.0000 </r>
        <r>  0.0005  0.0009  0.0089  0.0020  0.0000  0.0000  0.0000  0.0000  0.0000 </r>
       </set>
       <set comment="band 42">
        <r>  0.0081  0.0018  0.0018  0.0008  0.0051  0.0009  0.0018  0.0022  0.0017 </r>
        <r>  0.0081  0.0018  0.0018  0.0008  0.0051  0.0009  0.0018  0.0022  0.0017 </r>
        <r>  0.0173  0.0441  0.0261  0.0146  0.0079  0.0008  0.0042  0.0003  0.0026 </r>
        <r>  0.0173  0.0441  0.0261  0.0146  0.0079  0.0008  0.0042  0.0003  0.0026 </r>
        <r>  0.0018  0.0010  0.0014  0.0000  0.0000  0.0000  0.0000  0.0000  0.0000 </r>
        <r>  0.0127  0.0174  0.0173  0.0058  0.0000  0.0000  0.0000  0.0000  0.0000 </r>
        <r>  0.0018  0.0003  0.0014  0.0007  0.0000  0.0000  0.0000  0.0000  0.0000 </r>
        <r>  0.0018  0.0010  0.0014  0.0000  0.0000  0.0000  0.0000  0.0000  0.0000 </r>
        <r>  0.0127  0.0174  0.0173  0.0058  0.0000  0.0000  0.0000  0.0000  0.0000 </r>
        <r>  0.0018  0.0003  0.0014  0.0007  0.0000  0.0000  0.0000  0.0000  0.0000 </r>
       </set>
       <set comment="band 43">
        <r>  0.0206  0.0033  0.0056  0.0063  0.0016  0.0003  0.0013  0.0002  0.0015 </r>
        <r>  0.0206  0.0033  0.0056  0.0063  0.0016  0.0003  0.0013  0.0002  0.0015 </r>
        <r>  0.0015  0.0107  0.0007  0.0035  0.0014  0.0013  0.0007  0.0004  0.0005 </r>
        <r>  0.0015  0.0107  0.0007  0.0035  0.0014  0.0013  0.0007  0.0004  0.0005 </r>
        <r>  0.0007  0.0043  0.0006  0.0001  0.0000  0.0000  0.0000  0.0000  0.0000 </r>
        <r>  0.0002  0.0070  0.0091  0.0023  0.0000  0.0000  0.0000  0.0000  0.0000 </r>
        <r>  0.0007  0.0014  0.0007  0.0030  0.0000  0.0000  0.0000  0.0000  0.0000 </r>
        <r>  0.0007  0.0043  0.0006  0.0001  0.0000  0.0000  0.0000  0.0000  0.0000 </r>
        <r>  0.0002  0.0070  0.0091  0.0023  0.0000  0.0000  0.0000  0.0000  0.0000 </r>
        <r>  0.0007  0.0014  0.0007  0.0030  0.0000  0.0000  0.0000  0.0000  0.0000 </r>
       </set>
       <set comment="band 44">
        <r>  0.0067  0.0040  0.0030  0.0021  0.0017  0.0002  0.0008  0.0001  0.0022 </r>
        <r>  0.0067  0.0040  0.0030  0.0021  0.0017  0.0002  0.0008  0.0001  0.0022 </r>
        <r>  0.0000  0.0011  0.0000  0.0028  0.0001  0.0002  0.0000  0.0005  0.0004 </r>
        <r>  0.0000  0.0011  0.0000  0.0028  0.0001  0.0002  0.0000  0.0005  0.0004 </r>
        <r>  0.0020  0.0014  0.0080  0.0008  0.0000  0.0000  0.0000  0.0000  0.0000 </r>
        <r>  0.0000  0.0009  0.0000  0.0028  0.0000  0.0000  0.0000  0.0000  0.0000 </r>
        <r>  0.0019  0.0015  0.0079  0.0005  0.0000  0.0000  0.0000  0.0000  0.0000 </r>
        <r>  0.0020  0.0014  0.0080  0.0008  0.0000  0.0000  0.0000  0.0000  0.0000 </r>
        <r>  0.0000  0.0009  0.0000  0.0028  0.0000  0.0000  0.0000  0.0000  0.0000 </r>
        <r>  0.0019  0.0015  0.0079  0.0005  0.0000  0.0000  0.0000  0.0000  0.0000 </r>
       </set>
       <set comment="band 45">
        <r>  0.0072  0.0022  0.0018  0.0007  0.0012  0.0001  0.0036  0.0001  0.0033 </r>
        <r>  0.0072  0.0022  0.0018  0.0007  0.0012  0.0001  0.0036  0.0001  0.0033 </r>
        <r>  0.0043  0.0039  0.0054  0.0014  0.0005  0.0011  0.0036  0.0004  0.0002 </r>
        <r>  0.0043  0.0039  0.0054  0.0014  0.0005  0.0011  0.0036  0.0004  0.0002 </r>
        <r>  0.0000  0.0025  0.0002  0.0011  0.0000  0.0000  0.0000  0.0000  0.0000 </r>
        <r>  0.0028  0.0010  0.0010  0.0003  0.0000  0.0000  0.0000  0.0000  0.0000 </r>
        <r>  0.0001  0.0001  0.0002  0.0038  0.0000  0.0000  0.0000  0.0000  0.0000 </r>
        <r>  0.0000  0.0025  0.0002  0.0011  0.0000  0.0000  0.0000  0.0000  0.0000 </r>
        <r>  0.0028  0.0010  0.0010  0.0003  0.0000  0.0000  0.0000  0.0000  0.0000 </r>
        <r>  0.0001  0.0001  0.0002  0.0038  0.0000  0.0000  0.0000  0.0000  0.0000 </r>
       </set>
       <set comment="band 46">
        <r>  0.0022  0.0008  0.0002  0.0012  0.0001  0.0000  0.0020  0.0000  0.0001 </r>
        <r>  0.0022  0.0008  0.0002  0.0012  0.0001  0.0000  0.0020  0.0000  0.0001 </r>
        <r>  0.0000  0.0012  0.0000  0.0036  0.0001  0.0000  0.0000  0.0000  0.0003 </r>
        <r>  0.0000  0.0012  0.0000  0.0036  0.0001  0.0000  0.0000  0.0000  0.0003 </r>
        <r>  0.0019  0.0005  0.0025  0.0030  0.0000  0.0000  0.0000  0.0000  0.0000 </r>
        <r>  0.0000  0.0003  0.0000  0.0009  0.0000  0.0000  0.0000  0.0000  0.0000 </r>
        <r>  0.0019  0.0028  0.0025  0.0007  0.0000  0.0000  0.0000  0.0000  0.0000 </r>
        <r>  0.0019  0.0005  0.0025  0.0030  0.0000  0.0000  0.0000  0.0000  0.0000 </r>
        <r>  0.0000  0.0003  0.0000  0.0009  0.0000  0.0000  0.0000  0.0000  0.0000 </r>
        <r>  0.0019  0.0028  0.0025  0.0007  0.0000  0.0000  0.0000  0.0000  0.0000 </r>
       </set>
       <set comment="band 47">
        <r>  0.0288  0.0012  0.0027  0.0026  0.0002  0.0006  0.0013  0.0005  0.0002 </r>
        <r>  0.0288  0.0012  0.0027  0.0026  0.0002  0.0006  0.0013  0.0005  0.0002 </r>
        <r>  0.0011  0.0090  0.0144  0.0030  0.0001  0.0025  0.0019  0.0008  0.0000 </r>
        <r>  0.0011  0.0090  0.0144  0.0030  0.0001  0.0025  0.0019  0.0008  0.0000 </r>
        <r>  0.0000  0.0053  0.0045  0.0003  0.0000  0.0000  0.0000  0.0000  0.0000 </r>
        <r>  0.0014  0.0014  0.0118  0.0005  0.0000  0.0000  0.0000  0.0000  0.0000 </r>
        <r>  0.0000  0.0005  0.0046  0.0052  0.0000  0.0000  0.0000  0.0000  0.0000 </r>
        <r>  0.0000  0.0053  0.0045  0.0003  0.0000  0.0000  0.0000  0.0000  0.0000 </r>
        <r>  0.0014  0.0014  0.0118  0.0005  0.0000  0.0000  0.0000  0.0000  0.0000 </r>
        <r>  0.0000  0.0005  0.0046  0.0052  0.0000  0.0000  0.0000  0.0000  0.0000 </r>
       </set>
       <set comment="band 48">
        <r>  0.0000  0.0004  0.0001  0.0006  0.0001  0.0000  0.0000  0.0000  0.0001 </r>
        <r>  0.0000  0.0004  0.0001  0.0006  0.0001  0.0000  0.0000  0.0000  0.0001 </r>
        <r>  0.0009  0.0000  0.0006  0.0000  0.0001  0.0000  0.0012  0.0000  0.0000 </r>
        <r>  0.0009  0.0000  0.0006  0.0000  0.0001  0.0000  0.0012  0.0000  0.0000 </r>
        <r>  0.0002  0.0000  0.0000  0.0003  0.0000  0.0000  0.0000  0.0000  0.0000 </r>
        <r>  0.0003  0.0003  0.0000  0.0001  0.0000  0.0000  0.0000  0.0000  0.0000 </r>
        <r>  0.0002  0.0003  0.0000  0.0001  0.0000  0.0000  0.0000  0.0000  0.0000 </r>
        <r>  0.0002  0.0000  0.0000  0.0003  0.0000  0.0000  0.0000  0.0000  0.0000 </r>
        <r>  0.0003  0.0003  0.0000  0.0001  0.0000  0.0000  0.0000  0.0000  0.0000 </r>
        <r>  0.0002  0.0003  0.0000  0.0001  0.0000  0.0000  0.0000  0.0000  0.0000 </r>
       </set>
      </set>
     </set>
    </set>
   </array>
  </projected>
 </calculation>
 <structure name="finalpos" >
  <crystal>
   <varray name="basis" >
    <v>       5.96088247       0.00000010      -0.00000000 </v>
    <v>       2.98044086       5.16227549      -0.00000000 </v>
    <v>      -0.00000000      -0.00000000      23.48850004 </v>
   </varray>
   <i name="volume">    722.78147976 </i>
   <varray name="rec_basis" >
    <v>       0.16776040      -0.09685650       0.00000000 </v>
    <v>      -0.00000000       0.19371303       0.00000000 </v>
    <v>       0.00000000       0.00000000       0.04257403 </v>
   </varray>
  </crystal>
  <varray name="positions" >
   <v>       0.33333300       0.33333300       0.50002106 </v>
   <v>       0.66666700       0.66666700       0.49997894 </v>
   <v>       0.00000000       0.00000000       0.44821600 </v>
   <v>       0.00000000       0.00000000       0.55178400 </v>
   <v>       0.61766205      -0.00009769       0.56167637 </v>
   <v>      -0.00009769       0.38243664       0.56167637 </v>
   <v>       0.38243664       0.61766205       0.56167637 </v>
   <v>       0.38233795       0.00009769       0.43832363 </v>
   <v>       0.00009769       0.61756336       0.43832363 </v>
   <v>       0.61756336       0.38233795       0.43832363 </v>
  </varray>
  <varray name="selective"  type="logical" >
   <v type="logical" >  T  T  T </v>
   <v type="logical" >  T  T  T </v>
   <v type="logical" >  F  F  F </v>
   <v type="logical" >  F  F  F </v>
   <v type="logical" >  T  T  T </v>
   <v type="logical" >  T  T  T </v>
   <v type="logical" >  T  T  T </v>
   <v type="logical" >  T  T  T </v>
   <v type="logical" >  T  T  T </v>
   <v type="logical" >  T  T  T </v>
  </varray>
  <nose>
   <v>      -3.00000000       0.00000000       0.00010000       0.00010000 </v>
  </nose>
 </structure>
</modeling>
