unknown system                          
           1
     6.907777   -0.000000    0.000000
     3.453888    5.982310    0.000000
     0.000000    0.000000   23.444588
   Ni   Ge   S 
   2   2   6
Direct configuration=     1
   0.33333300  0.33333300  0.49992500
   0.66666700  0.66666700  0.50007500
   0.00000000  0.00000000  0.44821600
   0.00000000  0.00000000  0.55178400
   0.62635700  0.00042000  0.57375200
   0.00042000  0.37322400  0.57375200
   0.37322400  0.62635700  0.57375200
   0.37364300  0.99958000  0.42624800
   0.99958000  0.62677600  0.42624800
   0.62677600  0.37364300  0.42624800
unknown system                          
           1
     6.082321   -0.000000    0.000000
     3.041160    5.267444    0.000000
     0.000000    0.000000   22.239561
   Ni   Ge   S 
   2   2   6
Direct configuration=     2
   0.33333300  0.33333300  0.49994367
   0.66666700  0.66666700  0.50005633
   0.00000000  0.00000000  0.44821600
   0.00000000  0.00000000  0.55178400
   0.63245107  0.00039482  0.57047502
   0.00039482  0.36715510  0.57047502
   0.36715510  0.63245107  0.57047502
   0.36754893  0.99960518  0.42952498
   0.99960518  0.63284490  0.42952498
   0.63284490  0.36754893  0.42952498
unknown system                          
           1
     5.975688   -0.000000    0.000000
     2.987844    5.175098    0.000000
     0.000000    0.000000   22.083896
   Ni   Ge   S 
   2   2   6
Direct configuration=     3
   0.33333300  0.33333300  0.49994621
   0.66666700  0.66666700  0.50005379
   0.00000000  0.00000000  0.44821600
   0.00000000  0.00000000  0.55178400
   0.63334514  0.00039113  0.57002876
   0.00039113  0.36626472  0.57002876
   0.36626472  0.63334514  0.57002876
   0.36665486  0.99960887  0.42997124
   0.99960887  0.63373528  0.42997124
   0.63373528  0.36665486  0.42997124
unknown system                          
           1
     5.956495   -0.000000    0.000000
     2.978247    5.158476   -0.000000
    -0.000000    0.000000   22.026637
   Ni   Ge   S 
   2   2   6
Direct configuration=     4
   0.33333300  0.33333300  0.49994883
   0.66666700  0.66666700  0.50005117
   0.00000000  0.00000000  0.44821600
   0.00000000  0.00000000  0.55178400
   0.62755005  0.00031304  0.56911480
   0.00031304  0.37213791  0.56911480
   0.37213791  0.62755005  0.56911480
   0.37244995  0.99968696  0.43088520
   0.99968696  0.62786209  0.43088520
   0.62786209  0.37244995  0.43088520
unknown system                          
           1
     5.936293   -0.000000   -0.000000
     2.968146    5.140980   -0.000000
    -0.000000    0.000000   21.966368
   Ni   Ge   S 
   2   2   6
Direct configuration=     5
   0.33333300  0.33333300  0.49995158
   0.66666700  0.66666700  0.50004842
   0.00000000  0.00000000  0.44821600
   0.00000000  0.00000000  0.55178400
   0.62143066  0.00023058  0.56815029
   0.00023058  0.37833976  0.56815029
   0.37833976  0.62143066  0.56815029
   0.37856934  0.99976942  0.43184971
   0.99976942  0.62166024  0.43184971
   0.62166024  0.37856934  0.43184971
unknown system                          
           1
     5.933046   -0.000000   -0.000000
     2.966523    5.138168   -0.000000
    -0.000000    0.000000   21.956682
   Ni   Ge   S 
   2   2   6
Direct configuration=     6
   0.33333300  0.33333300  0.49995203
   0.66666700  0.66666700  0.50004797
   0.00000000  0.00000000  0.44821600
   0.00000000  0.00000000  0.55178400
   0.62044377  0.00021728  0.56799485
   0.00021728  0.37933995  0.56799485
   0.37933995  0.62044377  0.56799485
   0.37955623  0.99978272  0.43200515
   0.99978272  0.62066005  0.43200515
   0.62066005  0.37955623  0.43200515
unknown system                          
           1
     5.911738   -0.000000   -0.000000
     2.955869    5.119715   -0.000000
    -0.000000   -0.000000   22.298444
   Ni   Ge   S 
   2   2   6
Direct configuration=     7
   0.33333300  0.33333300  0.49995553
   0.66666700  0.66666700  0.50004447
   0.00000000  0.00000000  0.44821600
   0.00000000  0.00000000  0.55178400
   0.61941601  0.00013902  0.56745209
   0.00013902  0.38044597  0.56745209
   0.38044597  0.61941601  0.56745209
   0.38058399  0.99986098  0.43254791
   0.99986098  0.61955403  0.43254791
   0.61955403  0.38058399  0.43254791
unknown system                          
           1
     5.875507   -0.000000   -0.000000
     2.937753    5.088338   -0.000000
    -0.000000   -0.000000   22.879569
   Ni   Ge   S 
   2   2   6
Direct configuration=     8
   0.33333300  0.33333300  0.49996141
   0.66666700  0.66666700  0.50003859
   0.00000000  0.00000000  0.44821600
   0.00000000  0.00000000  0.55178400
   0.61766212  0.00000547  0.56654335
   0.00000547  0.38233342  0.56654335
   0.38233342  0.61766212  0.56654335
   0.38233788  0.99999453  0.43345665
   0.99999453  0.61766658  0.43345665
   0.61766658  0.38233788  0.43345665
unknown system                          
           1
     5.884266   -0.000000   -0.000000
     2.942133    5.095924   -0.000000
    -0.000000   -0.000000   22.739079
   Ni   Ge   S 
   2   2   6
Direct configuration=     9
   0.33333300  0.33333300  0.49996002
   0.66666700  0.66666700  0.50003998
   0.00000000  0.00000000  0.44821600
   0.00000000  0.00000000  0.55178400
   0.61808874  0.00003795  0.56675747
   0.00003795  0.38187431  0.56675747
   0.38187431  0.61808874  0.56675747
   0.38191126  0.99996205  0.43324253
   0.99996205  0.61812569  0.43324253
   0.61812569  0.38191126  0.43324253
unknown system                          
           1
     5.910272   -0.000000   -0.000000
     2.955136    5.118445   -0.000000
    -0.000000   -0.000000   22.909381
   Ni   Ge   S 
   2   2   6
Direct configuration=    10
   0.33333300  0.33333300  0.49998022
   0.66666700  0.66666700  0.50001978
   0.00000000  0.00000000  0.44821600
   0.00000000  0.00000000  0.55178400
   0.61834773 -0.00000680  0.56579855
  -0.00000680  0.38166006  0.56579855
   0.38166006  0.61834773  0.56579855
   0.38165227  0.00000680  0.43420145
   0.00000680  0.61833994  0.43420145
   0.61833994  0.38165227  0.43420145
unknown system                          
           1
     5.981653   -0.000000   -0.000000
     2.990826    5.180263   -0.000000
    -0.000000   -0.000000   23.376829
   Ni   Ge   S 
   2   2   6
Direct configuration=    11
   0.33333300  0.33333300  0.50003524
   0.66666700  0.66666700  0.49996476
   0.00000000  0.00000000  0.44821600
   0.00000000  0.00000000  0.55178400
   0.61905548 -0.00012908  0.56318607
  -0.00012908  0.38107460  0.56318607
   0.38107460  0.61905548  0.56318607
   0.38094452  0.00012908  0.43681393
   0.00012908  0.61892540  0.43681393
   0.61892540  0.38094452  0.43681393
unknown system                          
           1
     5.981656   -0.000000   -0.000000
     2.990828    5.180265   -0.000000
    -0.000000   -0.000000   23.409219
   Ni   Ge   S 
   2   2   6
Direct configuration=    12
   0.33333300  0.33333300  0.50004168
   0.66666700  0.66666700  0.49995832
   0.00000000  0.00000000  0.44821600
   0.00000000  0.00000000  0.55178400
   0.61914284 -0.00014370  0.56270463
  -0.00014370  0.38100185  0.56270463
   0.38100185  0.61914284  0.56270463
   0.38085716  0.00014370  0.43729537
   0.00014370  0.61899815  0.43729537
   0.61899815  0.38085716  0.43729537
unknown system                          
           1
     5.981663   -0.000000   -0.000000
     2.990832    5.180272   -0.000000
    -0.000000   -0.000000   23.501962
   Ni   Ge   S 
   2   2   6
Direct configuration=    13
   0.33333300  0.33333300  0.50006009
   0.66666700  0.66666700  0.49993991
   0.00000000  0.00000000  0.44821600
   0.00000000  0.00000000  0.55178400
   0.61939299 -0.00018555  0.56132798
  -0.00018555  0.38079356  0.56132798
   0.38079356  0.61939299  0.56132798
   0.38060701  0.00018555  0.43867202
   0.00018555  0.61920644  0.43867202
   0.61920644  0.38060701  0.43867202
unknown system                          
           1
     5.976049   -0.000000   -0.000000
     2.988025    5.175410   -0.000000
    -0.000000   -0.000000   23.496922
   Ni   Ge   S 
   2   2   6
Direct configuration=    14
   0.33333300  0.33333300  0.50005502
   0.66666700  0.66666700  0.49994498
   0.00000000  0.00000000  0.44821600
   0.00000000  0.00000000  0.55178400
   0.61917821 -0.00017445  0.56139784
  -0.00017445  0.38099724  0.56139784
   0.38099724  0.61917821  0.56139784
   0.38082179  0.00017445  0.43860216
   0.00017445  0.61900276  0.43860216
   0.61900276  0.38082179  0.43860216
unknown system                          
           1
     5.959208   -0.000000   -0.000000
     2.979604    5.160825   -0.000000
    -0.000000   -0.000000   23.481802
   Ni   Ge   S 
   2   2   6
Direct configuration=    15
   0.33333300  0.33333300  0.50003979
   0.66666700  0.66666700  0.49996021
   0.00000000  0.00000000  0.44821600
   0.00000000  0.00000000  0.55178400
   0.61853326 -0.00014112  0.56160747
  -0.00014112  0.38160886  0.56160747
   0.38160886  0.61853326  0.56160747
   0.38146674  0.00014112  0.43839253
   0.00014112  0.61839114  0.43839253
   0.61839114  0.38146674  0.43839253
unknown system                          
           1
     5.959880   -0.000000   -0.000000
     2.979940    5.161407   -0.000000
    -0.000000   -0.000000   23.484492
   Ni   Ge   S 
   2   2   6
Direct configuration=    16
   0.33333300  0.33333300  0.50003227
   0.66666700  0.66666700  0.49996773
   0.00000000  0.00000000  0.44821600
   0.00000000  0.00000000  0.55178400
   0.61818339 -0.00012368  0.56163514
  -0.00012368  0.38194129  0.56163514
   0.38194129  0.61818339  0.56163514
   0.38181661  0.00012368  0.43836486
   0.00012368  0.61805871  0.43836486
   0.61805871  0.38181661  0.43836486
unknown system                          
           1
     5.960882    0.000000   -0.000000
     2.980441    5.162275   -0.000000
    -0.000000   -0.000000   23.488500
   Ni   Ge   S 
   2   2   6
Direct configuration=    17
   0.33333300  0.33333300  0.50002106
   0.66666700  0.66666700  0.49997894
   0.00000000  0.00000000  0.44821600
   0.00000000  0.00000000  0.55178400
   0.61766205 -0.00009769  0.56167637
  -0.00009769  0.38243664  0.56167637
   0.38243664  0.61766205  0.56167637
   0.38233795  0.00009769  0.43832363
   0.00009769  0.61756336  0.43832363
   0.61756336  0.38233795  0.43832363
