   10   10   99    2
  0.9688350E+02  0.6907777E-09  0.6907776E-09  0.2344459E-08  0.5000000E-15
   1.0000000000000000E-004
  CAR 
 unknown system                          
     65      5     48

  0.3742002E-15  0.3742002E-15  0.1262379E-14  0.4000000E-01
    1      -17.886343    -17.886333   1.000000   1.000000
    2      -16.585286    -16.585264   1.000000   1.000000
    3      -15.665686    -15.665768   1.000000   1.000000
    4      -15.665647    -15.665728   1.000000   1.000000
    5      -15.282493    -15.282476   1.000000   1.000000
    6      -15.282456    -15.282438   1.000000   1.000000
    7      -13.113845    -13.113799   1.000000   1.000000
    8       -9.941019     -9.940953   1.000000   1.000000
    9       -8.460588     -8.460483   1.000000   1.000000
   10       -8.460567     -8.460462   1.000000   1.000000
   11       -8.217608     -8.217514   1.000000   1.000000
   12       -7.767745     -7.767657   1.000000   1.000000
   13       -7.601107     -7.601007   1.000000   1.000000
   14       -7.601084     -7.600985   1.000000   1.000000
   15       -6.360824     -6.360758   1.000000   1.000000
   16       -5.818252     -5.817378   1.000000   1.000000
   17       -5.818244     -5.817365   1.000000   1.000000
   18       -5.347401     -5.347297   1.000000   1.000000
   19       -5.343636     -5.343274   1.000000   1.000000
   20       -5.343634     -5.343266   1.000000   1.000000
   21       -4.723292     -4.723456   1.000000   1.000000
   22       -4.723276     -4.723442   1.000000   1.000000
   23       -4.695293     -4.695085   1.000000   1.000000
   24       -4.356194     -4.355173   1.000000   1.000000
   25       -4.356185     -4.355166   1.000000   1.000000
   26       -4.195905     -4.195717   1.000000   1.000000
   27       -4.004041     -4.004074   1.000000   1.000000
   28       -4.004034     -4.004064   1.000000   1.000000
   29       -3.848215     -3.847827   1.000000   1.000000
   30       -3.376080     -3.376080   1.000000   1.000000
   31       -3.376054     -3.376051   1.000000   1.000000
   32       -2.580193     -2.579257   1.000000   1.000000
   33       -2.580181     -2.579244   0.361335   0.344887
   34       -1.787663     -1.787856   0.000000   0.000000
   35       -1.787649     -1.787842   0.000000   0.000000
   36       -1.416319     -1.416319   0.000000   0.000000
   37       -0.144914     -0.144820   0.000000   0.000000
   38        0.330801      0.330927   0.000000   0.000000
   39        0.330834      0.330960   0.000000   0.000000
   40        1.528664      1.517668   0.000000   0.000000
   41        1.630651      1.629279   0.000000   0.000000
   42        1.867374      1.867719   0.000000   0.000000
   43        1.931265      1.911970   0.000000   0.000000
   44        2.306652      2.256094   0.000000   0.000000
   45        2.397903      2.398001   0.000000   0.000000
   46        2.397919      2.398017   0.000000   0.000000
   47        3.364031      3.253497   0.000000   0.000000
   48        3.397554      3.397672   0.000000   0.000000

  0.2000000E+00  0.3885781E-15  0.1262379E-14  0.2400000E+00
    1      -17.764966    -17.764957   1.000000   1.000000
    2      -16.480643    -16.480622   1.000000   1.000000
    3      -15.891281    -15.891340   1.000000   1.000000
    4      -15.754074    -15.754154   1.000000   1.000000
    5      -15.394966    -15.394954   1.000000   1.000000
    6      -15.355034    -15.355017   1.000000   1.000000
    7      -12.923193    -12.923162   1.000000   1.000000
    8      -10.011089    -10.011020   1.000000   1.000000
    9       -8.558436     -8.558339   1.000000   1.000000
   10       -8.217227     -8.217125   1.000000   1.000000
   11       -8.064937     -8.064897   1.000000   1.000000
   12       -7.911645     -7.911489   1.000000   1.000000
   13       -7.113747     -7.113623   1.000000   1.000000
   14       -6.857689     -6.857591   1.000000   1.000000
   15       -6.217275     -6.216915   1.000000   1.000000
   16       -6.012986     -6.012442   1.000000   1.000000
   17       -5.861110     -5.860803   1.000000   1.000000
   18       -5.676689     -5.676165   1.000000   1.000000
   19       -5.312575     -5.312215   1.000000   1.000000
   20       -5.120685     -5.120526   1.000000   1.000000
   21       -5.025206     -5.025425   1.000000   1.000000
   22       -4.982325     -4.981902   1.000000   1.000000
   23       -4.604588     -4.604379   1.000000   1.000000
   24       -4.486514     -4.485992   1.000000   1.000000
   25       -4.478073     -4.477654   1.000000   1.000000
   26       -4.320625     -4.320092   1.000000   1.000000
   27       -4.082470     -4.082176   1.000000   1.000000
   28       -4.033609     -4.032990   1.000000   1.000000
   29       -3.956312     -3.956538   1.000000   1.000000
   30       -3.645218     -3.644953   1.000000   1.000000
   31       -3.575687     -3.575681   1.000000   1.000000
   32       -2.699365     -2.698112   1.000000   1.000000
   33       -2.477054     -2.475967   0.018428   0.016954
   34       -2.257907     -2.258466   0.000000   0.000000
   35       -1.933644     -1.933973   0.000000   0.000000
   36       -0.893815     -0.893785   0.000000   0.000000
   37        0.247683      0.247797   0.000000   0.000000
   38        0.417460      0.417483   0.000000   0.000000
   39        0.533079      0.533186   0.000000   0.000000
   40        1.359906      1.359972   0.000000   0.000000
   41        1.672829      1.663815   0.000000   0.000000
   42        1.927306      1.927374   0.000000   0.000000
   43        2.092108      2.075757   0.000000   0.000000
   44        2.272919      2.265380   0.000000   0.000000
   45        2.307562      2.306261   0.000000   0.000000
   46        2.515793      2.468889   0.000000   0.000000
   47        3.308384      3.305789   0.000000   0.000000
   48        3.390050      3.388700   0.000000   0.000000

  0.4000000E+00  0.4163336E-15  0.1262379E-14  0.2400000E+00
    1      -17.483811    -17.483805   1.000000   1.000000
    2      -16.395421    -16.395442   1.000000   1.000000
    3      -16.168682    -16.168673   1.000000   1.000000
    4      -15.864121    -15.864192   1.000000   1.000000
    5      -15.674383    -15.674386   1.000000   1.000000
    6      -15.461157    -15.461133   1.000000   1.000000
    7      -12.642926    -12.642912   1.000000   1.000000
    8      -10.049314    -10.049244   1.000000   1.000000
    9       -8.475435     -8.475322   1.000000   1.000000
   10       -8.011463     -8.011370   1.000000   1.000000
   11       -7.704412     -7.704348   1.000000   1.000000
   12       -7.360438     -7.360382   1.000000   1.000000
   13       -6.566344     -6.566215   1.000000   1.000000
   14       -6.471454     -6.471016   1.000000   1.000000
   15       -6.335822     -6.335523   1.000000   1.000000
   16       -6.170049     -6.169625   1.000000   1.000000
   17       -6.047297     -6.047604   1.000000   1.000000
   18       -5.828580     -5.827700   1.000000   1.000000
   19       -5.523423     -5.523298   1.000000   1.000000
   20       -5.422876     -5.422656   1.000000   1.000000
   21       -5.255141     -5.254885   1.000000   1.000000
   22       -4.886767     -4.886582   1.000000   1.000000
   23       -4.840291     -4.840168   1.000000   1.000000
   24       -4.652512     -4.652082   1.000000   1.000000
   25       -4.451025     -4.450605   1.000000   1.000000
   26       -4.296479     -4.296096   1.000000   1.000000
   27       -4.197164     -4.196844   1.000000   1.000000
   28       -4.055574     -4.054886   1.000000   1.000000
   29       -3.910289     -3.910335   1.000000   1.000000
   30       -3.819136     -3.818967   1.000000   1.000000
   31       -3.720346     -3.720174   1.000000   1.000000
   32       -2.788720     -2.787903   1.000000   1.000000
   33       -2.684434     -2.683318   0.974794   0.971016
   34       -2.158213     -2.158436   0.000000   0.000000
   35       -2.068450     -2.068544   0.000000   0.000000
   36       -1.068839     -1.068873   0.000000   0.000000
   37        0.109010      0.109137   0.000000   0.000000
   38        0.233521      0.233615   0.000000   0.000000
   39        0.824903      0.824997   0.000000   0.000000
   40        1.188603      1.188735   0.000000   0.000000
   41        1.372737      1.372776   0.000000   0.000000
   42        2.066904      2.065958   0.000000   0.000000
   43        2.119451      2.117552   0.000000   0.000000
   44        2.354254      2.348364   0.000000   0.000000
   45        2.612764      2.600012   0.000000   0.000000
   46        3.003220      2.986900   0.000000   0.000000
   47        3.103126      3.063507   0.000000   0.000000
   48        3.211627      3.202698   0.000000   0.000000

  0.4000000E+00  0.2000000E+00  0.1262379E-14  0.2400000E+00
    1      -17.556244    -17.556237   1.000000   1.000000
    2      -16.322739    -16.322729   1.000000   1.000000
    3      -16.119821    -16.119843   1.000000   1.000000
    4      -15.963854    -15.963924   1.000000   1.000000
    5      -15.550040    -15.550041   1.000000   1.000000
    6      -15.470491    -15.470475   1.000000   1.000000
    7      -12.673305    -12.673291   1.000000   1.000000
    8      -10.020934    -10.020865   1.000000   1.000000
    9       -8.580704     -8.580595   1.000000   1.000000
   10       -7.912681     -7.912656   1.000000   1.000000
   11       -7.834883     -7.834750   1.000000   1.000000
   12       -7.697475     -7.697375   1.000000   1.000000
   13       -6.519287     -6.518933   1.000000   1.000000
   14       -6.346607     -6.346234   1.000000   1.000000
   15       -6.315011     -6.314149   1.000000   1.000000
   16       -6.159838     -6.161118   1.000000   1.000000
   17       -5.910420     -5.909735   1.000000   1.000000
   18       -5.814191     -5.813882   1.000000   1.000000
   19       -5.763156     -5.762546   1.000000   1.000000
   20       -5.513433     -5.512826   1.000000   1.000000
   21       -5.275158     -5.275210   1.000000   1.000000
   22       -4.823683     -4.823579   1.000000   1.000000
   23       -4.603120     -4.602693   1.000000   1.000000
   24       -4.545427     -4.545506   1.000000   1.000000
   25       -4.378970     -4.378410   1.000000   1.000000
   26       -4.297432     -4.296591   1.000000   1.000000
   27       -4.238897     -4.238543   1.000000   1.000000
   28       -4.035450     -4.035055   1.000000   1.000000
   29       -3.940925     -3.941023   1.000000   1.000000
   30       -3.751767     -3.751577   1.000000   1.000000
   31       -3.683943     -3.683872   1.000000   1.000000
   32       -3.025140     -3.024140   1.000000   1.000000
   33       -2.419773     -2.418686   0.066292   0.061547
   34       -2.203861     -2.204009   0.000000   0.000000
   35       -1.944755     -1.945146   0.000000   0.000000
   36       -1.147782     -1.147712   0.000000   0.000000
   37        0.164893      0.165032   0.000000   0.000000
   38        0.287413      0.287540   0.000000   0.000000
   39        0.516166      0.516243   0.000000   0.000000
   40        1.239804      1.239889   0.000000   0.000000
   41        1.602837      1.601867   0.000000   0.000000
   42        1.642225      1.642543   0.000000   0.000000
   43        2.149193      2.140102   0.000000   0.000000
   44        2.442632      2.442855   0.000000   0.000000
   45        2.485168      2.469300   0.000000   0.000000
   46        2.903643      2.849899   0.000000   0.000000
   47        3.216815      3.216351   0.000000   0.000000
   48        3.310578      3.306575   0.000000   0.000000

 -0.4000000E+00  0.2000000E+00  0.1262379E-14  0.2400000E+00
    1      -17.365985    -17.365981   1.000000   1.000000
    2      -16.412419    -16.412445   1.000000   1.000000
    3      -16.118896    -16.118927   1.000000   1.000000
    4      -16.006119    -16.006115   1.000000   1.000000
    5      -15.734621    -15.734641   1.000000   1.000000
    6      -15.553508    -15.553489   1.000000   1.000000
    7      -12.509321    -12.509316   1.000000   1.000000
    8       -9.987109     -9.987042   1.000000   1.000000
    9       -8.395589     -8.395449   1.000000   1.000000
   10       -7.917305     -7.917238   1.000000   1.000000
   11       -7.734109     -7.734057   1.000000   1.000000
   12       -7.151878     -7.151786   1.000000   1.000000
   13       -7.114574     -7.114522   1.000000   1.000000
   14       -6.488387     -6.488011   1.000000   1.000000
   15       -6.247976     -6.247649   1.000000   1.000000
   16       -6.031946     -6.031242   1.000000   1.000000
   17       -6.013569     -6.014097   1.000000   1.000000
   18       -5.830678     -5.829494   1.000000   1.000000
   19       -5.614931     -5.614627   1.000000   1.000000
   20       -5.463771     -5.463830   1.000000   1.000000
   21       -5.323313     -5.323263   1.000000   1.000000
   22       -4.782842     -4.782521   1.000000   1.000000
   23       -4.621286     -4.621219   1.000000   1.000000
   24       -4.495982     -4.495415   1.000000   1.000000
   25       -4.370064     -4.369847   1.000000   1.000000
   26       -4.305087     -4.304461   1.000000   1.000000
   27       -4.207414     -4.207251   1.000000   1.000000
   28       -4.097013     -4.096599   1.000000   1.000000
   29       -3.899463     -3.899235   1.000000   1.000000
   30       -3.846639     -3.846328   1.000000   1.000000
   31       -3.715580     -3.715674   1.000000   1.000000
   32       -2.776315     -2.775195   1.000000   1.000000
   33       -2.648939     -2.648164   0.970920   0.969014
   34       -2.209928     -2.210207   0.000000   0.000000
   35       -1.854464     -1.854456   0.000000   0.000000
   36       -1.446728     -1.446725   0.000000   0.000000
   37       -0.143493     -0.143318   0.000000   0.000000
   38       -0.034517     -0.034430   0.000000   0.000000
   39        0.296311      0.296476   0.000000   0.000000
   40        1.073160      1.073267   0.000000   0.000000
   41        1.306599      1.306693   0.000000   0.000000
   42        1.446090      1.446123   0.000000   0.000000
   43        2.558880      2.557975   0.000000   0.000000
   44        2.768895      2.765629   0.000000   0.000000
   45        2.813836      2.805422   0.000000   0.000000
   46        2.970351      2.968758   0.000000   0.000000
   47        3.064100      3.047271   0.000000   0.000000
   48        3.616456      3.604558   0.000000   0.000000
