       N       E                     dE             d eps       ncg     rms          rms(c)
DAV:   1     0.417143414671E+03    0.41714E+03   -0.19970E+04   960   0.965E+02
DAV:   2     0.279238560169E+02   -0.38922E+03   -0.36608E+03  1424   0.198E+02
DAV:   3    -0.358361843049E+02   -0.63760E+02   -0.61836E+02  1200   0.758E+01
DAV:   4    -0.381666838886E+02   -0.23305E+01   -0.23114E+01  1200   0.186E+01
DAV:   5    -0.382205631309E+02   -0.53879E-01   -0.53854E-01  1168   0.287E+00    0.342E+01
DAV:   6    -0.803382637202E+02   -0.42118E+02   -0.49217E+02  1232   0.185E+02    0.534E+01
DAV:   7    -0.441745931513E+02    0.36164E+02   -0.55713E+01  1200   0.779E+01    0.283E+01
DAV:   8    -0.351068325730E+02    0.90678E+01   -0.15180E+01  1088   0.366E+01    0.130E+01
DAV:   9    -0.344811330385E+02    0.62570E+00   -0.26020E+00  1488   0.123E+01    0.736E+00
DAV:  10    -0.344996504820E+02   -0.18517E-01   -0.25727E-01  1152   0.273E+00    0.727E+00
DAV:  11    -0.345708609601E+02   -0.71210E-01   -0.46382E-01  1200   0.110E+01    0.685E+00
DAV:  12    -0.345708941172E+02   -0.33157E-04   -0.16811E+00  1344   0.126E+01    0.411E+00
DAV:  13    -0.344399224618E+02    0.13097E+00   -0.60446E+00  1264   0.141E+01    0.186E+00
DAV:  14    -0.345619848930E+02   -0.12206E+00   -0.70663E-01  1440   0.441E+00    0.129E+00
DAV:  15    -0.345395238881E+02    0.22461E-01   -0.37003E+00  1168   0.962E+00    0.130E+00
DAV:  16    -0.345724479168E+02   -0.32924E-01   -0.10933E-01  1248   0.258E+00    0.682E-01
DAV:  17    -0.345855349240E+02   -0.13087E-01   -0.26444E-02  1312   0.142E+00    0.452E-01
DAV:  18    -0.346017465234E+02   -0.16212E-01   -0.32893E-02  1200   0.155E+00    0.618E-01
DAV:  19    -0.345968207480E+02    0.49258E-02   -0.27518E-02  1024   0.117E+00    0.455E-01
DAV:  20    -0.345961801239E+02    0.64062E-03   -0.77532E-03  1248   0.125E+00    0.180E-01
DAV:  21    -0.345965156062E+02   -0.33548E-03   -0.16959E-03  1120   0.271E-01    0.103E-01
DAV:  22    -0.345964276838E+02    0.87922E-04   -0.15920E-04   768   0.119E-01
   1 F= -.34596428E+02 E0= -.34596428E+02  d E =-.345964E+02  mag=     3.0028
       N       E                     dE             d eps       ncg     rms          rms(c)
DAV:   1    -0.125479229398E+03   -0.90883E+02   -0.87226E+02  1296   0.254E+02    0.102E+02
DAV:   2    -0.475706820525E+03   -0.35023E+03   -0.35110E+03  1568   0.377E+02    0.668E+01
DAV:   3    -0.981711636019E+02    0.37754E+03   -0.13755E+03  1248   0.152E+02    0.411E+01
DAV:   4    -0.450117448119E+02    0.53159E+02   -0.55052E+02  1216   0.134E+02    0.219E+01
DAV:   5    -0.405021497881E+02    0.45096E+01   -0.66065E+01  1328   0.120E+02    0.195E+01
DAV:   6    -0.390750271260E+02    0.14271E+01   -0.16620E+01  1280   0.260E+01    0.761E+00
DAV:   7    -0.395014162598E+02   -0.42639E+00   -0.70336E+00  1104   0.359E+01    0.906E+00
DAV:   8    -0.394039220543E+02    0.97494E-01   -0.22940E+00  1312   0.223E+01    0.822E+00
DAV:   9    -0.388579177988E+02    0.54600E+00   -0.82326E-01  1136   0.159E+01    0.403E+00
DAV:  10    -0.387717785689E+02    0.86139E-01   -0.62559E-01  1504   0.118E+01    0.251E+00
DAV:  11    -0.388125108592E+02   -0.40732E-01   -0.39685E-01  1280   0.656E+00    0.254E+00
DAV:  12    -0.388053087286E+02    0.72021E-02   -0.22300E-01  1040   0.491E+00    0.163E+00
DAV:  13    -0.388138493877E+02   -0.85407E-02   -0.77388E-02  1200   0.314E+00    0.104E+00
DAV:  14    -0.388185422243E+02   -0.46928E-02   -0.28388E-02  1152   0.132E+00    0.559E-01
DAV:  15    -0.388168087629E+02    0.17335E-02   -0.20579E-03  1264   0.403E-01    0.550E-01
DAV:  16    -0.388245138903E+02   -0.77051E-02   -0.30717E-02  1072   0.177E+00    0.106E+00
DAV:  17    -0.388297811668E+02   -0.52673E-02   -0.14915E-02  1344   0.946E-01    0.126E+00
DAV:  18    -0.388340006981E+02   -0.42195E-02   -0.31816E-03  1408   0.423E-01    0.144E+00
DAV:  19    -0.388236939102E+02    0.10307E-01   -0.11866E-02  1120   0.112E+00    0.110E+00
DAV:  20    -0.388343023945E+02   -0.10608E-01   -0.17032E-02  1088   0.127E+00    0.134E+00
DAV:  21    -0.388495943597E+02   -0.15292E-01   -0.40320E-02  1392   0.201E+00    0.145E+00
DAV:  22    -0.388500608009E+02   -0.46644E-03   -0.69483E-03  1328   0.768E-01    0.119E+00
DAV:  23    -0.388577129214E+02   -0.76521E-02   -0.29002E-02  1184   0.202E+00    0.792E-01
DAV:  24    -0.388585887977E+02   -0.87588E-03   -0.57864E-03  1184   0.835E-01    0.451E-01
DAV:  25    -0.388604489892E+02   -0.18602E-02   -0.17547E-03  1120   0.444E-01    0.446E-01
DAV:  26    -0.388606448473E+02   -0.19586E-03   -0.25166E-03  1184   0.619E-01    0.368E-01
DAV:  27    -0.388605688617E+02    0.75986E-04   -0.98764E-04  1376   0.287E-01
   2 F= -.38860569E+02 E0= -.38860569E+02  d E =-.426414E+01  mag=    -0.0663
       N       E                     dE             d eps       ncg     rms          rms(c)
DAV:   1    -0.393255516161E+02   -0.46491E+00   -0.52969E+00  1216   0.227E+01    0.620E+00
DAV:   2    -0.410074225207E+02   -0.16819E+01   -0.76142E+00  1136   0.542E+01    0.139E+01
DAV:   3    -0.390099024480E+02    0.19975E+01   -0.46947E+00  1056   0.323E+01    0.349E+00
DAV:   4    -0.389960757593E+02    0.13827E-01   -0.70589E-01  1248   0.112E+01    0.359E+00
DAV:   5    -0.388889032208E+02    0.10717E+00   -0.25229E-01  1072   0.805E+00    0.826E-01
DAV:   6    -0.388853452804E+02    0.35579E-02   -0.27541E-02  1216   0.113E+00    0.462E-01
DAV:   7    -0.388860824274E+02   -0.73715E-03   -0.10433E-02  1232   0.103E+00    0.359E-01
DAV:   8    -0.388855220974E+02    0.56033E-03   -0.34118E-03  1280   0.535E-01    0.140E-01
DAV:   9    -0.388855914528E+02   -0.69355E-04   -0.64047E-04   992   0.247E-01
   3 F= -.38885591E+02 E0= -.38885591E+02  d E =-.428916E+01  mag=    -0.0115
       N       E                     dE             d eps       ncg     rms          rms(c)
DAV:   1    -0.388975619382E+02   -0.12040E-01   -0.11844E-01  1040   0.332E+00    0.929E-01
DAV:   2    -0.389352094519E+02   -0.37648E-01   -0.17776E-01  1008   0.760E+00    0.205E+00
DAV:   3    -0.388876053696E+02    0.47604E-01   -0.91369E-02   960   0.638E+00    0.264E-01
DAV:   4    -0.388909501574E+02   -0.33448E-02   -0.16763E-02  1248   0.166E+00    0.667E-01
DAV:   5    -0.388878025845E+02    0.31476E-02   -0.84069E-03  1088   0.139E+00    0.176E-01
DAV:   6    -0.388881853248E+02   -0.38274E-03   -0.89474E-04  1056   0.379E-01    0.482E-02
DAV:   7    -0.388882305382E+02   -0.45213E-04   -0.86254E-05   880   0.777E-02
   4 F= -.38888231E+02 E0= -.38888231E+02  d E =-.429180E+01  mag=    -0.0062
       N       E                     dE             d eps       ncg     rms          rms(c)
DAV:   1    -0.388956039236E+02   -0.74186E-02   -0.40540E-01   960   0.278E+00    0.506E-01
DAV:   2    -0.389063988811E+02   -0.10795E-01   -0.67842E-02  1104   0.397E+00    0.101E+00
DAV:   3    -0.388946277935E+02    0.11771E-01   -0.27826E-02   976   0.324E+00    0.209E-01
DAV:   4    -0.388951714280E+02   -0.54363E-03   -0.34932E-03  1120   0.390E-01    0.144E-01
DAV:   5    -0.388952445010E+02   -0.73073E-04   -0.11700E-03  1072   0.566E-01    0.201E-01
DAV:   6    -0.388948959920E+02    0.34851E-03   -0.70787E-04   864   0.440E-01    0.198E-02
DAV:   7    -0.388950338620E+02   -0.13787E-03   -0.72246E-05   640   0.602E-02    0.146E-02
DAV:   8    -0.388950379941E+02   -0.41321E-05   -0.17622E-05   704   0.323E-02
   5 F= -.38895038E+02 E0= -.38895038E+02  d E =-.680746E-02  mag=    -0.0019
       N       E                     dE             d eps       ncg     rms          rms(c)
DAV:   1    -0.388953490880E+02   -0.31523E-03   -0.21980E-02   960   0.660E-01    0.121E-01
DAV:   2    -0.388959604592E+02   -0.61137E-03   -0.38940E-03  1088   0.954E-01    0.244E-01
DAV:   3    -0.388951991943E+02    0.76126E-03   -0.15998E-03   960   0.795E-01    0.473E-02
DAV:   4    -0.388953116381E+02   -0.11244E-03   -0.19194E-04   800   0.795E-02    0.297E-02
DAV:   5    -0.388953152818E+02   -0.36437E-05   -0.45754E-05   816   0.111E-01
   6 F= -.38895315E+02 E0= -.38895315E+02  d E =-.708474E-02  mag=    -0.0010
       N       E                     dE             d eps       ncg     rms          rms(c)
DAV:   1    -0.388991340489E+02   -0.38224E-02   -0.22417E-01   960   0.172E+00    0.232E-01
DAV:   2    -0.388993089062E+02   -0.17486E-03   -0.14258E-02  1056   0.824E-01    0.211E-01
DAV:   3    -0.388993651798E+02   -0.56274E-04   -0.30886E-03  1024   0.974E-01    0.247E-01
DAV:   4    -0.388994943297E+02   -0.12915E-03   -0.40517E-03  1056   0.106E+00    0.351E-01
DAV:   5    -0.388984342119E+02    0.10601E-02   -0.27086E-03   992   0.845E-01    0.749E-02
DAV:   6    -0.388986609059E+02   -0.22669E-03   -0.29495E-04   832   0.173E-01    0.222E-02
DAV:   7    -0.388986648163E+02   -0.39104E-05   -0.11263E-04   784   0.706E-02
   7 F= -.38898665E+02 E0= -.38898665E+02  d E =-.334953E-02  mag=     0.0001
       N       E                     dE             d eps       ncg     rms          rms(c)
DAV:   1    -0.388994886189E+02   -0.82771E-03   -0.90163E-02   976   0.109E+00    0.147E-01
DAV:   2    -0.388992957833E+02    0.19284E-03   -0.58283E-03  1072   0.514E-01    0.129E-01
DAV:   3    -0.388991914741E+02    0.10431E-03   -0.10936E-03  1072   0.582E-01    0.127E-01
DAV:   4    -0.388989052304E+02    0.28624E-03   -0.62123E-04   928   0.430E-01    0.109E-01
DAV:   5    -0.388988646518E+02    0.40579E-04   -0.62376E-04   816   0.404E-01
   8 F= -.38898865E+02 E0= -.38898865E+02  d E =-.354937E-02  mag=     0.0004
       N       E                     dE             d eps       ncg     rms          rms(c)
DAV:   1    -0.389110615797E+02   -0.12156E-01   -0.19336E-01  1072   0.391E+00    0.107E+00
DAV:   2    -0.389589618815E+02   -0.47900E-01   -0.22480E-01   976   0.885E+00    0.233E+00
DAV:   3    -0.388986973163E+02    0.60265E-01   -0.11808E-01   960   0.668E+00    0.305E-01
DAV:   4    -0.388991968334E+02   -0.49952E-03   -0.11948E-02  1200   0.916E-01    0.363E-01
DAV:   5    -0.388984278347E+02    0.76900E-03   -0.29266E-03  1104   0.873E-01    0.167E-01
DAV:   6    -0.388983680454E+02    0.59789E-04   -0.52262E-04   928   0.339E-01
   9 F= -.38898368E+02 E0= -.38898368E+02  d E =0.496606E-03  mag=     0.0016
       N       E                     dE             d eps       ncg     rms          rms(c)
DAV:   1    -0.389011369013E+02   -0.27091E-02   -0.32645E-02  1056   0.165E+00    0.438E-01
DAV:   2    -0.389091971361E+02   -0.80602E-02   -0.38849E-02   960   0.360E+00    0.962E-01
DAV:   3    -0.388987635289E+02    0.10434E-01   -0.19777E-02   960   0.295E+00    0.114E-01
DAV:   4    -0.388996908204E+02   -0.92729E-03   -0.33267E-03  1264   0.711E-01    0.309E-01
DAV:   5    -0.388990013382E+02    0.68948E-03   -0.17269E-03  1024   0.649E-01    0.769E-02
DAV:   6    -0.388990937418E+02   -0.92404E-04   -0.18880E-04   816   0.169E-01
  10 F= -.38899094E+02 E0= -.38899094E+02  d E =-.229090E-03  mag=     0.0019
