 vasp.5.4.4.18Apr17-6-g9f103f2a35 (build May  1 2020 15:48:39) complex           
 executed on             LinuxGNU date 2020.06.20  10:52:00
 running on   16 total cores
 distrk:  each k-point on   16 cores,    1 groups
 distr:  one band on NCORES_PER_BAND=   1 cores,   16 groups


--------------------------------------------------------------------------------------------------------


 INCAR:
 POTCAR:   PAW_PBE Ni 06Sep2000                   
 POTCAR:   PAW_PBE Si 05Jan2001                   
 POTCAR:    PAW_PBE P 17Jan2003                   
 POTCAR:   PAW_PBE Se 06Sep2000                   

 ----------------------------------------------------------------------------- 
|                                                                             |
|           W    W    AA    RRRRR   N    N  II  N    N   GGGG   !!!           |
|           W    W   A  A   R    R  NN   N  II  NN   N  G    G  !!!           |
|           W    W  A    A  R    R  N N  N  II  N N  N  G       !!!           |
|           W WW W  AAAAAA  RRRRR   N  N N  II  N  N N  G  GGG   !            |
|           WW  WW  A    A  R   R   N   NN  II  N   NN  G    G                |
|           W    W  A    A  R    R  N    N  II  N    N   GGGG   !!!           |
|                                                                             |
|      For optimal performance we recommend to set                            |
|        NCORE= 4 - approx SQRT( number of cores)                             |
|      NCORE specifies how many cores store one orbital (NPAR=cpu/NCORE).     |
|      This setting can  greatly improve the performance of VASP for DFT.     |
|      The default,   NCORE=1            might be grossly inefficient         |
|      on modern multi-core architectures or massively parallel machines.     |
|      Do your own testing !!!!                                               |
|      Unfortunately you need to use the default for GW and RPA calculations. |
|      (for HF NCORE is supported but not extensively tested yet)             |
|                                                                             |
 ----------------------------------------------------------------------------- 


 ----------------------------------------------------------------------------- 
|                                                                             |
|  ADVICE TO THIS USER RUNNING 'VASP/VAMP'   (HEAR YOUR MASTER'S VOICE ...):  |
|                                                                             |
|      You have switched on vdW-DFT.                                          |
|      This routine was written and supplied by Jiri Klimes.                  |
|      We recommed that you carefully read and cite the following             |
|      publication                                                            |
|      J. Klimes, D.R. Bowler, A. Michelides                                  |
|        J. Phys.: Cond Matt. 22 022201 (2010)                                |
|      J. Klimes, D.R. Bowler, A. Michelides                                  |
|        Phys. Rev. B. 83, 195131 (2011)                                      |
|      and references therein.                                                |
|                                                                             |
 ----------------------------------------------------------------------------- 

 POTCAR:   PAW_PBE Ni 06Sep2000                   
   VRHFIN =Ni:                                                                  
   LEXCH  = PE                                                                  
   EATOM  =  1077.9025 eV,   79.2236 Ry                                         
                                                                                
   TITEL  = PAW_PBE Ni 06Sep2000                                                
   LULTRA =        F    use ultrasoft PP ?                                      
   IUNSCR =        1    unscreen: 0-lin 1-nonlin 2-no                           
   RPACOR =    2.000    partial core radius                                     
   POMASS =   58.690; ZVAL   =   10.000    mass and valenz                      
   RCORE  =    2.300    outmost cutoff radius                                   
   RWIGS  =    2.430; RWIGS  =    1.286    wigner-seitz radius (au A)           
   ENMAX  =  269.533; ENMIN  =  202.150 eV                                      
   RCLOC  =    1.681    cutoff for local pot                                    
   LCOR   =        T    correct aug charges                                     
   LPAW   =        T    paw PP                                                  
   EAUG   =  544.565                                                            
   DEXC   =    -.009                                                            
   RMAX   =    2.808    core radius for proj-oper                               
   RAUG   =    1.300    factor for augmentation sphere                          
   RDEP   =    2.390    radius for radial grids                                 
   QCUT   =   -4.451; QGAM   =    8.902    optimization parameters              
                                                                                
   Description                                                                  
     l     E      TYP  RCUT    TYP  RCUT                                        
     2   .000     23  2.300                                                     
     2   .000     23  2.300                                                     
     0   .000     23  2.300                                                     
     0   .000     23  2.300                                                     
     1  -.200     23  2.300                                                     
     1   .000     23  2.300                                                     
     3   .000      7   .000                                                     
  local pseudopotential read in
  partial core-charges read in
  atomic valenz-charges read in
  non local Contribution for L=           2  read in
    real space projection operators read in
  non local Contribution for L=           2  read in
    real space projection operators read in
  non local Contribution for L=           0  read in
    real space projection operators read in
  non local Contribution for L=           0  read in
    real space projection operators read in
  non local Contribution for L=           1  read in
    real space projection operators read in
  non local Contribution for L=           1  read in
    real space projection operators read in
    PAW grid and wavefunctions read in

   number of l-projection  operators is LMAX  =           6
   number of lm-projection operators is LMMAX =          18

 POTCAR:   PAW_PBE Si 05Jan2001                   
   VRHFIN =Si: s2p2                                                             
   LEXCH  = PE                                                                  
   EATOM  =   103.0669 eV,    7.5752 Ry                                         
                                                                                
   TITEL  = PAW_PBE Si 05Jan2001                                                
   LULTRA =        F    use ultrasoft PP ?                                      
   IUNSCR =        1    unscreen: 0-lin 1-nonlin 2-no                           
   RPACOR =    1.500    partial core radius                                     
   POMASS =   28.085; ZVAL   =    4.000    mass and valenz                      
   RCORE  =    1.900    outmost cutoff radius                                   
   RWIGS  =    2.480; RWIGS  =    1.312    wigner-seitz radius (au A)           
   ENMAX  =  245.345; ENMIN  =  184.009 eV                                      
   ICORE  =        2    local potential                                         
   LCOR   =        T    correct aug charges                                     
   LPAW   =        T    paw PP                                                  
   EAUG   =  322.069                                                            
   DEXC   =    -.007                                                            
   RMAX   =    2.944    core radius for proj-oper                               
   RAUG   =    1.300    factor for augmentation sphere                          
   RDEP   =    1.993    radius for radial grids                                 
   QCUT   =   -4.246; QGAM   =    8.493    optimization parameters              
                                                                                
   Description                                                                  
     l     E      TYP  RCUT    TYP  RCUT                                        
     0   .000     23  1.900                                                     
     0   .000     23  1.900                                                     
     1   .000     23  1.900                                                     
     1   .000     23  1.900                                                     
     2   .000      7  1.900                                                     
  local pseudopotential read in
  partial core-charges read in
  atomic valenz-charges read in
  non local Contribution for L=           0  read in
    real space projection operators read in
  non local Contribution for L=           0  read in
    real space projection operators read in
  non local Contribution for L=           1  read in
    real space projection operators read in
  non local Contribution for L=           1  read in
    real space projection operators read in
    PAW grid and wavefunctions read in

   number of l-projection  operators is LMAX  =           4
   number of lm-projection operators is LMMAX =           8

 POTCAR:    PAW_PBE P 17Jan2003                   
   VRHFIN =P : s2p3                                                             
   LEXCH  = PE                                                                  
   EATOM  =   176.0430 eV,   12.9388 Ry                                         
                                                                                
   TITEL  = PAW_PBE P 17Jan2003                                                 
   LULTRA =        F    use ultrasoft PP ?                                      
   IUNSCR =        1    unscreen: 0-lin 1-nonlin 2-no                           
   RPACOR =    1.500    partial core radius                                     
   POMASS =   30.974; ZVAL   =    5.000    mass and valenz                      
   RCORE  =    1.900    outmost cutoff radius                                   
   RWIGS  =    2.330; RWIGS  =    1.233    wigner-seitz radius (au A)           
   ENMAX  =  270.000; ENMIN  =  191.280 eV                                      
   ICORE  =        2    local potential                                         
   LCOR   =        T    correct aug charges                                     
   LPAW   =        T    paw PP                                                  
   EAUG   =  342.924                                                            
   DEXC   =    -.002                                                            
   RMAX   =    2.887    core radius for proj-oper                               
   RAUG   =    1.300    factor for augmentation sphere                          
   RDEP   =    1.931    radius for radial grids                                 
   QCUT   =   -4.330; QGAM   =    8.659    optimization parameters              
                                                                                
   Description                                                                  
     l     E      TYP  RCUT    TYP  RCUT                                        
     0   .000     23  1.900                                                     
     0   .000     23  1.900                                                     
     1   .000     23  1.900                                                     
     1   .000     23  1.900                                                     
     2   .000     23  1.900                                                     
  local pseudopotential read in
  partial core-charges read in
  atomic valenz-charges read in
  non local Contribution for L=           0  read in
    real space projection operators read in
  non local Contribution for L=           0  read in
    real space projection operators read in
  non local Contribution for L=           1  read in
    real space projection operators read in
  non local Contribution for L=           1  read in
    real space projection operators read in
    PAW grid and wavefunctions read in

   number of l-projection  operators is LMAX  =           4
   number of lm-projection operators is LMMAX =           8

 POTCAR:   PAW_PBE Se 06Sep2000                   
   VRHFIN =Se: s2p4                                                             
   LEXCH  = PE                                                                  
   EATOM  =   256.9644 eV,   18.8864 Ry                                         
                                                                                
   TITEL  = PAW_PBE Se 06Sep2000                                                
   LULTRA =        F    use ultrasoft PP ?                                      
   IUNSCR =        1    unscreen: 0-lin 1-nonlin 2-no                           
   RPACOR =    1.900    partial core radius                                     
   POMASS =   78.960; ZVAL   =    6.000    mass and valenz                      
   RCORE  =    2.100    outmost cutoff radius                                   
   RWIGS  =    2.200; RWIGS  =    1.164    wigner-seitz radius (au A)           
   ENMAX  =  211.534; ENMIN  =  158.651 eV                                      
   ICORE  =        3    local potential                                         
   LCOR   =        T    correct aug charges                                     
   LPAW   =        T    paw PP                                                  
   EAUG   =  446.842                                                            
   DEXC   =    -.031                                                            
   RMAX   =    3.170    core radius for proj-oper                               
   RAUG   =    1.300    factor for augmentation sphere                          
   RDEP   =    2.177    radius for radial grids                                 
   QCUT   =   -3.943; QGAM   =    7.886    optimization parameters              
                                                                                
   Description                                                                  
     l     E      TYP  RCUT    TYP  RCUT                                        
     0   .000     23  2.100                                                     
     0   .000     23  2.100                                                     
     1   .000     23  2.100                                                     
     1   .000     23  2.100                                                     
     2   .000     23  2.100                                                     
     3  -.100      7  2.100                                                     
  local pseudopotential read in
  partial core-charges read in
  atomic valenz-charges read in
  non local Contribution for L=           0  read in
    real space projection operators read in
  non local Contribution for L=           0  read in
    real space projection operators read in
  non local Contribution for L=           1  read in
    real space projection operators read in
  non local Contribution for L=           1  read in
    real space projection operators read in
  non local Contribution for L=           2  read in
    real space projection operators read in
    PAW grid and wavefunctions read in

   number of l-projection  operators is LMAX  =           5
   number of lm-projection operators is LMMAX =          13

 Optimization of the real space projectors (new method)

 maximal supplied QI-value         = 16.25
 optimisation between [QCUT,QGAM] = [ 11.54, 23.24] = [ 37.28,151.24] Ry 
 Optimized for a Real-space Cutoff    1.49 Angstroem

   l    n(q)    QCUT    max X(q) W(low)/X(q) W(high)/X(q)  e(spline) 
   2      9    11.539     4.811    0.20E-04    0.14E-04    0.45E-07
   2      9    11.539    15.146    0.24E-03    0.12E-03    0.20E-06
   0     10    11.539    14.357    0.18E-04    0.12E-05    0.14E-07
   0     10    11.539    43.282    0.39E-04    0.17E-04    0.23E-06
   1     10    11.539     5.514    0.99E-05    0.13E-04    0.19E-07
   1     10    11.539     7.697    0.38E-04    0.79E-04    0.91E-07
 Optimization of the real space projectors (new method)

 maximal supplied QI-value         = 19.84
 optimisation between [QCUT,QGAM] = [ 11.51, 23.22] = [ 37.09,150.92] Ry 
 Optimized for a Real-space Cutoff    1.21 Angstroem

   l    n(q)    QCUT    max X(q) W(low)/X(q) W(high)/X(q)  e(spline) 
   0      8    11.508     8.708    0.18E-04    0.44E-05    0.47E-08
   0      8    11.508   106.241    0.70E-04    0.15E-03    0.51E-07
   1      8    11.508     5.901    0.63E-05    0.23E-04    0.21E-07
   1      8    11.508    73.241    0.15E-03    0.36E-04    0.79E-07
 Optimization of the real space projectors (new method)

 maximal supplied QI-value         = 19.84
 optimisation between [QCUT,QGAM] = [ 11.51, 23.22] = [ 37.09,150.92] Ry 
 Optimized for a Real-space Cutoff    1.21 Angstroem

   l    n(q)    QCUT    max X(q) W(low)/X(q) W(high)/X(q)  e(spline) 
   0      8    11.508     6.651    0.19E-04    0.31E-05    0.49E-08
   0      8    11.508    90.285    0.95E-04    0.17E-03    0.51E-07
   1      8    11.508     4.328    0.14E-04    0.32E-04    0.22E-07
   1      8    11.508    54.583    0.16E-03    0.71E-04    0.89E-07
 Optimization of the real space projectors (new method)

 maximal supplied QI-value         = 17.95
 optimisation between [QCUT,QGAM] = [ 11.67, 23.34] = [ 38.13,152.52] Ry 
 Optimized for a Real-space Cutoff    1.25 Angstroem

   l    n(q)    QCUT    max X(q) W(low)/X(q) W(high)/X(q)  e(spline) 
   0      9    11.669     6.499    0.13E-04    0.81E-05    0.11E-07
   0      9    11.669    52.623    0.18E-03    0.46E-04    0.72E-07
   1      8    11.669     4.229    0.40E-04    0.45E-04    0.31E-07
   1      8    11.669    29.991    0.22E-03    0.36E-03    0.10E-06
   2      8    11.669     3.719    0.19E-03    0.46E-04    0.50E-07

 ----------------------------------------------------------------------------- 
|                                                                             |
|  ADVICE TO THIS USER RUNNING 'VASP/VAMP'   (HEAR YOUR MASTER'S VOICE ...):  |
|                                                                             |
|      You enforced a specific xc-type in the INCAR file,                     |
|      a different type was found on the POTCAR file                          |
|          I HOPE YOU KNOW, WHAT YOU ARE  DOING                               |
|                                                                             |
 ----------------------------------------------------------------------------- 

 PAW_PBE Ni 06Sep2000                   :
 energy of atom  1       EATOM=-1077.9025
 kinetic energy error for atom=    0.0030 (will be added to EATOM!!)
 PAW_PBE Si 05Jan2001                   :
 energy of atom  2       EATOM= -103.0669
 kinetic energy error for atom=    0.0005 (will be added to EATOM!!)
  PAW_PBE P 17Jan2003                   :
 energy of atom  3       EATOM= -176.0430
 kinetic energy error for atom=    0.0011 (will be added to EATOM!!)
 PAW_PBE Se 06Sep2000                   :
 energy of atom  4       EATOM= -256.9644
 kinetic energy error for atom=    0.0007 (will be added to EATOM!!)


 POSCAR: Ni2 Si P Se6                            
  positions in direct lattice
  velocities in cartesian coordinates
  No initial velocities read in
 exchange correlation table for  LEXCH =       42
   RHO(1)=    0.500       N(1)  =     2000
   RHO(2)=  100.500       N(2)  =     4000



--------------------------------------------------------------------------------------------------------


 ion  position               nearest neighbor table
   1  0.333  0.333  0.500-   6 2.78   5 2.78   7 2.78   8 2.78  10 2.78   9 2.78
   2  0.667  0.667  0.500-   9 2.78   8 2.78  10 2.78   5 2.78   7 2.78   6 2.78
   3  0.000  0.000  0.448-   4 2.43   8 2.63  10 2.63   9 2.63
   4  0.000  0.000  0.552-   3 2.43   5 2.63   7 2.63   6 2.63
   5  0.626  0.000  0.574-   4 2.63   1 2.78   2 2.78
   6  0.000  0.373  0.574-   4 2.63   1 2.78   2 2.78
   7  0.373  0.626  0.574-   4 2.63   1 2.78   2 2.78
   8  0.374  1.000  0.426-   3 2.63   2 2.78   1 2.78
   9  1.000  0.627  0.426-   3 2.63   2 2.78   1 2.78
  10  0.627  0.374  0.426-   3 2.63   2 2.78   1 2.78

  LATTYP: Found a hexagonal cell.
 ALAT       =     6.9077769333
 C/A-ratio  =     3.3939410937
  
  Lattice vectors:
  
 A1 = (   3.4538890000,  -5.9823100000,   0.0000000000)
 A2 = (  -6.9077770000,   0.0000000000,   0.0000000000)
 A3 = (   0.0000000000,   0.0000000000, -23.4445880000)


Analysis of symmetry for initial positions (statically):
=====================================================================
 Subroutine PRICEL returns:
 Original cell was already a primitive cell.
 

 Routine SETGRP: Setting up the symmetry group for a 
 hexagonal supercell.


 Subroutine GETGRP returns: Found  3 space group operations
 (whereof  3 operations were pure point group operations)
 out of a pool of 24 trial point group operations.


The static configuration has the point symmetry C_3 .


Analysis of symmetry for dynamics (positions and initial velocities):
=====================================================================
 Subroutine PRICEL returns:
 Original cell was already a primitive cell.
 

 Routine SETGRP: Setting up the symmetry group for a 
 hexagonal supercell.


 Subroutine GETGRP returns: Found  3 space group operations
 (whereof  3 operations were pure point group operations)
 out of a pool of 24 trial point group operations.


The dynamic configuration has the point symmetry C_3 .


Analysis of constrained symmetry for selective dynamics:
=====================================================================
 Subroutine PRICEL returns:
 Original cell was already a primitive cell.
 

 Routine SETGRP: Setting up the symmetry group for a 
 hexagonal supercell.


 Subroutine GETGRP returns: Found  3 space group operations
 (whereof  3 operations were pure point group operations)
 out of a pool of 24 trial point group operations.


The constrained configuration has the point symmetry C_3 .


Analysis of structural, dynamic, and magnetic symmetry:
=====================================================================
 Subroutine PRICEL returns:
 Original cell was already a primitive cell.
 

 Routine SETGRP: Setting up the symmetry group for a 
 hexagonal supercell.


 Subroutine GETGRP returns: Found  3 space group operations
 (whereof  3 operations were pure point group operations)
 out of a pool of 24 trial point group operations.


The magnetic configuration has the point symmetry C_3 .


 Subroutine INISYM returns: Found  3 space group operations
 (whereof  3 operations are pure point group operations),
 and found     1 'primitive' translations



 KPOINTS: Kpoints from vasprun.xml                

Automatic generation of k-mesh.
Space group operators:
 irot       det(A)        alpha          n_x          n_y          n_z        tau_x        tau_y        tau_z
    1     1.000000     0.000000     1.000000     0.000000     0.000000     0.000000     0.000000     0.000000
    2     1.000000   120.000000     0.000000     0.000000     1.000000     0.000000     0.000000     0.000000
    3     1.000000   120.000000     0.000000     0.000000    -1.000000     0.000000     0.000000     0.000000
 
 Subroutine IBZKPT returns following result:
 ===========================================
 
 Found      5 irreducible k-points:
 
 Following reciprocal coordinates:
            Coordinates               Weight
  0.000000  0.000000  0.000000      1.000000
  0.200000  0.000000  0.000000      6.000000
  0.400000  0.000000  0.000000      6.000000
  0.400000  0.200000  0.000000      6.000000
 -0.400000  0.200000  0.000000      6.000000
 
 Following cartesian coordinates:
            Coordinates               Weight
  0.000000  0.000000  0.000000      1.000000
  0.028953 -0.016716  0.000000      6.000000
  0.057906 -0.033432  0.000000      6.000000
  0.057906  0.000000  0.000000      6.000000
 -0.057906  0.066864  0.000000      6.000000
 
 TETIRR: Found     15 inequivalent tetrahedra from      150


--------------------------------------------------------------------------------------------------------




 Dimension of arrays:
   k-points           NKPTS =      5   k-points in BZ     NKDIM =      5   number of bands    NBANDS=     48
   number of dos      NEDOS =    301   number of ions     NIONS =     10
   non local maximal  LDIM  =      6   non local SUM 2l+1 LMDIM =     18
   total plane-waves  NPLWV = 524880
   max r-space proj   IRMAX =   7543   max aug-charges    IRDMAX=  23823
   dimension x,y,z NGX =    54 NGY =   54 NGZ =  180
   dimension x,y,z NGXF=   108 NGYF=  108 NGZF=  360
   support grid    NGXF=   108 NGYF=  108 NGZF=  360
   ions per type =               2   1   1   6
   NGX,Y,Z   is equivalent  to a cutoff of  13.00, 13.00, 12.76 a.u.
   NGXF,Y,Z  is equivalent  to a cutoff of  25.99, 25.99, 25.53 a.u.

 SYSTEM =  unknown system                          
 POSCAR =  Ni2 Si P Se6                            

 Startparameter for this run:
   NWRITE =      2    write-flag & timer
   PREC   = accura    normal or accurate (medium, high low for compatibility)
   ISTART =      0    job   : 0-new  1-cont  2-samecut
   ICHARG =      2    charge: 1-file 2-atom 10-const
   ISPIN  =      2    spin polarized calculation?
   LNONCOLLINEAR =      F non collinear calculations
   LSORBIT =      F    spin-orbit coupling
   INIWAV =      1    electr: 0-lowe 1-rand  2-diag
   LASPH  =      F    aspherical Exc in radial PAW
   METAGGA=      F    non-selfconsistent MetaGGA calc.

 Electronic Relaxation 1
   ENCUT  =  520.0 eV  38.22 Ry    6.18 a.u.  12.84 12.84 43.59*2*pi/ulx,y,z
   ENINI  =  520.0     initial cutoff
   ENAUG  =  544.6 eV  augmentation charge cutoff
   NELM   =    400;   NELMIN=  2; NELMDL=  0     # of ELM steps 
   EDIFF  = 0.1E-03   stopping-criterion for ELM
   LREAL  =      T    real-space projection
   NLSPLINE    = F    spline interpolate recip. space projectors
   LCOMPAT=      F    compatible to vasp.4.4
   GGA_COMPAT  = T    GGA compatible to vasp.4.4-vasp.4.6
   LMAXPAW     = -100 max onsite density
   LMAXMIX     =    2 max onsite mixed and CHGCAR
   VOSKOWN=      0    Vosko Wilk Nusair interpolation
   ROPT   =   -0.00025  -0.00025  -0.00025  -0.00025
 Ionic relaxation
   EDIFFG = 0.1E-02   stopping-criterion for IOM
   NSW    =     99    number of steps for IOM
   NBLOCK =      1;   KBLOCK =     99    inner block; outer block 
   IBRION =      2    ionic relax: 0-MD 1-quasi-New 2-CG
   NFREE  =      1    steps in history (QN), initial steepest desc. (CG)
   ISIF   =      3    stress and relaxation
   IWAVPR =     11    prediction:  0-non 1-charg 2-wave 3-comb
   ISYM   =      2    0-nonsym 1-usesym 2-fastsym
   LCORR  =      T    Harris-Foulkes like correction to forces

   POTIM  = 0.5000    time-step for ionic-motion
   TEIN   =    0.0    initial temperature
   TEBEG  =    0.0;   TEEND  =   0.0 temperature during run
   SMASS  =  -3.00    Nose mass-parameter (am)
   estimated Nose-frequenzy (Omega)   =  0.10E-29 period in steps =****** mass=  -0.109E-26a.u.
   SCALEE = 1.0000    scale energy and forces
   NPACO  =    256;   APACO  = 16.0  distance and # of slots for P.C.
   PSTRESS=    0.0 pullay stress

  Mass of Ions in am
   POMASS =  58.69 28.09 30.97 78.96
  Ionic Valenz
   ZVAL   =  10.00  4.00  5.00  6.00
  Atomic Wigner-Seitz radii
   RWIGS  =  -1.00 -1.00 -1.00 -1.00
  virtual crystal weights 
   VCA    =   1.00  1.00  1.00  1.00
   NELECT =      65.0000    total number of electrons
   NUPDOWN=      -1.0000    fix difference up-down

 DOS related values:
   EMIN   =  10.00;   EMAX   =-10.00  energy-range for DOS
   EFERMI =   0.00
   ISMEAR =    -5;   SIGMA  =   0.05  broadening in eV -4-tet -1-fermi 0-gaus

 Electronic relaxation 2 (details)
   IALGO  =     38    algorithm
   LDIAG  =      T    sub-space diagonalisation (order eigenvalues)
   LSUBROT=      F    optimize rotation matrix (better conditioning)
   TURBO    =      0    0=normal 1=particle mesh
   IRESTART =      0    0=no restart 2=restart with 2 vectors
   NREBOOT  =      0    no. of reboots
   NMIN     =      0    reboot dimension
   EREF     =   0.00    reference energy to select bands
   IMIX   =      4    mixing-type and parameters
     AMIX     =   0.40;   BMIX     =  1.00
     AMIX_MAG =   1.60;   BMIX_MAG =  1.00
     AMIN     =   0.01
     WC   =   100.;   INIMIX=   1;  MIXPRE=   1;  MAXMIX= -45

 Intra band minimization:
   WEIMIN = 0.0010     energy-eigenvalue tresh-hold
   EBREAK =  0.52E-06  absolut break condition
   DEPER  =   0.30     relativ break condition  

   TIME   =   0.40     timestep for ELM

  volume/ion in A,a.u.               =      96.88       653.80
  Fermi-wavevector in a.u.,A,eV,Ry     =   0.665216  1.257076  6.020745  0.442512
  Thomas-Fermi vector in A             =   1.739143

 Write flags
   LWAVE        =      F    write WAVECAR
   LDOWNSAMPLE  =      F    k-point downsampling of WAVECAR
   LCHARG       =      T    write CHGCAR
   LVTOT        =      F    write LOCPOT, total local potential
   LVHAR        =      F    write LOCPOT, Hartree potential only
   LELF         =      F    write electronic localiz. function (ELF)
   LORBIT       =     11    0 simple, 1 ext, 2 COOP (PROOUT), +10 PAW based schemes


 Dipole corrections
   LMONO  =      F    monopole corrections only (constant potential shift)
   LDIPOL =      F    correct potential (dipole corrections)
   IDIPOL =      0    1-x, 2-y, 3-z, 4-all directions 
   EPSILON=  1.0000000 bulk dielectric constant

 Exchange correlation treatment:
   GGA     =    BO    GGA type
   LEXCH   =    42    internal setting for exchange type
   VOSKOWN=      0    Vosko Wilk Nusair interpolation
   LHFCALC =     F    Hartree Fock is set to
   LHFONE  =     F    Hartree Fock one center treatment
   AEXX    =    0.0000 exact exchange contribution

 vdW DFT:
   LUSE_VDW   =     T    switch on vdW DFT
   Zab_VDW    =-.8491    correlation parameter
   PARAM1     =0.1833
   PARAM2     =0.2200
   PARAM3     =0.0000
   -- rVV10 --
   BPARAM     = 6.3000
   CPARAM     = 0.0093

 Linear response parameters
   LEPSILON=     F    determine dielectric tensor
   LRPA    =     F    only Hartree local field effects (RPA)
   LNABLA  =     F    use nabla operator in PAW spheres
   LVEL    =     F    velocity operator in full k-point grid
   LINTERFAST=   F  fast interpolation
   KINTER  =     0    interpolate to denser k-point grid
   CSHIFT  =0.1000    complex shift for real part using Kramers Kronig
   OMEGAMAX=  -1.0    maximum frequency
   DEG_THRESHOLD= 0.2000000E-02 threshold for treating states as degnerate
   RTIME   =   -0.100 relaxation time in fs
  (WPLASMAI=    0.000 imaginary part of plasma frequency in eV, 0.658/RTIME)
   DFIELD  = 0.0000000 0.0000000 0.0000000 field for delta impulse in time

 Orbital magnetization related:
   ORBITALMAG=     F  switch on orbital magnetization
   LCHIMAG   =     F  perturbation theory with respect to B field
   DQ        =  0.001000  dq finite difference perturbation B field
   LLRAUG    =     F  two centre corrections for induced B field



--------------------------------------------------------------------------------------------------------


 conjugate gradient relaxation of ions
   using selective dynamics as specified on POSCAR
 charge density and potential will be updated during run
 spin polarized calculation
 Variant of blocked Davidson
 Davidson routine will perform the subspace rotation
 perform sub-space diagonalisation
    after iterative eigenvector-optimisation
 modified Broyden-mixing scheme, WC =      100.0
 initial mixing is a Kerker type mixing with AMIX =  0.4000 and BMIX =      1.0000
 Hartree-type preconditioning will be used
 using additional bands           15
 real space projection scheme for non local part
 use partial core corrections
 calculate Harris-corrections to forces   (improved forces if not selfconsistent)
 use gradient corrections 
 use of overlap-Matrix (Vanderbilt PP)
 Fermi weights with tetrahedron method with Bloechl corrections


--------------------------------------------------------------------------------------------------------


  energy-cutoff  :      520.00
  volume of cell :      968.84
      direct lattice vectors                 reciprocal lattice vectors
     6.907777000 -0.000000000  0.000000000     0.144764372 -0.083579742  0.000000000
     3.453888000  5.982310000  0.000000000     0.000000000  0.167159509 -0.000000000
     0.000000000  0.000000000 23.444588000    -0.000000000  0.000000000  0.042653767

  length of vectors
     6.907777000  6.907776433 23.444588000     0.167159495  0.167159509  0.042653767



 k-points in units of 2pi/SCALE and weight: Kpoints from vasprun.xml                
   0.00000000  0.00000000  0.00000000       0.040
   0.02895287 -0.01671595  0.00000000       0.240
   0.05790575 -0.03343190  0.00000000       0.240
   0.05790575  0.00000000  0.00000000       0.240
  -0.05790575  0.06686380  0.00000000       0.240

 k-points in reciprocal lattice and weights: Kpoints from vasprun.xml                
   0.00000000  0.00000000  0.00000000       0.040
   0.20000000  0.00000000  0.00000000       0.240
   0.40000000  0.00000000  0.00000000       0.240
   0.40000000  0.20000000  0.00000000       0.240
  -0.40000000  0.20000000  0.00000000       0.240

 position of ions in fractional coordinates (direct lattice) 
   0.33333300  0.33333300  0.49992500
   0.66666700  0.66666700  0.50007500
   0.00000000  0.00000000  0.44821600
   0.00000000  0.00000000  0.55178400
   0.62635700  0.00042000  0.57375200
   0.00042000  0.37322400  0.57375200
   0.37322400  0.62635700  0.57375200
   0.37364300  0.99958000  0.42624800
   0.99958000  0.62677600  0.42624800
   0.62677600  0.37364300  0.42624800

 position of ions in cartesian coordinates  (Angst):
   3.45388488  1.99410134 11.72053566
   6.90778012  3.98820866 11.72405234
   0.00000000  0.00000000 10.50823946
   0.00000000  0.00000000 12.93634854
   4.32818511  0.00251257 13.45137925
   1.29197516  2.23274167 13.45137925
   4.74151509  3.74706174 13.45137925
   6.03347989  5.97979743  9.99320875
   9.06968984  3.74956833  9.99320875
   5.62014991  2.23524826  9.99320875



--------------------------------------------------------------------------------------------------------


 k-point  1 :   0.0000 0.0000 0.0000  plane waves:   26073
 k-point  2 :   0.2000 0.0000 0.0000  plane waves:   26070
 k-point  3 :   0.4000 0.0000 0.0000  plane waves:   26086
 k-point  4 :   0.4000 0.2000 0.0000  plane waves:   26085
 k-point  5 :  -0.4000 0.2000 0.0000  plane waves:   26115

 maximum and minimum number of plane-waves per node :     26115    26070

 maximum number of plane-waves:     26115
 maximum index in each direction: 
   IXMAX=   13   IYMAX=   12   IZMAX=   43
   IXMIN=  -13   IYMIN=  -13   IZMIN=  -43


 serial   3D FFT for wavefunctions
 parallel 3D FFT for charge:
    minimum data exchange during FFTs selected (reduces bandwidth)


 total amount of memory used by VASP MPI-rank0   129552. kBytes
=======================================================================

   base      :      30000. kBytes
   nonlr-proj:       7052. kBytes
   fftplans  :      11247. kBytes
   grid      :      68332. kBytes
   one-center:        311. kBytes
   wavefun   :      12610. kBytes

     INWAV:  cpu time    0.0000: real time    0.0004
 Broyden mixing: mesh for mixing (old mesh)
   NGX = 25   NGY = 25   NGZ = 87
  (NGX  =108   NGY  =108   NGZ  =360)
  gives a total of  54375 points

 initial charge density was supplied:
 charge density of overlapping atoms calculated
 number of electron      65.0000000 magnetization       7.3200000
 keeping initial charge density in first step


--------------------------------------------------------------------------------------------------------


 Maximum index for non-local projection operator         7247
 Maximum index for augmentation-charges         1715 (set IRDMAX)


--------------------------------------------------------------------------------------------------------


 First call to EWALD:  gamma=   0.179
 Maximum number of real-space cells 4x 4x 1
 Maximum number of reciprocal cells 2x 2x 6

    FEWALD:  cpu time    0.0000: real time    0.0014


--------------------------------------- Iteration      1(   1)  ---------------------------------------


vdW kernel read from vdw_kernel.bindat
  0.0000  0.2424  0.5071  0.7962  1.1119  1.4567  1.8333  2.2446  2.6937  3.1842
  3.7199  4.3049  4.9438  5.6415  6.4036  7.2358  8.1446  9.1372 10.2212 11.4050
 12.6979 14.1099 15.6519 17.3360 19.1751 21.1837 23.3773 25.7729 28.3892 31.2465
 34.3669 37.7748 41.4965 45.5611 50.0000

    POTLOK:  cpu time   52.4880: real time   52.5823
    SETDIJ:  cpu time    0.0440: real time    0.0427
     EDDAV:  cpu time   22.7120: real time   22.8117
 BZINTS: Fermi energy:  4.551114; 65.000000 electrons
         Band energy: -44.838371;  BLOECHL correction: -0.032982
       DOS:  cpu time    0.0040: real time    0.0062
    --------------------------------------------
      LOOP:  cpu time   75.2480: real time   75.4428

 eigenvalue-minimisations  :   960
 total energy-change (2. order) : 0.4171434E+03  (-0.1997028E+04)
 number of electron      65.0000000 magnetization       7.3200000
 augmentation part       65.0000000 magnetization       7.3200000

 Free energy of the ion-electron system (eV)
  ---------------------------------------------------
  alpha Z        PSCENC =        38.82079944
  Ewald energy   TEWEN  =      8338.88239735
  -Hartree energ DENC   =    -11934.33700887
  -exchange      EXHF   =         0.00000000
  -V(xc)+E(xc)   XCENC  =        42.75588518
  PAW double counting   =      2457.05311387    -2475.34747419
  entropy T*S    EENTRO =         0.00000000
  eigenvalues    EBANDS =       -44.83837072
  atomic energy  EATOM  =      3994.15407262
  Solvation  Ediel_sol  =         0.00000000
  ---------------------------------------------------
  free energy    TOTEN  =       417.14341467 eV

  energy without entropy =      417.14341467  energy(sigma->0) =      417.14341467


--------------------------------------------------------------------------------------------------------




--------------------------------------- Iteration      1(   2)  ---------------------------------------


     EDDAV:  cpu time   31.2960: real time   32.6401
 BZINTS: Fermi energy: -2.004199; 65.000000 electrons
         Band energy:-434.057929;  BLOECHL correction: -0.013420
       DOS:  cpu time    0.0040: real time    0.0044
    --------------------------------------------
      LOOP:  cpu time   31.3000: real time   32.6446

 eigenvalue-minimisations  :  1424
 total energy-change (2. order) :-0.3892196E+03  (-0.3660843E+03)
 number of electron      65.0000000 magnetization       7.3200000
 augmentation part       65.0000000 magnetization       7.3200000

 Free energy of the ion-electron system (eV)
  ---------------------------------------------------
  alpha Z        PSCENC =        38.82079944
  Ewald energy   TEWEN  =      8338.88239735
  -Hartree energ DENC   =    -11934.33700887
  -exchange      EXHF   =         0.00000000
  -V(xc)+E(xc)   XCENC  =        42.75588518
  PAW double counting   =      2457.05311387    -2475.34747419
  entropy T*S    EENTRO =         0.00000000
  eigenvalues    EBANDS =      -434.05792938
  atomic energy  EATOM  =      3994.15407262
  Solvation  Ediel_sol  =         0.00000000
  ---------------------------------------------------
  free energy    TOTEN  =        27.92385602 eV

  energy without entropy =       27.92385602  energy(sigma->0) =       27.92385602


--------------------------------------------------------------------------------------------------------




--------------------------------------- Iteration      1(   3)  ---------------------------------------


     EDDAV:  cpu time   26.6800: real time   27.7231
 BZINTS: Fermi energy: -2.822539; 65.000000 electrons
         Band energy:-497.817970;  BLOECHL correction: -0.000564
       DOS:  cpu time    0.0040: real time    0.0049
    --------------------------------------------
      LOOP:  cpu time   26.6840: real time   27.7280

 eigenvalue-minimisations  :  1200
 total energy-change (2. order) :-0.6376004E+02  (-0.6183553E+02)
 number of electron      65.0000000 magnetization       7.3200000
 augmentation part       65.0000000 magnetization       7.3200000

 Free energy of the ion-electron system (eV)
  ---------------------------------------------------
  alpha Z        PSCENC =        38.82079944
  Ewald energy   TEWEN  =      8338.88239735
  -Hartree energ DENC   =    -11934.33700887
  -exchange      EXHF   =         0.00000000
  -V(xc)+E(xc)   XCENC  =        42.75588518
  PAW double counting   =      2457.05311387    -2475.34747419
  entropy T*S    EENTRO =         0.00000000
  eigenvalues    EBANDS =      -497.81796970
  atomic energy  EATOM  =      3994.15407262
  Solvation  Ediel_sol  =         0.00000000
  ---------------------------------------------------
  free energy    TOTEN  =       -35.83618430 eV

  energy without entropy =      -35.83618430  energy(sigma->0) =      -35.83618430


--------------------------------------------------------------------------------------------------------




--------------------------------------- Iteration      1(   4)  ---------------------------------------


     EDDAV:  cpu time   25.8960: real time   27.7897
 BZINTS: Fermi energy: -2.833737; 65.000000 electrons
         Band energy:-500.148469;  BLOECHL correction: -0.000661
       DOS:  cpu time    0.0080: real time    0.0052
    --------------------------------------------
      LOOP:  cpu time   25.9040: real time   27.7949

 eigenvalue-minimisations  :  1200
 total energy-change (2. order) :-0.2330500E+01  (-0.2311396E+01)
 number of electron      65.0000000 magnetization       7.3200000
 augmentation part       65.0000000 magnetization       7.3200000

 Free energy of the ion-electron system (eV)
  ---------------------------------------------------
  alpha Z        PSCENC =        38.82079944
  Ewald energy   TEWEN  =      8338.88239735
  -Hartree energ DENC   =    -11934.33700887
  -exchange      EXHF   =         0.00000000
  -V(xc)+E(xc)   XCENC  =        42.75588518
  PAW double counting   =      2457.05311387    -2475.34747419
  entropy T*S    EENTRO =         0.00000000
  eigenvalues    EBANDS =      -500.14846928
  atomic energy  EATOM  =      3994.15407262
  Solvation  Ediel_sol  =         0.00000000
  ---------------------------------------------------
  free energy    TOTEN  =       -38.16668389 eV

  energy without entropy =      -38.16668389  energy(sigma->0) =      -38.16668389


--------------------------------------------------------------------------------------------------------




--------------------------------------- Iteration      1(   5)  ---------------------------------------


     EDDAV:  cpu time   26.7280: real time   27.0130
 BZINTS: Fermi energy: -2.834194; 65.000000 electrons
         Band energy:-500.202349;  BLOECHL correction: -0.000675
       DOS:  cpu time    0.0040: real time    0.0074
    CHARGE:  cpu time    2.1000: real time    2.1432
    MIXING:  cpu time    0.0440: real time    0.0405
    --------------------------------------------
      LOOP:  cpu time   28.8760: real time   29.2042

 eigenvalue-minimisations  :  1168
 total energy-change (2. order) :-0.5387924E-01  (-0.5385422E-01)
 number of electron      64.9999993 magnetization       7.2853587
 augmentation part        1.0206746 magnetization       4.7100201

 Broyden mixing:
  rms(total) = 0.34189E+01    rms(broyden)= 0.34188E+01
  rms(prec ) = 0.36333E+01
  weight for this iteration     100.00

 Free energy of the ion-electron system (eV)
  ---------------------------------------------------
  alpha Z        PSCENC =        38.82079944
  Ewald energy   TEWEN  =      8338.88239735
  -Hartree energ DENC   =    -11934.33700887
  -exchange      EXHF   =         0.00000000
  -V(xc)+E(xc)   XCENC  =        42.75588518
  PAW double counting   =      2457.05311387    -2475.34747419
  entropy T*S    EENTRO =         0.00000000
  eigenvalues    EBANDS =      -500.20234853
  atomic energy  EATOM  =      3994.15407262
  Solvation  Ediel_sol  =         0.00000000
  ---------------------------------------------------
  free energy    TOTEN  =       -38.22056313 eV

  energy without entropy =      -38.22056313  energy(sigma->0) =      -38.22056313


--------------------------------------------------------------------------------------------------------




--------------------------------------- Iteration      1(   6)  ---------------------------------------


    POTLOK:  cpu time   51.6880: real time   52.0719
    SETDIJ:  cpu time    0.0400: real time    0.0418
     EDDAV:  cpu time   28.1880: real time   28.4023
 BZINTS: Fermi energy: -4.146100; 65.000000 electrons
         Band energy:-743.331431;  BLOECHL correction: -0.021402
       DOS:  cpu time    0.0080: real time    0.0074
    CHARGE:  cpu time    2.1920: real time    2.2581
    MIXING:  cpu time    0.0440: real time    0.0404
    --------------------------------------------
      LOOP:  cpu time   82.1600: real time   82.8219

 eigenvalue-minimisations  :  1232
 total energy-change (2. order) :-0.4211770E+02  (-0.4921663E+02)
 number of electron      64.9999992 magnetization       6.9950716
 augmentation part        9.0295640 magnetization       6.7288712

 Broyden mixing:
  rms(total) = 0.53412E+01    rms(broyden)= 0.53411E+01
  rms(prec ) = 0.55673E+01
  weight for this iteration     100.00

 eigenvalues of (default mixing * dielectric matrix)
  average eigenvalue GAMMA=   0.3621
  0.3621

 Free energy of the ion-electron system (eV)
  ---------------------------------------------------
  alpha Z        PSCENC =        38.82079944
  Ewald energy   TEWEN  =      8338.88239735
  -Hartree energ DENC   =    -11761.45546557
  -exchange      EXHF   =         0.00000000
  -V(xc)+E(xc)   XCENC  =        41.53739891
  PAW double counting   =      2179.74497528    -2168.69101089
  entropy T*S    EENTRO =         0.00000000
  eigenvalues    EBANDS =      -743.33143087
  atomic energy  EATOM  =      3994.15407262
  Solvation  Ediel_sol  =         0.00000000
  ---------------------------------------------------
  free energy    TOTEN  =       -80.33826372 eV

  energy without entropy =      -80.33826372  energy(sigma->0) =      -80.33826372


--------------------------------------------------------------------------------------------------------




--------------------------------------- Iteration      1(   7)  ---------------------------------------


    POTLOK:  cpu time   51.8600: real time   52.2643
    SETDIJ:  cpu time    0.0440: real time    0.0422
     EDDAV:  cpu time   27.4560: real time   27.7991
 BZINTS: Fermi energy: -4.262942; 65.000000 electrons
         Band energy:-595.731154;  BLOECHL correction: -0.031386
       DOS:  cpu time    0.0040: real time    0.0071
    CHARGE:  cpu time    2.2000: real time    2.2029
    MIXING:  cpu time    0.0440: real time    0.0433
    --------------------------------------------
      LOOP:  cpu time   81.6080: real time   82.3589

 eigenvalue-minimisations  :  1200
 total energy-change (2. order) : 0.3616367E+02  (-0.5571282E+01)
 number of electron      64.9999992 magnetization       6.8324898
 augmentation part        7.9422402 magnetization       4.7542368

 Broyden mixing:
  rms(total) = 0.28293E+01    rms(broyden)= 0.28293E+01
  rms(prec ) = 0.30072E+01
  weight for this iteration     100.00

 eigenvalues of (default mixing * dielectric matrix)
  average eigenvalue GAMMA=   0.4686
  0.4686  0.4686

 Free energy of the ion-electron system (eV)
  ---------------------------------------------------
  alpha Z        PSCENC =        38.82079944
  Ewald energy   TEWEN  =      8338.88239735
  -Hartree energ DENC   =    -11847.87341852
  -exchange      EXHF   =         0.00000000
  -V(xc)+E(xc)   XCENC  =        40.92481446
  PAW double counting   =      2332.78902451    -2346.14112855
  entropy T*S    EENTRO =         0.00000000
  eigenvalues    EBANDS =      -595.73115446
  atomic energy  EATOM  =      3994.15407262
  Solvation  Ediel_sol  =         0.00000000
  ---------------------------------------------------
  free energy    TOTEN  =       -44.17459315 eV

  energy without entropy =      -44.17459315  energy(sigma->0) =      -44.17459315


--------------------------------------------------------------------------------------------------------




--------------------------------------- Iteration      1(   8)  ---------------------------------------


    POTLOK:  cpu time   51.3880: real time   51.8447
    SETDIJ:  cpu time    0.0440: real time    0.0439
     EDDAV:  cpu time   24.7400: real time   25.3710
 BZINTS: Fermi energy: -4.091103; 65.000000 electrons
         Band energy:-540.038382;  BLOECHL correction: -0.013757
       DOS:  cpu time    0.0040: real time    0.0067
    CHARGE:  cpu time    2.1960: real time    2.1972
    MIXING:  cpu time    0.0440: real time    0.0439
    --------------------------------------------
      LOOP:  cpu time   78.4160: real time   79.5075

 eigenvalue-minimisations  :  1088
 total energy-change (2. order) : 0.9067761E+01  (-0.1517980E+01)
 number of electron      64.9999991 magnetization       6.7273195
 augmentation part        6.3030104 magnetization       4.5130705

 Broyden mixing:
  rms(total) = 0.13035E+01    rms(broyden)= 0.13034E+01
  rms(prec ) = 0.13813E+01
  weight for this iteration     100.00

 eigenvalues of (default mixing * dielectric matrix)
  average eigenvalue GAMMA=   0.4411
  0.5033  0.5033  0.3166

 Free energy of the ion-electron system (eV)
  ---------------------------------------------------
  alpha Z        PSCENC =        38.82079944
  Ewald energy   TEWEN  =      8338.88239735
  -Hartree energ DENC   =    -11888.98247533
  -exchange      EXHF   =         0.00000000
  -V(xc)+E(xc)   XCENC  =        41.79388650
  PAW double counting   =      2404.34822447    -2424.08535584
  entropy T*S    EENTRO =         0.00000000
  eigenvalues    EBANDS =      -540.03838178
  atomic energy  EATOM  =      3994.15407262
  Solvation  Ediel_sol  =         0.00000000
  ---------------------------------------------------
  free energy    TOTEN  =       -35.10683257 eV

  energy without entropy =      -35.10683257  energy(sigma->0) =      -35.10683257


--------------------------------------------------------------------------------------------------------




--------------------------------------- Iteration      1(   9)  ---------------------------------------


    POTLOK:  cpu time   51.2080: real time   51.8586
    SETDIJ:  cpu time    0.0400: real time    0.0412
     EDDAV:  cpu time   32.9680: real time   33.3639
 BZINTS: Fermi energy: -4.016978; 65.000000 electrons
         Band energy:-529.695678;  BLOECHL correction: -0.013941
       DOS:  cpu time    0.0040: real time    0.0070
    CHARGE:  cpu time    2.1200: real time    2.1229
    MIXING:  cpu time    0.0400: real time    0.0419
    --------------------------------------------
      LOOP:  cpu time   86.3800: real time   87.4356

 eigenvalue-minimisations  :  1488
 total energy-change (2. order) : 0.6256995E+00  (-0.2602050E+00)
 number of electron      64.9999991 magnetization       6.6436951
 augmentation part        5.5931331 magnetization       4.7957869

 Broyden mixing:
  rms(total) = 0.73628E+00    rms(broyden)= 0.73612E+00
  rms(prec ) = 0.77333E+00
  weight for this iteration     100.00

 eigenvalues of (default mixing * dielectric matrix)
  average eigenvalue GAMMA=   0.5166
  0.5081  0.5081  0.5251  0.5251

 Free energy of the ion-electron system (eV)
  ---------------------------------------------------
  alpha Z        PSCENC =        38.82079944
  Ewald energy   TEWEN  =      8338.88239735
  -Hartree energ DENC   =    -11898.45621025
  -exchange      EXHF   =         0.00000000
  -V(xc)+E(xc)   XCENC  =        41.96933158
  PAW double counting   =      2422.83163501    -2442.98748092
  entropy T*S    EENTRO =         0.00000000
  eigenvalues    EBANDS =      -529.69567787
  atomic energy  EATOM  =      3994.15407262
  Solvation  Ediel_sol  =         0.00000000
  ---------------------------------------------------
  free energy    TOTEN  =       -34.48113304 eV

  energy without entropy =      -34.48113304  energy(sigma->0) =      -34.48113304


--------------------------------------------------------------------------------------------------------




--------------------------------------- Iteration      1(  10)  ---------------------------------------


    POTLOK:  cpu time   50.7320: real time   50.8521
    SETDIJ:  cpu time    0.0440: real time    0.0410
     EDDAV:  cpu time   26.1440: real time   26.4664
 BZINTS: Fermi energy: -4.015754; 65.000000 electrons
         Band energy:-529.845907;  BLOECHL correction: -0.013718
       DOS:  cpu time    0.0040: real time    0.0067
    CHARGE:  cpu time    2.1120: real time    2.1188
    MIXING:  cpu time    0.0400: real time    0.0423
    --------------------------------------------
      LOOP:  cpu time   79.0760: real time   79.5274

 eigenvalue-minimisations  :  1152
 total energy-change (2. order) :-0.1851744E-01  (-0.2572677E-01)
 number of electron      64.9999991 magnetization       6.1939770
 augmentation part        5.6097263 magnetization       4.3304372

 Broyden mixing:
  rms(total) = 0.72683E+00    rms(broyden)= 0.72682E+00
  rms(prec ) = 0.76634E+00
  weight for this iteration     100.00

 eigenvalues of (default mixing * dielectric matrix)
  average eigenvalue GAMMA=   0.6901
  0.8829  0.8829  0.6040  0.6040  0.4768

 Free energy of the ion-electron system (eV)
  ---------------------------------------------------
  alpha Z        PSCENC =        38.82079944
  Ewald energy   TEWEN  =      8338.88239735
  -Hartree energ DENC   =    -11898.41151864
  -exchange      EXHF   =         0.00000000
  -V(xc)+E(xc)   XCENC  =        41.94081351
  PAW double counting   =      2423.50144393    -2443.54175139
  entropy T*S    EENTRO =         0.00000000
  eigenvalues    EBANDS =      -529.84590730
  atomic energy  EATOM  =      3994.15407262
  Solvation  Ediel_sol  =         0.00000000
  ---------------------------------------------------
  free energy    TOTEN  =       -34.49965048 eV

  energy without entropy =      -34.49965048  energy(sigma->0) =      -34.49965048


--------------------------------------------------------------------------------------------------------




--------------------------------------- Iteration      1(  11)  ---------------------------------------


    POTLOK:  cpu time   50.8080: real time   50.8378
    SETDIJ:  cpu time    0.0560: real time    0.0547
     EDDAV:  cpu time   27.1160: real time   27.3929
 BZINTS: Fermi energy: -3.907994; 65.000000 electrons
         Band energy:-526.107216;  BLOECHL correction: -0.011621
       DOS:  cpu time    0.0040: real time    0.0066
    CHARGE:  cpu time    2.1560: real time    2.1795
    MIXING:  cpu time    0.0480: real time    0.0445
    --------------------------------------------
      LOOP:  cpu time   80.1880: real time   80.5159

 eigenvalue-minimisations  :  1200
 total energy-change (2. order) :-0.7121048E-01  (-0.4638209E-01)
 number of electron      64.9999991 magnetization       5.8147089
 augmentation part        5.5265884 magnetization       3.9829627

 Broyden mixing:
  rms(total) = 0.68494E+00    rms(broyden)= 0.68491E+00
  rms(prec ) = 0.72823E+00
  weight for this iteration     100.00

 eigenvalues of (default mixing * dielectric matrix)
  average eigenvalue GAMMA=   0.6757
  1.0669  1.0669  0.5930  0.5930  0.5209  0.2135

 Free energy of the ion-electron system (eV)
  ---------------------------------------------------
  alpha Z        PSCENC =        38.82079944
  Ewald energy   TEWEN  =      8338.88239735
  -Hartree energ DENC   =    -11902.60708276
  -exchange      EXHF   =         0.00000000
  -V(xc)+E(xc)   XCENC  =        41.98285386
  PAW double counting   =      2433.51341152    -2453.21009734
  entropy T*S    EENTRO =         0.00000000
  eigenvalues    EBANDS =      -526.10721564
  atomic energy  EATOM  =      3994.15407262
  Solvation  Ediel_sol  =         0.00000000
  ---------------------------------------------------
  free energy    TOTEN  =       -34.57086096 eV

  energy without entropy =      -34.57086096  energy(sigma->0) =      -34.57086096


--------------------------------------------------------------------------------------------------------




--------------------------------------- Iteration      1(  12)  ---------------------------------------


    POTLOK:  cpu time   50.7400: real time   50.9304
    SETDIJ:  cpu time    0.0400: real time    0.0411
     EDDAV:  cpu time   30.3280: real time   30.4438
 BZINTS: Fermi energy: -3.853466; 65.000000 electrons
         Band energy:-521.240752;  BLOECHL correction: -0.011043
       DOS:  cpu time    0.0040: real time    0.0070
    CHARGE:  cpu time    2.1560: real time    2.1611
    MIXING:  cpu time    0.0440: real time    0.0442
    --------------------------------------------
      LOOP:  cpu time   83.3120: real time   83.6277

 eigenvalue-minimisations  :  1344
 total energy-change (2. order) :-0.3315708E-04  (-0.1681094E+00)
 number of electron      64.9999991 magnetization       5.2003381
 augmentation part        5.3697814 magnetization       3.4779632

 Broyden mixing:
  rms(total) = 0.41080E+00    rms(broyden)= 0.41071E+00
  rms(prec ) = 0.43460E+00
  weight for this iteration     100.00

 eigenvalues of (default mixing * dielectric matrix)
  average eigenvalue GAMMA=   0.8155
  1.5756  1.5756  0.5911  0.5911  0.5950  0.5950  0.1853

 Free energy of the ion-electron system (eV)
  ---------------------------------------------------
  alpha Z        PSCENC =        38.82079944
  Ewald energy   TEWEN  =      8338.88239735
  -Hartree energ DENC   =    -11907.73533480
  -exchange      EXHF   =         0.00000000
  -V(xc)+E(xc)   XCENC  =        42.07202646
  PAW double counting   =      2444.00737216    -2463.53147492
  entropy T*S    EENTRO =         0.00000000
  eigenvalues    EBANDS =      -521.24075243
  atomic energy  EATOM  =      3994.15407262
  Solvation  Ediel_sol  =         0.00000000
  ---------------------------------------------------
  free energy    TOTEN  =       -34.57089412 eV

  energy without entropy =      -34.57089412  energy(sigma->0) =      -34.57089412


--------------------------------------------------------------------------------------------------------




--------------------------------------- Iteration      1(  13)  ---------------------------------------


    POTLOK:  cpu time   50.9720: real time   51.0256
    SETDIJ:  cpu time    0.0440: real time    0.0424
     EDDAV:  cpu time   28.5360: real time   28.7166
 BZINTS: Fermi energy: -3.807051; 65.000000 electrons
         Band energy:-517.501453;  BLOECHL correction: -0.009342
       DOS:  cpu time    0.0080: real time    0.0046
    CHARGE:  cpu time    2.1240: real time    2.1304
    MIXING:  cpu time    0.0440: real time    0.0449
    --------------------------------------------
      LOOP:  cpu time   81.7280: real time   81.9646

 eigenvalue-minimisations  :  1264
 total energy-change (2. order) : 0.1309717E+00  (-0.6044632E+00)
 number of electron      64.9999991 magnetization       4.8625878
 augmentation part        5.1153806 magnetization       3.2719857

 Broyden mixing:
  rms(total) = 0.18640E+00    rms(broyden)= 0.18632E+00
  rms(prec ) = 0.19294E+00
  weight for this iteration     100.00

 eigenvalues of (default mixing * dielectric matrix)
  average eigenvalue GAMMA=   0.8402
  2.2061  1.2904  0.6023  0.6023  0.6482  0.6482  0.5421  0.1822

 Free energy of the ion-electron system (eV)
  ---------------------------------------------------
  alpha Z        PSCENC =        38.82079944
  Ewald energy   TEWEN  =      8338.88239735
  -Hartree energ DENC   =    -11911.94230256
  -exchange      EXHF   =         0.00000000
  -V(xc)+E(xc)   XCENC  =        42.12939767
  PAW double counting   =      2452.00985869    -2470.99269248
  entropy T*S    EENTRO =         0.00000000
  eigenvalues    EBANDS =      -517.50145319
  atomic energy  EATOM  =      3994.15407262
  Solvation  Ediel_sol  =         0.00000000
  ---------------------------------------------------
  free energy    TOTEN  =       -34.43992246 eV

  energy without entropy =      -34.43992246  energy(sigma->0) =      -34.43992246


--------------------------------------------------------------------------------------------------------




--------------------------------------- Iteration      1(  14)  ---------------------------------------


    POTLOK:  cpu time   50.7880: real time   51.0785
    SETDIJ:  cpu time    0.0440: real time    0.0458
     EDDAV:  cpu time   31.8320: real time   32.1144
 BZINTS: Fermi energy: -3.784586; 65.000000 electrons
         Band energy:-515.954645;  BLOECHL correction: -0.007354
       DOS:  cpu time    0.0080: real time    0.0068
    CHARGE:  cpu time    2.1640: real time    2.1660
    MIXING:  cpu time    0.0440: real time    0.0453
    --------------------------------------------
      LOOP:  cpu time   84.8800: real time   85.4568

 eigenvalue-minimisations  :  1440
 total energy-change (2. order) :-0.1220624E+00  (-0.7066262E-01)
 number of electron      64.9999991 magnetization       4.2694631
 augmentation part        4.8942401 magnetization       2.7795542

 Broyden mixing:
  rms(total) = 0.12908E+00    rms(broyden)= 0.12900E+00
  rms(prec ) = 0.13438E+00
  weight for this iteration     100.00

 eigenvalues of (default mixing * dielectric matrix)
  average eigenvalue GAMMA=   0.9359
  2.6169  1.5705  0.6017  0.6017  0.8436  0.8436  0.6290  0.5347  0.1816

 Free energy of the ion-electron system (eV)
  ---------------------------------------------------
  alpha Z        PSCENC =        38.82079944
  Ewald energy   TEWEN  =      8338.88239735
  -Hartree energ DENC   =    -11913.55460013
  -exchange      EXHF   =         0.00000000
  -V(xc)+E(xc)   XCENC  =        42.14695591
  PAW double counting   =      2454.04573211    -2473.10269721
  entropy T*S    EENTRO =         0.00000000
  eigenvalues    EBANDS =      -515.95464499
  atomic energy  EATOM  =      3994.15407262
  Solvation  Ediel_sol  =         0.00000000
  ---------------------------------------------------
  free energy    TOTEN  =       -34.56198489 eV

  energy without entropy =      -34.56198489  energy(sigma->0) =      -34.56198489


--------------------------------------------------------------------------------------------------------




--------------------------------------- Iteration      1(  15)  ---------------------------------------


    POTLOK:  cpu time   51.1360: real time   51.2056
    SETDIJ:  cpu time    0.0440: real time    0.0418
     EDDAV:  cpu time   26.5320: real time   26.5779
 BZINTS: Fermi energy: -3.792332; 65.000000 electrons
         Band energy:-517.204892;  BLOECHL correction: -0.007414
       DOS:  cpu time    0.0040: real time    0.0070
    CHARGE:  cpu time    2.1680: real time    2.1722
    MIXING:  cpu time    0.0480: real time    0.0468
    --------------------------------------------
      LOOP:  cpu time   79.9320: real time   80.0513

 eigenvalue-minimisations  :  1168
 total energy-change (2. order) : 0.2246100E-01  (-0.3700345E+00)
 number of electron      64.9999991 magnetization       3.7672332
 augmentation part        4.8396723 magnetization       2.2796074

 Broyden mixing:
  rms(total) = 0.13023E+00    rms(broyden)= 0.13021E+00
  rms(prec ) = 0.13712E+00
  weight for this iteration     100.00

 eigenvalues of (default mixing * dielectric matrix)
  average eigenvalue GAMMA=   1.0118
  3.4350  1.8030  1.0562  0.6028  0.6028  0.6846  0.6846  0.5337  0.5337  0.1815

 Free energy of the ion-electron system (eV)
  ---------------------------------------------------
  alpha Z        PSCENC =        38.82079944
  Ewald energy   TEWEN  =      8338.88239735
  -Hartree energ DENC   =    -11911.92824555
  -exchange      EXHF   =         0.00000000
  -V(xc)+E(xc)   XCENC  =        42.08264607
  PAW double counting   =      2449.86083240    -2469.20713448
  entropy T*S    EENTRO =         0.00000000
  eigenvalues    EBANDS =      -517.20489174
  atomic energy  EATOM  =      3994.15407262
  Solvation  Ediel_sol  =         0.00000000
  ---------------------------------------------------
  free energy    TOTEN  =       -34.53952389 eV

  energy without entropy =      -34.53952389  energy(sigma->0) =      -34.53952389


--------------------------------------------------------------------------------------------------------




--------------------------------------- Iteration      1(  16)  ---------------------------------------


    POTLOK:  cpu time   50.8160: real time   50.8387
    SETDIJ:  cpu time    0.0440: real time    0.0425
     EDDAV:  cpu time   28.3320: real time   28.3728
 BZINTS: Fermi energy: -3.806133; 65.000000 electrons
         Band energy:-518.916770;  BLOECHL correction: -0.008900
       DOS:  cpu time    0.0080: real time    0.0073
    CHARGE:  cpu time    2.1200: real time    2.1300
    MIXING:  cpu time    0.0520: real time    0.0486
    --------------------------------------------
      LOOP:  cpu time   81.3720: real time   81.4398

 eigenvalue-minimisations  :  1248
 total energy-change (2. order) :-0.3292403E-01  (-0.1093346E-01)
 number of electron      64.9999991 magnetization       3.5134811
 augmentation part        4.9244389 magnetization       1.9970080

 Broyden mixing:
  rms(total) = 0.68226E-01    rms(broyden)= 0.68207E-01
  rms(prec ) = 0.70651E-01
  weight for this iteration     100.00

 eigenvalues of (default mixing * dielectric matrix)
  average eigenvalue GAMMA=   1.0965
  4.3595  1.6635  1.3328  0.6033  0.6033  0.8211  0.8211  0.5842  0.5842  0.5067
  0.1815

 Free energy of the ion-electron system (eV)
  ---------------------------------------------------
  alpha Z        PSCENC =        38.82079944
  Ewald energy   TEWEN  =      8338.88239735
  -Hartree energ DENC   =    -11910.16851416
  -exchange      EXHF   =         0.00000000
  -V(xc)+E(xc)   XCENC  =        42.02950354
  PAW double counting   =      2446.59432312    -2465.96826019
  entropy T*S    EENTRO =         0.00000000
  eigenvalues    EBANDS =      -518.91676963
  atomic energy  EATOM  =      3994.15407262
  Solvation  Ediel_sol  =         0.00000000
  ---------------------------------------------------
  free energy    TOTEN  =       -34.57244792 eV

  energy without entropy =      -34.57244792  energy(sigma->0) =      -34.57244792


--------------------------------------------------------------------------------------------------------




--------------------------------------- Iteration      1(  17)  ---------------------------------------


    POTLOK:  cpu time   50.7680: real time   51.0644
    SETDIJ:  cpu time    0.0920: real time    0.0893
     EDDAV:  cpu time   29.6120: real time   29.7034
 BZINTS: Fermi energy: -3.797727; 65.000000 electrons
         Band energy:-518.568175;  BLOECHL correction: -0.008827
       DOS:  cpu time    0.0080: real time    0.0068
    CHARGE:  cpu time    2.1920: real time    2.1939
    MIXING:  cpu time    0.0440: real time    0.0503
    --------------------------------------------
      LOOP:  cpu time   82.7160: real time   83.1082

 eigenvalue-minimisations  :  1312
 total energy-change (2. order) :-0.1308701E-01  (-0.2644353E-02)
 number of electron      64.9999991 magnetization       3.2624183
 augmentation part        4.9341766 magnetization       1.7593818

 Broyden mixing:
  rms(total) = 0.45220E-01    rms(broyden)= 0.45214E-01
  rms(prec ) = 0.47183E-01
  weight for this iteration     100.00

 eigenvalues of (default mixing * dielectric matrix)
  average eigenvalue GAMMA=   1.2592
  5.8065  2.3381  1.1827  1.1827  0.6033  0.6033  0.7477  0.7477  0.6188  0.5684
  0.5297  0.1815

 Free energy of the ion-electron system (eV)
  ---------------------------------------------------
  alpha Z        PSCENC =        38.82079944
  Ewald energy   TEWEN  =      8338.88239735
  -Hartree energ DENC   =    -11910.64650349
  -exchange      EXHF   =         0.00000000
  -V(xc)+E(xc)   XCENC  =        42.03729563
  PAW double counting   =      2448.07593005    -2467.34135189
  entropy T*S    EENTRO =         0.00000000
  eigenvalues    EBANDS =      -518.56817463
  atomic energy  EATOM  =      3994.15407262
  Solvation  Ediel_sol  =         0.00000000
  ---------------------------------------------------
  free energy    TOTEN  =       -34.58553492 eV

  energy without entropy =      -34.58553492  energy(sigma->0) =      -34.58553492


--------------------------------------------------------------------------------------------------------




--------------------------------------- Iteration      1(  18)  ---------------------------------------


    POTLOK:  cpu time   50.8000: real time   50.9700
    SETDIJ:  cpu time    0.0400: real time    0.0418
     EDDAV:  cpu time   27.3880: real time   27.4617
 BZINTS: Fermi energy: -3.780256; 65.000000 electrons
         Band energy:-517.453097;  BLOECHL correction: -0.008629
       DOS:  cpu time    0.0040: real time    0.0067
    CHARGE:  cpu time    2.1120: real time    2.1174
    MIXING:  cpu time    0.0480: real time    0.0495
    --------------------------------------------
      LOOP:  cpu time   80.3920: real time   80.6472

 eigenvalue-minimisations  :  1200
 total energy-change (2. order) :-0.1621160E-01  (-0.3289267E-02)
 number of electron      64.9999991 magnetization       3.0887809
 augmentation part        4.8796630 magnetization       1.6255143

 Broyden mixing:
  rms(total) = 0.61790E-01    rms(broyden)= 0.61781E-01
  rms(prec ) = 0.66422E-01
  weight for this iteration     100.00

 eigenvalues of (default mixing * dielectric matrix)
  average eigenvalue GAMMA=   1.4196
  7.6958  2.6599  1.3735  1.3735  0.6033  0.6033  0.8249  0.8249  0.6319  0.6319
  0.5374  0.5132  0.1815

 Free energy of the ion-electron system (eV)
  ---------------------------------------------------
  alpha Z        PSCENC =        38.82079944
  Ewald energy   TEWEN  =      8338.88239735
  -Hartree energ DENC   =    -11911.75360784
  -exchange      EXHF   =         0.00000000
  -V(xc)+E(xc)   XCENC  =        42.05953444
  PAW double counting   =      2450.37383062    -2469.68567650
  entropy T*S    EENTRO =         0.00000000
  eigenvalues    EBANDS =      -517.45309667
  atomic energy  EATOM  =      3994.15407262
  Solvation  Ediel_sol  =         0.00000000
  ---------------------------------------------------
  free energy    TOTEN  =       -34.60174652 eV

  energy without entropy =      -34.60174652  energy(sigma->0) =      -34.60174652


--------------------------------------------------------------------------------------------------------




--------------------------------------- Iteration      1(  19)  ---------------------------------------


    POTLOK:  cpu time   50.9160: real time   51.0052
    SETDIJ:  cpu time    0.0400: real time    0.0415
     EDDAV:  cpu time   23.7520: real time   23.8529
 BZINTS: Fermi energy: -3.771899; 65.000000 electrons
         Band energy:-517.242805;  BLOECHL correction: -0.008917
       DOS:  cpu time    0.0040: real time    0.0070
    CHARGE:  cpu time    2.1360: real time    2.1442
    MIXING:  cpu time    0.0720: real time    0.0756
    --------------------------------------------
      LOOP:  cpu time   76.9200: real time   77.1263

 eigenvalue-minimisations  :  1024
 total energy-change (2. order) : 0.4925775E-02  (-0.2751802E-02)
 number of electron      64.9999991 magnetization       3.0036945
 augmentation part        4.8991037 magnetization       1.5311536

 Broyden mixing:
  rms(total) = 0.45462E-01    rms(broyden)= 0.45461E-01
  rms(prec ) = 0.48786E-01
  weight for this iteration     100.00

 eigenvalues of (default mixing * dielectric matrix)
  average eigenvalue GAMMA=   1.4921
  9.0227  2.6633  1.5331  1.3276  0.6034  0.6034  0.9475  0.9475  0.7055  0.7055
  0.5734  0.5734  0.5017  0.1815

 Free energy of the ion-electron system (eV)
  ---------------------------------------------------
  alpha Z        PSCENC =        38.82079944
  Ewald energy   TEWEN  =      8338.88239735
  -Hartree energ DENC   =    -11911.87589667
  -exchange      EXHF   =         0.00000000
  -V(xc)+E(xc)   XCENC  =        42.05114223
  PAW double counting   =      2450.63528426    -2470.02181508
  entropy T*S    EENTRO =         0.00000000
  eigenvalues    EBANDS =      -517.24280490
  atomic energy  EATOM  =      3994.15407262
  Solvation  Ediel_sol  =         0.00000000
  ---------------------------------------------------
  free energy    TOTEN  =       -34.59682075 eV

  energy without entropy =      -34.59682075  energy(sigma->0) =      -34.59682075


--------------------------------------------------------------------------------------------------------




--------------------------------------- Iteration      1(  20)  ---------------------------------------


    POTLOK:  cpu time   50.6880: real time   51.0450
    SETDIJ:  cpu time    0.0360: real time    0.0406
     EDDAV:  cpu time   28.2760: real time   28.4005
 BZINTS: Fermi energy: -3.778123; 65.000000 electrons
         Band energy:-517.960396;  BLOECHL correction: -0.009439
       DOS:  cpu time    0.0040: real time    0.0070
    CHARGE:  cpu time    2.1240: real time    2.1258
    MIXING:  cpu time    0.0520: real time    0.0520
    --------------------------------------------
      LOOP:  cpu time   81.1800: real time   81.6707

 eigenvalue-minimisations  :  1248
 total energy-change (2. order) : 0.6406241E-03  (-0.7753196E-03)
 number of electron      64.9999991 magnetization       3.0059185
 augmentation part        4.9774986 magnetization       1.4972659

 Broyden mixing:
  rms(total) = 0.18006E-01    rms(broyden)= 0.17973E-01
  rms(prec ) = 0.19644E-01
  weight for this iteration     100.00

 eigenvalues of (default mixing * dielectric matrix)
  average eigenvalue GAMMA=   1.4534
  9.1378  2.7099  1.4985  1.4985  0.6034  0.6034  0.9382  0.9382  0.1815  0.7072
  0.7072  0.6189  0.6189  0.5195  0.5195

 Free energy of the ion-electron system (eV)
  ---------------------------------------------------
  alpha Z        PSCENC =        38.82079944
  Ewald energy   TEWEN  =      8338.88239735
  -Hartree energ DENC   =    -11911.18338838
  -exchange      EXHF   =         0.00000000
  -V(xc)+E(xc)   XCENC  =        42.02600592
  PAW double counting   =      2449.39316874    -2468.72884021
  entropy T*S    EENTRO =         0.00000000
  eigenvalues    EBANDS =      -517.96039560
  atomic energy  EATOM  =      3994.15407262
  Solvation  Ediel_sol  =         0.00000000
  ---------------------------------------------------
  free energy    TOTEN  =       -34.59618012 eV

  energy without entropy =      -34.59618012  energy(sigma->0) =      -34.59618012


--------------------------------------------------------------------------------------------------------




--------------------------------------- Iteration      1(  21)  ---------------------------------------


    POTLOK:  cpu time   50.7360: real time   51.1060
    SETDIJ:  cpu time    0.0440: real time    0.0445
     EDDAV:  cpu time   25.7720: real time   26.0880
 BZINTS: Fermi energy: -3.775966; 65.000000 electrons
         Band energy:-517.807201;  BLOECHL correction: -0.009321
       DOS:  cpu time    0.0040: real time    0.0067
    CHARGE:  cpu time    2.0280: real time    2.1822
    MIXING:  cpu time    0.0800: real time    0.0803
    --------------------------------------------
      LOOP:  cpu time   78.6640: real time   79.5077

 eigenvalue-minimisations  :  1120
 total energy-change (2. order) :-0.3354823E-03  (-0.1695929E-03)
 number of electron      64.9999991 magnetization       3.0051912
 augmentation part        4.9689568 magnetization       1.5030597

 Broyden mixing:
  rms(total) = 0.10264E-01    rms(broyden)= 0.10264E-01
  rms(prec ) = 0.11202E-01
  weight for this iteration     100.00

 eigenvalues of (default mixing * dielectric matrix)
  average eigenvalue GAMMA=   1.4502
  9.2369  2.7157  1.6099  1.6099  1.0064  1.0064  0.6035  0.6035  0.8364  0.8364
  0.1815  0.6570  0.6570  0.5041  0.5692  0.5692

 Free energy of the ion-electron system (eV)
  ---------------------------------------------------
  alpha Z        PSCENC =        38.82079944
  Ewald energy   TEWEN  =      8338.88239735
  -Hartree energ DENC   =    -11911.37874639
  -exchange      EXHF   =         0.00000000
  -V(xc)+E(xc)   XCENC  =        42.03005083
  PAW double counting   =      2449.67115644    -2468.96904502
  entropy T*S    EENTRO =         0.00000000
  eigenvalues    EBANDS =      -517.80720088
  atomic energy  EATOM  =      3994.15407262
  Solvation  Ediel_sol  =         0.00000000
  ---------------------------------------------------
  free energy    TOTEN  =       -34.59651561 eV

  energy without entropy =      -34.59651561  energy(sigma->0) =      -34.59651561


--------------------------------------------------------------------------------------------------------




--------------------------------------- Iteration      1(  22)  ---------------------------------------


    POTLOK:  cpu time   50.6280: real time   51.0456
    SETDIJ:  cpu time    0.0400: real time    0.0421
     EDDAV:  cpu time   19.2160: real time   19.2603
 BZINTS: Fermi energy: -3.776145; 65.000000 electrons
         Band energy:-517.764824;  BLOECHL correction: -0.009270
       DOS:  cpu time    0.0080: real time    0.0045
    --------------------------------------------
      LOOP:  cpu time   69.8920: real time   70.3524

 eigenvalue-minimisations  :   768
 total energy-change (2. order) : 0.8792234E-04  (-0.1591984E-04)
 number of electron      64.9999991 magnetization       3.0051912
 augmentation part        4.9689568 magnetization       1.5030597

 Free energy of the ion-electron system (eV)
  ---------------------------------------------------
  alpha Z        PSCENC =        38.82079944
  Ewald energy   TEWEN  =      8338.88239735
  -Hartree energ DENC   =    -11911.44570354
  -exchange      EXHF   =         0.00000000
  -V(xc)+E(xc)   XCENC  =        42.03067393
  PAW double counting   =      2449.68556753    -2468.95941119
  entropy T*S    EENTRO =         0.00000000
  eigenvalues    EBANDS =      -517.76482381
  atomic energy  EATOM  =      3994.15407262
  Solvation  Ediel_sol  =         0.00000000
  ---------------------------------------------------
  free energy    TOTEN  =       -34.59642768 eV

  energy without entropy =      -34.59642768  energy(sigma->0) =      -34.59642768


--------------------------------------------------------------------------------------------------------




 average (electrostatic) potential at core
  the test charge radii are     0.9791  0.9892  0.9587  1.0808
  (the norm of the test charge is              1.0000)
[...]
     34      -2.2040      0.00000
     35      -1.9451      0.00000
     36      -1.1477      0.00000
     37       0.1650      0.00000
     38       0.2875      0.00000
     39       0.5162      0.00000
     40       1.2399      0.00000
     41       1.6019      0.00000
     42       1.6425      0.00000
     43       2.1401      0.00000
     44       2.4429      0.00000
     45       2.4693      0.00000
     46       2.8499      0.00000
     47       3.2164      0.00000
     48       3.3066      0.00000

 k-point     5 :      -0.4000    0.2000    0.0000
  band No.  band energies     occupation 
      1     -17.3660      1.00000
      2     -16.4124      1.00000
      3     -16.1189      1.00000
      4     -16.0061      1.00000
      5     -15.7346      1.00000
      6     -15.5535      1.00000
      7     -12.5093      1.00000
      8      -9.9870      1.00000
      9      -8.3954      1.00000
     10      -7.9172      1.00000
     11      -7.7341      1.00000
     12      -7.1518      1.00000
     13      -7.1145      1.00000
     14      -6.4880      1.00000
     15      -6.2476      1.00000
     16      -6.0312      1.00000
     17      -6.0141      1.00000
     18      -5.8295      1.00000
     19      -5.6146      1.00000
     20      -5.4638      1.00000
     21      -5.3233      1.00000
     22      -4.7825      1.00000
     23      -4.6212      1.00000
     24      -4.4954      1.00000
     25      -4.3698      1.00000
     26      -4.3045      1.00000
     27      -4.2073      1.00000
     28      -4.0966      1.00000
     29      -3.8992      1.00000
     30      -3.8463      1.00000
     31      -3.7157      1.00000
     32      -2.7752      1.00000
     33      -2.6482      0.96901
     34      -2.2102      0.00000
     35      -1.8545      0.00000
     36      -1.4467      0.00000
     37      -0.1433      0.00000
     38      -0.0344      0.00000
     39       0.2965      0.00000
     40       1.0733      0.00000
     41       1.3067      0.00000
     42       1.4461      0.00000
     43       2.5580      0.00000
     44       2.7656      0.00000
     45       2.8054      0.00000
     46       2.9688      0.00000
     47       3.0473      0.00000
     48       3.6046      0.00000


--------------------------------------------------------------------------------------------------------


 soft charge-density along one line, spin component           1
         0         1         2         3         4         5         6         7         8         9
 total charge-density along one line

 soft charge-density along one line, spin component           2
         0         1         2         3         4         5         6         7         8         9
 total charge-density along one line

 pseudopotential strength for first ion, spin component:           1
-10.232   0.035  -0.000  -0.004  -0.000   1.245  -0.012   0.000
  0.035 -10.216   0.000  -0.000  -0.004  -0.012   1.240  -0.000
 -0.000   0.000 -10.271   0.000   0.000   0.000  -0.000   1.259
 -0.004  -0.000   0.000 -10.216  -0.035   0.002   0.000  -0.000
 -0.000  -0.004   0.000  -0.035 -10.232   0.000   0.002  -0.000
  1.245  -0.012   0.000   0.002   0.000   0.800   0.003   0.000
 -0.012   1.240  -0.000   0.000   0.002   0.003   0.801   0.000
  0.000  -0.000   1.259  -0.000  -0.000   0.000   0.000   0.796
  0.002   0.000  -0.000   1.240   0.012  -0.001  -0.000   0.000
  0.000   0.002  -0.000   0.012   1.245  -0.000  -0.001   0.000
  0.000  -0.000   0.001  -0.000   0.000   0.000  -0.000   0.000
 -0.000   0.000  -0.000   0.000  -0.000   0.000  -0.000   0.000
  0.000   0.003   0.000   0.000   0.000  -0.000  -0.001  -0.000
  0.000  -0.000   0.003  -0.000   0.000   0.000   0.000  -0.001
  0.000   0.000   0.000   0.003  -0.000   0.000   0.000  -0.000
  0.000  -0.001  -0.000  -0.000  -0.001  -0.000   0.001   0.000
 -0.000   0.000  -0.002   0.000  -0.000   0.000  -0.000   0.001
 -0.001  -0.000  -0.000  -0.001  -0.000   0.000   0.000   0.000
 pseudopotential strength for first ion, spin component:           2
-10.678  -0.141  -0.000   0.001  -0.000   1.436   0.059   0.000
 -0.141 -10.828   0.000  -0.000   0.001   0.059   1.498  -0.000
 -0.000   0.000 -10.594   0.000   0.000   0.000  -0.000   1.400
  0.001  -0.000   0.000 -10.828   0.141  -0.000   0.000  -0.000
 -0.000   0.001   0.000   0.141 -10.678   0.000  -0.000  -0.000
  1.436   0.059   0.000  -0.000   0.000   0.718  -0.025   0.000
  0.059   1.498  -0.000   0.000  -0.000  -0.025   0.693   0.000
  0.000  -0.000   1.400  -0.000  -0.000   0.000   0.000   0.734
 -0.000   0.000  -0.000   1.498  -0.059   0.000  -0.000   0.000
  0.000  -0.000  -0.000  -0.059   1.436  -0.000   0.000   0.000
  0.000  -0.000   0.005  -0.000   0.000   0.000  -0.000  -0.001
 -0.000   0.000  -0.000   0.000  -0.000   0.000  -0.000   0.000
 -0.000   0.001   0.000  -0.000   0.001   0.000  -0.000  -0.000
 -0.000  -0.000   0.002  -0.000   0.000  -0.000   0.000  -0.001
  0.001  -0.000   0.000   0.001   0.000  -0.000  -0.000  -0.000
  0.000  -0.001  -0.000   0.000  -0.001  -0.000   0.000   0.000
  0.000   0.000  -0.002   0.000  -0.000  -0.000  -0.000   0.001
 -0.001   0.000  -0.000  -0.001  -0.000   0.000  -0.000   0.000
 total augmentation occupancy for first ion, spin component:           1
  1.810  -0.176   0.000  -0.003  -0.000   0.014   0.077  -0.000   0.004  -0.000  -0.000  -0.000  -0.004   0.000   0.008   0.000
 -0.176   1.651  -0.000  -0.000  -0.003   0.076   0.092   0.000  -0.000   0.004   0.000   0.000  -0.003   0.000   0.005   0.001
  0.000  -0.000   1.948  -0.000  -0.000  -0.000   0.000  -0.051   0.000   0.000  -0.010  -0.006  -0.000   0.004   0.000   0.000
 -0.003  -0.000  -0.000   1.651   0.176   0.004   0.000   0.000   0.092  -0.076   0.000   0.000  -0.005  -0.000  -0.003   0.000
 -0.000  -0.003  -0.000   0.176   1.810   0.000   0.004   0.000  -0.077   0.014   0.000   0.000   0.008  -0.000   0.004  -0.000
  0.014   0.076  -0.000   0.004   0.000   0.076   0.059   0.000  -0.003  -0.000   0.000  -0.000  -0.001   0.000   0.006  -0.000
  0.077   0.092   0.000   0.000   0.004   0.059   0.136   0.000  -0.000  -0.003   0.000   0.000  -0.000   0.000  -0.002  -0.000
 -0.000   0.000  -0.051   0.000   0.000   0.000   0.000   0.057   0.000  -0.000   0.026  -0.012  -0.000   0.000   0.000   0.000
  0.004  -0.000   0.000   0.092  -0.077  -0.003  -0.000   0.000   0.136  -0.059  -0.000   0.000   0.002   0.000  -0.000  -0.000
 -0.000   0.004   0.000  -0.076   0.014  -0.000  -0.003  -0.000  -0.059   0.076  -0.000   0.000   0.006  -0.000   0.001  -0.002
 -0.000   0.000  -0.010   0.000   0.000   0.000   0.000   0.026  -0.000  -0.000   0.981  -0.280   0.000  -0.005   0.000   0.000
 -0.000   0.000  -0.006  -0.000   0.000  -0.000   0.000  -0.012   0.000   0.000  -0.280   0.136   0.000  -0.001  -0.000   0.000
 -0.004  -0.003  -0.000  -0.005   0.008  -0.001  -0.000  -0.000   0.002   0.006   0.000   0.000   0.176  -0.000  -0.000  -0.013
  0.000  -0.000   0.004  -0.000  -0.000   0.000  -0.000   0.000  -0.000  -0.000  -0.005  -0.001  -0.000   0.186   0.000   0.000
  0.008   0.005   0.000  -0.003   0.004   0.006  -0.002   0.000  -0.000   0.001  -0.000  -0.000  -0.000   0.000   0.176   0.000
  0.000   0.001   0.000   0.000  -0.000  -0.000  -0.000   0.000  -0.000  -0.002   0.000   0.000  -0.013   0.000   0.000   0.002
  0.000  -0.000   0.001  -0.000  -0.000  -0.000   0.000  -0.000   0.000   0.000   0.000   0.000   0.000  -0.015  -0.000  -0.000
 -0.000  -0.000  -0.000   0.001  -0.000  -0.002   0.000  -0.000  -0.000   0.000   0.000   0.000  -0.000  -0.000  -0.013  -0.000
 total augmentation occupancy for first ion, spin component:           2
 -0.062  -0.102  -0.000   0.003   0.000   0.054   0.047   0.000  -0.002   0.000   0.000  -0.000  -0.003  -0.000   0.002  -0.000
 -0.102  -0.159  -0.000   0.000   0.003   0.046   0.100   0.000   0.000  -0.002   0.000   0.000  -0.005   0.000   0.003  -0.000
 -0.000  -0.000   0.008  -0.000   0.000   0.000   0.000   0.022   0.000  -0.000   0.001  -0.000  -0.000  -0.000  -0.000  -0.000
  0.003   0.000  -0.000  -0.159   0.102  -0.002  -0.000   0.000   0.100  -0.046  -0.000   0.000  -0.003   0.000  -0.005   0.000
  0.000   0.003   0.000   0.102  -0.062  -0.000  -0.002  -0.000  -0.047   0.054  -0.000   0.000   0.002   0.000   0.003  -0.000
  0.054   0.046   0.000  -0.002  -0.000  -0.012  -0.017  -0.000   0.001   0.000  -0.000  -0.000   0.001   0.000   0.000   0.000
  0.047   0.100   0.000  -0.000  -0.002  -0.017  -0.029  -0.000   0.000   0.001   0.000   0.000   0.002   0.000  -0.001   0.000
  0.000   0.000   0.022   0.000  -0.000  -0.000  -0.000  -0.001  -0.000   0.000  -0.002  -0.001   0.000   0.000   0.000   0.000
 -0.002   0.000   0.000   0.100  -0.047   0.001   0.000  -0.000  -0.029   0.017   0.000   0.000   0.001  -0.000   0.002  -0.000
  0.000  -0.002  -0.000  -0.046   0.054   0.000   0.001   0.000   0.017  -0.012   0.000   0.000   0.000  -0.000  -0.001   0.000
  0.000   0.000   0.001   0.000  -0.000  -0.000   0.000  -0.002   0.000   0.000  -0.009  -0.019   0.000  -0.001  -0.000   0.000
 -0.000   0.000  -0.000   0.000   0.000  -0.000   0.000  -0.001   0.000   0.000  -0.019   0.011   0.000   0.000   0.000   0.000
 -0.003  -0.005  -0.000  -0.003   0.002   0.001   0.002   0.000   0.001   0.000   0.000   0.000  -0.000   0.000   0.000  -0.001
 -0.000   0.000  -0.000  -0.000   0.000   0.000  -0.000   0.000   0.000  -0.000  -0.001   0.000   0.000   0.000   0.000   0.000
  0.002   0.003  -0.000  -0.005   0.003   0.000  -0.001   0.000   0.002  -0.001  -0.000   0.000   0.000   0.000  -0.000   0.000
 -0.000  -0.000  -0.000   0.000  -0.000   0.000   0.000   0.000  -0.000   0.000   0.000   0.000  -0.001   0.000   0.000   0.000
 -0.000   0.000  -0.000  -0.000   0.000   0.000   0.000   0.000   0.000  -0.000  -0.000   0.000   0.000  -0.001  -0.000  -0.000
 -0.000  -0.000  -0.000  -0.000   0.000   0.000   0.000   0.000   0.000  -0.000   0.000   0.000  -0.000  -0.000  -0.001  -0.000


------------------------ aborting loop because EDIFF is reached ----------------------------------------





 total charge     

# of ion       s       p       d       tot
------------------------------------------
    1        0.380   0.412   8.348   9.140
    2        0.380   0.411   8.350   9.142
    3        0.750   0.860   0.000   1.610
    4        1.041   1.394   0.000   2.435
    5        1.502   2.244   0.049   3.796
    6        1.490   2.238   0.052   3.781
    7        1.498   2.246   0.050   3.795
    8        1.491   2.273   0.045   3.809
    9        1.484   2.319   0.047   3.849
   10        1.488   2.288   0.046   3.822
--------------------------------------------------
tot         11.506  16.686  16.987  45.178



 magnetization (x)

# of ion       s       p       d       tot
------------------------------------------
    1       -0.001   0.001  -0.575  -0.574
    2        0.001  -0.001   0.577   0.576
    3       -0.000   0.000   0.000   0.000
    4       -0.000   0.000   0.000   0.000
    5        0.001  -0.000  -0.000   0.000
    6        0.000  -0.004  -0.000  -0.004
    7       -0.001   0.005   0.000   0.005
    8       -0.000   0.014   0.000   0.014
    9       -0.000   0.007   0.000   0.007
   10        0.000  -0.021  -0.000  -0.021
--------------------------------------------------
tot          0.000   0.001   0.002   0.003

    CHARGE:  cpu time    2.2520: real time    2.2546
    FORLOC:  cpu time    0.0640: real time    0.0633
    FORNL :  cpu time    6.6560: real time    6.6630
    STRESS:  cpu time   19.6800: real time   19.9313
    FORCOR:  cpu time   50.9800: real time   51.4115
    FORHAR:  cpu time    0.3320: real time    0.3319
    MIXING:  cpu time    0.0440: real time    0.0434
    OFIELD:  cpu time    0.0000: real time    0.0000

  FORCE on cell =-STRESS in cart. coord.  units (eV):
  Direction    XX          YY          ZZ          XY          YZ          ZX
  --------------------------------------------------------------------------------------
  Alpha Z    51.87052    51.87052    51.87052
  Ewald   12387.09829 12387.09540-14634.53514    -0.00215    -0.00063    -0.00113
  Hartree 13139.42586 13139.42693-12531.63273    -0.00040     0.00009     0.00014
  E(xc)    -277.09143  -277.09151  -277.03178     0.00009     0.00000     0.00001
  Local  -26286.74729-26286.74687 26369.29130     0.00216     0.00034     0.00063
  n-local   275.37590   276.22821   278.57371     0.30685     0.36870     0.33635
  augment    63.46509    63.46491    59.40816     0.00031     0.00002     0.00005
  Kinetic   650.68182   641.01618   684.00624    -5.19686    -1.59438    -1.78088
  Fock        0.00000     0.00000     0.00000     0.00000     0.00000     0.00000
  -------------------------------------------------------------------------------------
  Total      -0.32874    -0.32874    -0.04974    -0.00000     0.00000     0.00000
  in kB      -0.72638    -0.72638    -0.10990    -0.00000     0.00000     0.00000
  external pressure =       -0.52 kB  Pullay stress =        0.00 kB


 VOLUME and BASIS-vectors are now :
 -----------------------------------------------------------------------------
  energy-cutoff  :      520.00
  volume of cell :      725.09
      direct lattice vectors                 reciprocal lattice vectors
     6.179892735  0.000000366  0.000000000     0.161815112 -0.093423980 -0.000000000
     3.089945709  5.351944035 -0.000000000    -0.000000011  0.186847999  0.000000000
    -0.000000000 -0.000000000 21.923063339    -0.000000000  0.000000000  0.045614063

  length of vectors
     6.179892735  6.179892349 21.923063339     0.186847987  0.186847999  0.045614063


 FORCES acting on ions
    electron-ion (+dipol)            ewald-force                    non-local-force                 convergence-correction
 -----------------------------------------------------------------------------------------------
   -.123E-03 -.733E-04 0.115E+02   0.830E-03 0.493E-03 -.123E+02   -.278E-16 0.137E-16 0.779E+00   0.209E-06 0.198E-06 0.184E-02
   0.113E-03 0.827E-04 0.102E+02   -.833E-03 -.494E-03 -.109E+02   -.278E-16 -.173E-18 0.759E+00   -.208E-06 0.106E-06 0.365E-02
   -.272E-04 -.566E-04 0.254E+03   -.190E-03 -.106E-03 -.252E+03   0.240E-18 0.472E-18 -.208E+01   0.188E-07 0.752E-09 0.838E-02
   0.421E-04 0.535E-04 -.302E+03   0.238E-03 0.133E-03 0.297E+03   0.272E-16 -.104E-17 0.460E+01   -.110E-07 0.444E-08 -.111E-01
   -.139E+02 0.123E-01 -.536E+03   0.122E+02 -.252E-01 0.538E+03   0.173E+01 -.290E-02 -.200E+01   -.568E-02 0.125E-01 -.169E-01
   0.696E+01 0.120E+02 -.536E+03   -.611E+01 -.105E+02 0.538E+03   -.868E+00 -.150E+01 -.200E+01   0.137E-01 -.133E-02 -.169E-01
   0.694E+01 -.120E+02 -.536E+03   -.607E+01 0.106E+02 0.538E+03   -.863E+00 0.150E+01 -.200E+01   -.799E-02 -.112E-01 -.169E-01
   0.240E+02 0.767E-02 0.544E+03   -.224E+02 -.241E-01 -.546E+03   -.167E+01 0.683E-02 0.207E+01   0.412E-02 0.137E-01 0.217E-01
   -.120E+02 -.208E+02 0.544E+03   0.112E+02 0.194E+02 -.546E+03   0.842E+00 0.145E+01 0.207E+01   0.979E-02 -.104E-01 0.217E-01
   -.120E+02 0.208E+02 0.544E+03   0.112E+02 -.193E+02 -.546E+03   0.830E+00 -.145E+01 0.207E+01   -.139E-01 -.327E-02 0.217E-01
 -----------------------------------------------------------------------------------------------
   0.118E-04 0.734E-04 -.429E+01   -.178E-14 -.107E-13 0.000E+00   -.444E-15 0.000E+00 0.428E+01   0.149E-07 0.316E-06 0.172E-01


 POSITION                                       TOTAL-FORCE (eV/Angst)
 -----------------------------------------------------------------------------------
      3.08994      1.78398     10.95786         0.000000     -0.000000      0.006547
      6.17990      3.56796     10.95987         0.000000     -0.000000      0.000226
     -0.00000     -0.00000      9.83380         0.000000      0.000000     -0.051110
     -0.00000     -0.00000     12.09101         0.000000      0.000000     -0.005490
      3.93343      0.00094     12.51801         0.006036     -0.002549      0.007209
      1.12405      1.94503     12.51801        -0.005226     -0.003952      0.007209
      4.21237      3.40598     12.51801        -0.000810      0.006502      0.007209
      5.34219      5.35128      9.40625        -0.003508      0.003372      0.009400
      8.14314      3.40177      9.40625         0.004674      0.001352      0.009400
      5.05434      1.95083      9.40625        -0.001166     -0.004724      0.009400
 -----------------------------------------------------------------------------------
    total drift:                                0.000012      0.000074      0.007764


--------------------------------------------------------------------------------------------------------



  FREE ENERGIE OF THE ION-ELECTRON SYSTEM (eV)
  ---------------------------------------------------
  free  energy   TOTEN  =       -38.89909374 eV

  energy  without entropy=      -38.89909374  energy(sigma->0) =      -38.89909374

 d Force =-0.5436286E-04[-0.511E-04,-0.576E-04]  d Energy = 0.7256964E-03-0.780E-03
 d Force = 0.1059797E+00[ 0.106E+00, 0.106E+00]  d Ewald  =-0.1927232E+02 0.194E+02


--------------------------------------------------------------------------------------------------------


    POTLOK:  cpu time   51.4520: real time   51.9406


--------------------------------------------------------------------------------------------------------




--------------------------------------------------------------------------------------------------------


  
 reached required accuracy - stopping structural energy minimisation
     LOOP+:  cpu time  594.3040: real time  601.8204
    4ORBIT:  cpu time    0.0000: real time    0.0000



 total charge     

# of ion       s       p       d       tot
------------------------------------------
    1        0.380   0.412   8.348   9.140
    2        0.380   0.411   8.350   9.142
    3        0.750   0.860   0.000   1.610
    4        1.041   1.394   0.000   2.435
    5        1.502   2.244   0.049   3.796
    6        1.490   2.238   0.052   3.781
    7        1.498   2.246   0.050   3.795
    8        1.491   2.273   0.045   3.809
    9        1.484   2.319   0.047   3.849
   10        1.488   2.288   0.046   3.822
--------------------------------------------------
tot         11.506  16.686  16.987  45.178



 magnetization (x)

# of ion       s       p       d       tot
------------------------------------------
    1       -0.001   0.001  -0.575  -0.574
    2        0.001  -0.001   0.577   0.576
    3       -0.000   0.000   0.000   0.000
    4       -0.000   0.000   0.000   0.000
    5        0.001  -0.000  -0.000   0.000
    6        0.000  -0.004  -0.000  -0.004
    7       -0.001   0.005   0.000   0.005
    8       -0.000   0.014   0.000   0.014
    9       -0.000   0.007   0.000   0.007
   10        0.000  -0.021  -0.000  -0.021
--------------------------------------------------
tot          0.000   0.001   0.002   0.003

 BZINTS: Fermi energy: -2.550485; 65.000000 electrons
         Band energy:-503.447993;  BLOECHL correction: -0.029358

 total amount of memory used by VASP MPI-rank0   132209. kBytes
=======================================================================

   base      :      30000. kBytes
   nonlr-proj:       9709. kBytes
   fftplans  :      11247. kBytes
   grid      :      68332. kBytes
   one-center:        311. kBytes
   wavefun   :      12610. kBytes

  
  
 General timing and accounting informations for this job:
 ========================================================
  
                  Total CPU time used (sec):     9311.100
                            User time (sec):     9097.692
                          System time (sec):      213.408
                         Elapsed time (sec):     9371.271
  
                   Maximum memory used (kb):      384196.
                   Average memory used (kb):           0.
  
                          Minor page faults:      9292181
                          Major page faults:            7
                 Voluntary context switches:         1021
