PROCAR lm decomposed
# of k-points:    5         # of bands:   48         # of ions:   10

 k-point     1 :    0.00000000 0.00000000 0.00000000     weight = 0.04000000

band     1 # energy  -17.88634336 # occ.  1.00000000

ion      s     py     pz     px    dxy    dyz    dz2    dxz  x2-y2    tot
    1  0.010  0.000  0.000  0.000  0.000  0.000  0.000  0.000  0.000  0.011
    2  0.010  0.000  0.000  0.000  0.000  0.000  0.000  0.000  0.000  0.011
    3  0.020  0.000  0.001  0.000  0.000  0.000  0.000  0.000  0.000  0.021
    4  0.137  0.000  0.000  0.000  0.000  0.000  0.000  0.000  0.000  0.137
    5  0.125  0.000  0.001  0.003  0.000  0.000  0.000  0.000  0.000  0.129
    6  0.125  0.002  0.001  0.001  0.000  0.000  0.000  0.000  0.000  0.129
    7  0.125  0.002  0.001  0.001  0.000  0.000  0.000  0.000  0.000  0.129
    8  0.026  0.000  0.000  0.000  0.000  0.000  0.000  0.000  0.000  0.027
    9  0.026  0.000  0.000  0.000  0.000  0.000  0.000  0.000  0.000  0.027
   10  0.026  0.000  0.000  0.000  0.000  0.000  0.000  0.000  0.000  0.027
tot    0.631  0.005  0.006  0.005  0.001  0.000  0.001  0.000  0.001  0.648

band     2 # energy  -16.58528564 # occ.  1.00000000

ion      s     py     pz     px    dxy    dyz    dz2    dxz  x2-y2    tot
    1  0.003  0.000  0.005  0.000  0.000  0.000  0.000  0.000  0.000  0.008
    2  0.003  0.000  0.005  0.000  0.000  0.000  0.000  0.000  0.000  0.008
    3  0.044  0.000  0.001  0.000  0.000  0.000  0.000  0.000  0.000  0.045
    4  0.019  0.000  0.002  0.000  0.000  0.000  0.000  0.000  0.000  0.021
    5  0.034  0.000  0.000  0.001  0.000  0.000  0.000  0.000  0.000  0.034
    6  0.034  0.000  0.000  0.000  0.000  0.000  0.000  0.000  0.000  0.034
    7  0.034  0.000  0.000  0.000  0.000  0.000  0.000  0.000  0.000  0.034
    8  0.168  0.000  0.000  0.001  0.000  0.000  0.000  0.000  0.000  0.170
    9  0.168  0.001  0.000  0.000  0.000  0.000  0.000  0.000  0.000  0.170
   10  0.168  0.001  0.000  0.000  0.000  0.000  0.000  0.000  0.000  0.170
tot    0.674  0.003  0.015  0.003  0.000  0.000  0.001  0.000  0.000  0.696

band     3 # energy  -15.66568597 # occ.  1.00000000

ion      s     py     pz     px    dxy    dyz    dz2    dxz  x2-y2    tot
    1  0.000  0.002  0.000  0.001  0.001  0.002  0.000  0.001  0.001  0.008
    2  0.000  0.003  0.000  0.000  0.001  0.003  0.000  0.000  0.000  0.008
    3  0.000  0.000  0.000  0.000  0.000  0.000  0.000  0.000  0.000  0.000
    4  0.000  0.000  0.000  0.024  0.000  0.000  0.000  0.000  0.000  0.024
    5  0.466  0.000  0.001  0.003  0.000  0.000  0.000  0.000  0.000  0.471
    6  0.175  0.001  0.001  0.000  0.000  0.000  0.000  0.000  0.000  0.177
    7  0.070  0.000  0.000  0.000  0.000  0.000  0.000  0.000  0.000  0.070
    8  0.000  0.000  0.000  0.000  0.000  0.000  0.000  0.000  0.000  0.000
    9  0.000  0.000  0.000  0.000  0.000  0.000  0.000  0.000  0.000  0.000
   10  0.000  0.000  0.000  0.000  0.000  0.000  0.000  0.000  0.000  0.000
tot    0.711  0.007  0.002  0.029  0.002  0.005  0.000  0.001  0.001  0.760

band     4 # energy  -15.66564656 # occ.  1.00000000

ion      s     py     pz     px    dxy    dyz    dz2    dxz  x2-y2    tot
    1  0.000  0.001  0.000  0.002  0.001  0.001  0.000  0.002  0.001  0.008
    2  0.000  0.000  0.000  0.003  0.000  0.000  0.000  0.003  0.001  0.008
    3  0.000  0.000  0.000  0.000  0.000  0.000  0.000  0.000  0.000  0.000
    4  0.000  0.024  0.000  0.000  0.000  0.000  0.000  0.000  0.000  0.024
    5  0.008  0.000  0.000  0.000  0.000  0.000  0.000  0.000  0.000  0.008
    6  0.299  0.002  0.001  0.001  0.000  0.000  0.000  0.000  0.000  0.302
    7  0.405  0.002  0.001  0.001  0.000  0.000  0.000  0.000  0.000  0.409
    8  0.000  0.000  0.000  0.000  0.000  0.000  0.000  0.000  0.000  0.000
    9  0.000  0.000  0.000  0.000  0.000  0.000  0.000  0.000  0.000  0.000
   10  0.000  0.000  0.000  0.000  0.000  0.000  0.000  0.000  0.000  0.000
tot    0.711  0.029  0.002  0.007  0.001  0.001  0.000  0.005  0.002  0.760

band     5 # energy  -15.28249345 # occ.  1.00000000

ion      s     py     pz     px    dxy    dyz    dz2    dxz  x2-y2    tot
    1  0.000  0.004  0.000  0.000  0.001  0.003  0.000  0.000  0.000  0.009
    2  0.000  0.003  0.000  0.001  0.001  0.002  0.000  0.001  0.001  0.009
    3  0.000  0.000  0.000  0.017  0.000  0.000  0.000  0.000  0.000  0.017
    4  0.000  0.000  0.000  0.000  0.000  0.000  0.000  0.000  0.000  0.000
    5  0.000  0.000  0.000  0.000  0.000  0.000  0.000  0.000  0.000  0.000
    6  0.000  0.000  0.000  0.000  0.000  0.000  0.000  0.000  0.000  0.000
    7  0.000  0.000  0.000  0.000  0.000  0.000  0.000  0.000  0.000  0.000
    8  0.467  0.000  0.001  0.003  0.000  0.000  0.000  0.000  0.000  0.471
    9  0.196  0.001  0.001  0.000  0.000  0.000  0.000  0.000  0.000  0.198
   10  0.058  0.000  0.000  0.000  0.000  0.000  0.000  0.000  0.000  0.058
tot    0.722  0.008  0.002  0.022  0.002  0.005  0.000  0.001  0.001  0.763

band     6 # energy  -15.28245558 # occ.  1.00000000

ion      s     py     pz     px    dxy    dyz    dz2    dxz  x2-y2    tot
    1  0.000  0.000  0.000  0.004  0.000  0.000  0.000  0.003  0.001  0.009
    2  0.000  0.001  0.000  0.003  0.001  0.001  0.000  0.002  0.001  0.009
    3  0.000  0.017  0.000  0.000  0.000  0.000  0.000  0.000  0.000  0.017
    4  0.000  0.000  0.000  0.000  0.000  0.000  0.000  0.000  0.000  0.000
    5  0.000  0.000  0.000  0.000  0.000  0.000  0.000  0.000  0.000  0.000
    6  0.000  0.000  0.000  0.000  0.000  0.000  0.000  0.000  0.000  0.000
    7  0.000  0.000  0.000  0.000  0.000  0.000  0.000  0.000  0.000  0.000
    8  0.014  0.000  0.000  0.000  0.000  0.000  0.000  0.000  0.000  0.014
    9  0.284  0.001  0.001  0.000  0.000  0.000  0.000  0.000  0.000  0.287
   10  0.423  0.002  0.001  0.001  0.000  0.000  0.000  0.000  0.000  0.427
tot    0.722  0.022  0.002  0.008  0.001  0.001  0.000  0.005  0.002  0.763

band     7 # energy  -13.11384497 # occ.  1.00000000

ion      s     py     pz     px    dxy    dyz    dz2    dxz  x2-y2    tot
    1  0.012  0.000  0.001  0.000  0.000  0.000  0.000  0.000  0.000  0.013
    2  0.012  0.000  0.001  0.000  0.000  0.000  0.000  0.000  0.000  0.013
    3  0.044  0.000  0.011  0.000  0.000  0.000  0.000  0.000  0.000  0.055
    4  0.287  0.000  0.006  0.000  0.000  0.000  0.000  0.000  0.000  0.293
    5  0.060  0.000  0.000  0.019  0.000  0.000  0.000  0.000  0.001  0.082
    6  0.060  0.014  0.000  0.005  0.001  0.000  0.000  0.000  0.000  0.082
    7  0.060  0.014  0.000  0.005  0.001  0.000  0.000  0.000  0.000  0.082
    8  0.006  0.000  0.000  0.003  0.000  0.000  0.000  0.000  0.000  0.009
    9  0.006  0.002  0.000  0.001  0.000  0.000  0.000  0.000  0.000  0.009
   10  0.006  0.002  0.000  0.001  0.000  0.000  0.000  0.000  0.000  0.009
tot    0.553  0.033  0.020  0.033  0.002  0.001  0.001  0.001  0.002  0.646

band     8 # energy   -9.94101875 # occ.  1.00000000

ion      s     py     pz     px    dxy    dyz    dz2    dxz  x2-y2    tot
    1  0.000  0.000  0.006  0.000  0.000  0.000  0.001  0.000  0.000  0.007
    2  0.000  0.000  0.006  0.000  0.000  0.000  0.001  0.000  0.000  0.007
    3  0.239  0.000  0.000  0.000  0.000  0.000  0.000  0.000  0.000  0.239
    4  0.049  0.000  0.042  0.000  0.000  0.000  0.000  0.000  0.000  0.091
    5  0.004  0.000  0.000  0.013  0.000  0.000  0.000  0.000  0.001  0.019
    6  0.004  0.010  0.000  0.003  0.001  0.000  0.000  0.000  0.000  0.019
    7  0.004  0.010  0.000  0.003  0.001  0.000  0.000  0.000  0.000  0.019
    8  0.022  0.000  0.001  0.041  0.000  0.000  0.000  0.000  0.002  0.066
    9  0.021  0.030  0.001  0.010  0.002  0.000  0.000  0.000  0.001  0.066
   10  0.021  0.031  0.001  0.010  0.002  0.000  0.000  0.000  0.001  0.066
tot    0.367  0.080  0.059  0.080  0.004  0.000  0.002  0.000  0.004  0.599

band     9 # energy   -8.46058831 # occ.  1.00000000

ion      s     py     pz     px    dxy    dyz    dz2    dxz  x2-y2    tot
    1  0.000  0.005  0.000  0.000  0.002  0.015  0.000  0.005  0.000  0.028
    2  0.000  0.000  0.000  0.005  0.000  0.010  0.000  0.018  0.002  0.034
    3  0.000  0.004  0.000  0.005  0.000  0.000  0.000  0.000  0.000  0.009
    4  0.000  0.055  0.000  0.067  0.000  0.000  0.000  0.000  0.000  0.122
    5  0.009  0.016  0.001  0.078  0.001  0.000  0.000  0.001  0.000  0.105
    6  0.015  0.116  0.001  0.016  0.000  0.001  0.000  0.000  0.000  0.150
    7  0.001  0.001  0.000  0.040  0.000  0.000  0.000  0.000  0.001  0.042
    8  0.003  0.002  0.003  0.005  0.000  0.000  0.000  0.000  0.000  0.012
    9  0.005  0.007  0.005  0.001  0.000  0.000  0.000  0.000  0.000  0.019
   10  0.000  0.000  0.000  0.003  0.000  0.000  0.000  0.000  0.000  0.004
tot    0.034  0.204  0.010  0.220  0.003  0.026  0.001  0.024  0.003  0.526

band    10 # energy   -8.46056729 # occ.  1.00000000

ion      s     py     pz     px    dxy    dyz    dz2    dxz  x2-y2    tot
    1  0.000  0.000  0.000  0.005  0.000  0.005  0.000  0.015  0.002  0.028
    2  0.000  0.005  0.000  0.000  0.002  0.018  0.000  0.010  0.000  0.034
    3  0.000  0.005  0.000  0.004  0.000  0.000  0.000  0.000  0.000  0.009
    4  0.000  0.067  0.000  0.055  0.000  0.000  0.000  0.000  0.000  0.122
    5  0.007  0.020  0.001  0.064  0.001  0.000  0.000  0.000  0.000  0.093
    6  0.002  0.000  0.000  0.045  0.000  0.000  0.000  0.000  0.001  0.049
    7  0.016  0.114  0.001  0.023  0.000  0.001  0.000  0.000  0.000  0.156
    8  0.003  0.002  0.003  0.004  0.000  0.000  0.000  0.000  0.000  0.011
    9  0.001  0.000  0.000  0.004  0.000  0.000  0.000  0.000  0.000  0.005
   10  0.005  0.007  0.005  0.001  0.000  0.000  0.000  0.000  0.000  0.019
tot    0.034  0.220  0.010  0.204  0.003  0.024  0.001  0.026  0.003  0.526

band    11 # energy   -8.21760757 # occ.  1.00000000

ion      s     py     pz     px    dxy    dyz    dz2    dxz  x2-y2    tot
    1  0.041  0.000  0.000  0.000  0.000  0.000  0.006  0.000  0.000  0.047
    2  0.046  0.000  0.000  0.000  0.000  0.000  0.006  0.000  0.000  0.053
    3  0.012  0.000  0.047  0.000  0.000  0.000  0.000  0.000  0.000  0.059
    4  0.000  0.000  0.065  0.000  0.000  0.000  0.000  0.000  0.000  0.065
    5  0.003  0.000  0.035  0.006  0.000  0.000  0.000  0.000  0.000  0.045
    6  0.003  0.005  0.035  0.001  0.000  0.000  0.000  0.000  0.000  0.045
    7  0.003  0.004  0.035  0.002  0.000  0.000  0.000  0.000  0.000  0.045
    8  0.001  0.000  0.027  0.017  0.000  0.000  0.001  0.000  0.001  0.047
    9  0.001  0.012  0.027  0.005  0.000  0.000  0.001  0.000  0.000  0.047
   10  0.001  0.014  0.027  0.004  0.001  0.000  0.001  0.000  0.000  0.047
tot    0.113  0.035  0.298  0.035  0.001  0.000  0.016  0.000  0.001  0.498

band    12 # energy   -7.76774471 # occ.  1.00000000

ion      s     py     pz     px    dxy    dyz    dz2    dxz  x2-y2    tot
    1  0.089  0.000  0.000  0.000  0.000  0.000  0.016  0.000  0.000  0.105
    2  0.084  0.000  0.000  0.000  0.000  0.000  0.020  0.000  0.000  0.105
    3  0.000  0.000  0.000  0.000  0.000  0.000  0.000  0.000  0.000  0.000
    4  0.000  0.000  0.000  0.000  0.000  0.000  0.000  0.000  0.000  0.000
    5  0.000  0.068  0.000  0.000  0.001  0.001  0.000  0.000  0.000  0.069
    6  0.000  0.016  0.000  0.051  0.000  0.000  0.000  0.000  0.000  0.069
    7  0.000  0.017  0.000  0.050  0.000  0.000  0.000  0.000  0.000  0.069
    8  0.000  0.048  0.000  0.000  0.000  0.001  0.000  0.000  0.000  0.049
    9  0.000  0.013  0.000  0.035  0.000  0.000  0.000  0.000  0.000  0.049
   10  0.000  0.011  0.000  0.037  0.000  0.000  0.000  0.000  0.000  0.049
tot    0.173  0.173  0.001  0.173  0.001  0.002  0.037  0.002  0.001  0.563

band    13 # energy   -7.60110651 # occ.  1.00000000

ion      s     py     pz     px    dxy    dyz    dz2    dxz  x2-y2    tot
    1  0.000  0.007  0.000  0.007  0.000  0.001  0.000  0.013  0.007  0.037
    2  0.000  0.014  0.000  0.001  0.004  0.020  0.000  0.001  0.004  0.043
    3  0.000  0.016  0.000  0.052  0.000  0.000  0.000  0.000  0.000  0.069
    4  0.000  0.001  0.000  0.005  0.000  0.000  0.000  0.000  0.000  0.007
    5  0.000  0.001  0.009  0.014  0.000  0.000  0.000  0.000  0.000  0.024
    6  0.000  0.013  0.008  0.001  0.000  0.000  0.000  0.000  0.000  0.023
    7  0.000  0.001  0.000  0.003  0.000  0.000  0.000  0.000  0.000  0.004
    8  0.003  0.011  0.001  0.116  0.000  0.000  0.000  0.001  0.000  0.133
    9  0.003  0.118  0.001  0.005  0.000  0.001  0.000  0.000  0.000  0.129
   10  0.000  0.013  0.000  0.034  0.000  0.000  0.000  0.000  0.001  0.048
tot    0.006  0.197  0.019  0.238  0.005  0.022  0.002  0.015  0.013  0.516

band    14 # energy   -7.60108351 # occ.  1.00000000

ion      s     py     pz     px    dxy    dyz    dz2    dxz  x2-y2    tot
    1  0.000  0.007  0.000  0.007  0.007  0.013  0.000  0.001  0.000  0.037
    2  0.000  0.001  0.000  0.014  0.004  0.001  0.000  0.020  0.004  0.043
    3  0.000  0.052  0.000  0.016  0.000  0.000  0.000  0.000  0.000  0.069
    4  0.000  0.005  0.000  0.001  0.000  0.000  0.000  0.000  0.000  0.007
    5  0.000  0.003  0.003  0.004  0.000  0.000  0.000  0.000  0.000  0.010
    6  0.000  0.001  0.003  0.007  0.000  0.000  0.000  0.000  0.000  0.011
    7  0.000  0.013  0.011  0.004  0.000  0.000  0.001  0.000  0.000  0.030
    8  0.001  0.035  0.000  0.036  0.001  0.000  0.000  0.000  0.000  0.074
    9  0.001  0.006  0.000  0.069  0.000  0.000  0.000  0.000  0.001  0.078
   10  0.004  0.114  0.001  0.038  0.000  0.001  0.001  0.000  0.000  0.158
tot    0.006  0.238  0.019  0.197  0.013  0.015  0.002  0.022  0.005  0.516

band    15 # energy   -6.36082391 # occ.  1.00000000

ion      s     py     pz     px    dxy    dyz    dz2    dxz  x2-y2    tot
    1  0.001  0.000  0.040  0.000  0.000  0.000  0.000  0.000  0.000  0.041
    2  0.001  0.000  0.041  0.000  0.000  0.000  0.000  0.000  0.000  0.042
    3  0.000  0.000  0.000  0.000  0.000  0.000  0.000  0.000  0.000  0.000
    4  0.000  0.000  0.000  0.000  0.000  0.000  0.000  0.000  0.000  0.000
    5  0.000  0.065  0.000  0.000  0.000  0.000  0.000  0.000  0.000  0.065
    6  0.000  0.016  0.000  0.049  0.000  0.000  0.000  0.000  0.000  0.065
    7  0.000  0.016  0.000  0.049  0.000  0.000  0.000  0.000  0.000  0.065
    8  0.000  0.083  0.000  0.000  0.000  0.000  0.000  0.000  0.000  0.084
    9  0.000  0.021  0.000  0.062  0.000  0.000  0.000  0.000  0.000  0.084
   10  0.000  0.021  0.000  0.062  0.000  0.000  0.000  0.000  0.000  0.084
tot    0.001  0.222  0.082  0.222  0.001  0.000  0.000  0.000  0.001  0.530

band    16 # energy   -5.81825191 # occ.  1.00000000

ion      s     py     pz     px    dxy    dyz    dz2    dxz  x2-y2    tot
    1  0.000  0.001  0.000  0.000  0.000  0.000  0.000  0.015  0.012  0.029
    2  0.000  0.000  0.000  0.000  0.000  0.000  0.000  0.310  0.260  0.570
    3  0.000  0.000  0.000  0.000  0.000  0.000  0.000  0.000  0.000  0.000
    4  0.000  0.001  0.000  0.000  0.000  0.000  0.000  0.000  0.000  0.001
    5  0.001  0.001  0.021  0.004  0.000  0.000  0.000  0.000  0.000  0.028
    6  0.001  0.002  0.005  0.015  0.000  0.000  0.000  0.000  0.000  0.023
    7  0.003  0.002  0.046  0.025  0.000  0.000  0.000  0.001  0.000  0.077
    8  0.001  0.001  0.012  0.003  0.000  0.000  0.000  0.000  0.000  0.016
    9  0.002  0.002  0.027  0.022  0.000  0.000  0.000  0.001  0.000  0.053
   10  0.001  0.002  0.003  0.012  0.000  0.000  0.000  0.001  0.000  0.019
tot    0.008  0.012  0.114  0.082  0.001  0.001  0.000  0.327  0.273  0.817

band    17 # energy   -5.81824446 # occ.  1.00000000

ion      s     py     pz     px    dxy    dyz    dz2    dxz  x2-y2    tot
    1  0.000  0.000  0.000  0.001  0.012  0.015  0.000  0.000  0.000  0.029
    2  0.000  0.000  0.000  0.000  0.260  0.310  0.000  0.000  0.000  0.570
    3  0.000  0.000  0.000  0.000  0.000  0.000  0.000  0.000  0.000  0.000
    4  0.000  0.000  0.000  0.001  0.000  0.000  0.000  0.000  0.000  0.001
    5  0.002  0.028  0.027  0.000  0.000  0.001  0.000  0.000  0.000  0.058
    6  0.002  0.012  0.043  0.004  0.000  0.000  0.000  0.000  0.000  0.062
    7  0.000  0.005  0.002  0.001  0.000  0.000  0.000  0.000  0.000  0.008
    8  0.002  0.024  0.016  0.000  0.000  0.001  0.000  0.000  0.000  0.043
    9  0.000  0.003  0.001  0.001  0.000  0.000  0.000  0.000  0.000  0.006
   10  0.002  0.009  0.025  0.004  0.000  0.000  0.000  0.000  0.000  0.040
tot    0.008  0.082  0.114  0.012  0.273  0.327  0.000  0.001  0.001  0.817

band    18 # energy   -5.34740136 # occ.  1.00000000

ion      s     py     pz     px    dxy    dyz    dz2    dxz  x2-y2    tot
    1  0.005  0.000  0.000  0.000  0.000  0.000  0.108  0.000  0.000  0.113
    2  0.007  0.000  0.000  0.000  0.000  0.000  0.191  0.000  0.000  0.198
    3  0.000  0.000  0.041  0.000  0.000  0.000  0.000  0.000  0.000  0.041
    4  0.005  0.000  0.109  0.000  0.000  0.000  0.000  0.000  0.000  0.114
    5  0.000  0.000  0.006  0.012  0.000  0.000  0.000  0.001  0.000  0.019
    6  0.000  0.009  0.006  0.003  0.000  0.001  0.000  0.000  0.000  0.019
    7  0.000  0.009  0.006  0.003  0.000  0.001  0.000  0.000  0.000  0.019
    8  0.000  0.000  0.027  0.012  0.000  0.000  0.000  0.000  0.000  0.040
    9  0.000  0.009  0.027  0.003  0.000  0.000  0.000  0.000  0.000  0.040
   10  0.000  0.008  0.027  0.003  0.000  0.000  0.000  0.000  0.000  0.040
tot    0.018  0.036  0.249  0.036  0.001  0.001  0.300  0.001  0.001  0.644

band    19 # energy   -5.34363640 # occ.  1.00000000

ion      s     py     pz     px    dxy    dyz    dz2    dxz  x2-y2    tot
    1  0.000  0.000  0.000  0.000  0.157  0.172  0.000  0.045  0.051  0.426
    2  0.000  0.001  0.000  0.001  0.000  0.004  0.000  0.008  0.003  0.017
    3  0.000  0.000  0.000  0.000  0.000  0.000  0.000  0.000  0.000  0.000
    4  0.000  0.000  0.000  0.001  0.000  0.000  0.000  0.000  0.000  0.002
    5  0.004  0.021  0.088  0.002  0.000  0.000  0.000  0.000  0.000  0.115
    6  0.002  0.001  0.033  0.004  0.000  0.000  0.000  0.000  0.000  0.040
    7  0.000  0.005  0.013  0.002  0.000  0.000  0.000  0.000  0.000  0.021
    8  0.001  0.006  0.015  0.002  0.000  0.000  0.000  0.000  0.000  0.024
    9  0.003  0.013  0.061  0.004  0.000  0.000  0.000  0.000  0.000  0.082
   10  0.001  0.000  0.016  0.002  0.000  0.000  0.000  0.000  0.000  0.018
tot    0.010  0.048  0.226  0.018  0.157  0.177  0.000  0.054  0.054  0.745

band    20 # energy   -5.34363371 # occ.  1.00000000

ion      s     py     pz     px    dxy    dyz    dz2    dxz  x2-y2    tot
    1  0.000  0.000  0.000  0.000  0.051  0.045  0.000  0.172  0.157  0.426
    2  0.000  0.001  0.000  0.001  0.003  0.008  0.000  0.004  0.000  0.017
    3  0.000  0.000  0.000  0.000  0.000  0.000  0.000  0.000  0.000  0.000
    4  0.000  0.001  0.000  0.000  0.000  0.000  0.000  0.000  0.000  0.002
    5  0.000  0.000  0.001  0.000  0.000  0.000  0.000  0.000  0.000  0.002
    6  0.002  0.001  0.056  0.018  0.000  0.000  0.000  0.000  0.000  0.077
    7  0.004  0.007  0.076  0.009  0.000  0.000  0.000  0.000  0.000  0.096
    8  0.002  0.007  0.046  0.003  0.000  0.000  0.000  0.000  0.000  0.059
    9  0.000  0.000  0.000  0.000  0.000  0.000  0.000  0.000  0.000  0.001
   10  0.002  0.000  0.046  0.016  0.000  0.000  0.000  0.000  0.000  0.065
tot    0.010  0.018  0.226  0.048  0.054  0.054  0.000  0.177  0.157  0.745

band    21 # energy   -4.72329241 # occ.  1.00000000

ion      s     py     pz     px    dxy    dyz    dz2    dxz  x2-y2    tot
    1  0.000  0.012  0.000  0.000  0.015  0.004  0.000  0.046  0.000  0.077
    2  0.000  0.009  0.000  0.003  0.016  0.000  0.000  0.077  0.035  0.140
    3  0.000  0.000  0.000  0.010  0.000  0.000  0.000  0.000  0.000  0.010
    4  0.000  0.002  0.000  0.026  0.000  0.000  0.000  0.000  0.000  0.028
    5  0.006  0.000  0.070  0.024  0.000  0.000  0.000  0.000  0.002  0.103
    6  0.003  0.002  0.030  0.026  0.001  0.000  0.000  0.000  0.000  0.062
    7  0.000  0.001  0.009  0.020  0.000  0.000  0.000  0.000  0.000  0.031
    8  0.005  0.000  0.099  0.018  0.000  0.000  0.000  0.000  0.000  0.123
    9  0.002  0.002  0.065  0.005  0.000  0.000  0.000  0.000  0.000  0.075
   10  0.000  0.000  0.004  0.007  0.000  0.000  0.000  0.000  0.000  0.012
tot    0.017  0.029  0.276  0.141  0.032  0.004  0.000  0.125  0.039  0.662

band    22 # energy   -4.72327588 # occ.  1.00000000

ion      s     py     pz     px    dxy    dyz    dz2    dxz  x2-y2    tot
    1  0.000  0.000  0.000  0.012  0.000  0.046  0.000  0.004  0.015  0.077
    2  0.000  0.003  0.000  0.009  0.035  0.077  0.000  0.000  0.016  0.140
    3  0.000  0.010  0.000  0.000  0.000  0.000  0.000  0.000  0.000  0.010
    4  0.000  0.026  0.000  0.002  0.000  0.000  0.000  0.000  0.000  0.028
    5  0.000  0.023  0.002  0.002  0.000  0.001  0.000  0.000  0.000  0.028
    6  0.003  0.021  0.043  0.001  0.001  0.000  0.000  0.000  0.000  0.069
    7  0.006  0.027  0.064  0.001  0.002  0.000  0.000  0.000  0.000  0.100
    8  0.000  0.004  0.013  0.000  0.000  0.000  0.000  0.000  0.000  0.017
    9  0.003  0.015  0.047  0.000  0.000  0.000  0.000  0.000  0.000  0.065
   10  0.005  0.012  0.108  0.003  0.000  0.000  0.000  0.000  0.000  0.128
tot    0.017  0.141  0.276  0.029  0.039  0.125  0.000  0.004  0.032  0.662

band    23 # energy   -4.69529306 # occ.  1.00000000

ion      s     py     pz     px    dxy    dyz    dz2    dxz  x2-y2    tot
    1  0.000  0.000  0.011  0.000  0.000  0.000  0.004  0.000  0.000  0.015
    2  0.000  0.000  0.010  0.000  0.000  0.000  0.015  0.000  0.000  0.025
    3  0.004  0.000  0.020  0.000  0.000  0.000  0.000  0.000  0.000  0.023
    4  0.001  0.000  0.001  0.000  0.000  0.000  0.000  0.000  0.000  0.002
    5  0.000  0.000  0.078  0.000  0.000  0.000  0.000  0.000  0.000  0.078
    6  0.000  0.000  0.078  0.000  0.000  0.000  0.000  0.000  0.000  0.078
    7  0.000  0.000  0.078  0.000  0.000  0.000  0.000  0.000  0.000  0.078
    8  0.000  0.000  0.069  0.001  0.000  0.000  0.000  0.000  0.000  0.070
    9  0.000  0.001  0.069  0.000  0.000  0.000  0.000  0.000  0.000  0.070
   10  0.000  0.000  0.069  0.000  0.000  0.000  0.000  0.000  0.000  0.070
tot    0.006  0.002  0.481  0.002  0.000  0.000  0.019  0.000  0.000  0.510

band    24 # energy   -4.35619417 # occ.  1.00000000

ion      s     py     pz     px    dxy    dyz    dz2    dxz  x2-y2    tot
    1  0.000  0.001  0.000  0.004  0.006  0.004  0.000  0.004  0.004  0.022
    2  0.000  0.001  0.000  0.004  0.274  0.145  0.000  0.144  0.177  0.745
    3  0.000  0.002  0.000  0.004  0.000  0.000  0.000  0.000  0.000  0.006
    4  0.000  0.001  0.000  0.000  0.000  0.000  0.000  0.000  0.000  0.002
    5  0.000  0.003  0.003  0.000  0.000  0.000  0.000  0.000  0.000  0.008
    6  0.000  0.000  0.019  0.000  0.000  0.000  0.000  0.000  0.000  0.020
    7  0.000  0.001  0.006  0.003  0.000  0.000  0.000  0.000  0.000  0.011
    8  0.000  0.004  0.000  0.003  0.000  0.000  0.000  0.000  0.000  0.008
    9  0.001  0.001  0.020  0.000  0.000  0.000  0.000  0.000  0.000  0.022
   10  0.002  0.010  0.017  0.000  0.000  0.000  0.000  0.000  0.001  0.029
tot    0.004  0.023  0.066  0.019  0.281  0.150  0.000  0.149  0.182  0.872

band    25 # energy   -4.35618488 # occ.  1.00000000

ion      s     py     pz     px    dxy    dyz    dz2    dxz  x2-y2    tot
    1  0.000  0.004  0.000  0.001  0.004  0.004  0.000  0.004  0.006  0.022
    2  0.000  0.004  0.000  0.001  0.177  0.144  0.000  0.145  0.274  0.745
    3  0.000  0.004  0.000  0.002  0.000  0.000  0.000  0.000  0.000  0.006
    4  0.000  0.000  0.000  0.001  0.000  0.000  0.000  0.000  0.000  0.002
    5  0.000  0.001  0.016  0.000  0.000  0.000  0.000  0.000  0.000  0.018
    6  0.000  0.002  0.000  0.002  0.000  0.000  0.000  0.000  0.001  0.006
    7  0.000  0.000  0.013  0.001  0.000  0.000  0.000  0.000  0.000  0.015
    8  0.002  0.000  0.024  0.005  0.000  0.000  0.000  0.000  0.000  0.032
    9  0.001  0.002  0.004  0.009  0.001  0.000  0.000  0.000  0.000  0.017
   10  0.000  0.001  0.008  0.001  0.000  0.000  0.000  0.000  0.000  0.011
tot    0.004  0.019  0.066  0.023  0.182  0.149  0.000  0.150  0.281  0.872

band    26 # energy   -4.19590474 # occ.  1.00000000

ion      s     py     pz     px    dxy    dyz    dz2    dxz  x2-y2    tot
    1  0.022  0.000  0.000  0.000  0.000  0.000  0.138  0.000  0.000  0.159
    2  0.001  0.000  0.000  0.000  0.000  0.000  0.666  0.000  0.000  0.667
    3  0.000  0.000  0.008  0.000  0.000  0.000  0.000  0.000  0.000  0.008
    4  0.000  0.000  0.014  0.000  0.000  0.000  0.000  0.000  0.000  0.014
    5  0.000  0.002  0.007  0.001  0.000  0.000  0.000  0.000  0.000  0.010
    6  0.000  0.002  0.007  0.000  0.000  0.000  0.000  0.000  0.000  0.010
    7  0.000  0.000  0.007  0.002  0.000  0.000  0.000  0.000  0.000  0.010
    8  0.000  0.002  0.003  0.001  0.000  0.000  0.000  0.000  0.000  0.007
    9  0.000  0.000  0.003  0.003  0.000  0.000  0.000  0.000  0.000  0.007
   10  0.000  0.003  0.003  0.000  0.000  0.000  0.000  0.000  0.000  0.007
tot    0.025  0.008  0.050  0.008  0.000  0.001  0.804  0.001  0.000  0.897

band    27 # energy   -4.00404100 # occ.  1.00000000

ion      s     py     pz     px    dxy    dyz    dz2    dxz  x2-y2    tot
    1  0.000  0.001  0.000  0.001  0.341  0.248  0.000  0.071  0.148  0.809
    2  0.000  0.000  0.000  0.000  0.009  0.000  0.000  0.005  0.009  0.023
    3  0.000  0.005  0.000  0.005  0.000  0.000  0.000  0.000  0.000  0.011
    4  0.000  0.000  0.000  0.007  0.000  0.000  0.000  0.000  0.000  0.007
    5  0.001  0.001  0.001  0.001  0.000  0.000  0.000  0.000  0.001  0.005
    6  0.000  0.000  0.003  0.001  0.000  0.000  0.000  0.000  0.000  0.004
    7  0.001  0.001  0.001  0.000  0.000  0.000  0.000  0.000  0.000  0.003
    8  0.002  0.000  0.011  0.008  0.000  0.000  0.000  0.000  0.000  0.020
    9  0.000  0.001  0.002  0.001  0.000  0.000  0.000  0.000  0.000  0.005
   10  0.001  0.003  0.003  0.010  0.001  0.000  0.000  0.000  0.000  0.019
tot    0.004  0.014  0.020  0.033  0.352  0.248  0.001  0.076  0.158  0.907

band    28 # energy   -4.00403403 # occ.  1.00000000

ion      s     py     pz     px    dxy    dyz    dz2    dxz  x2-y2    tot
    1  0.000  0.001  0.000  0.001  0.148  0.071  0.000  0.248  0.341  0.809
    2  0.000  0.000  0.000  0.000  0.009  0.005  0.000  0.000  0.009  0.023
    3  0.000  0.005  0.000  0.005  0.000  0.000  0.000  0.000  0.000  0.011
    4  0.000  0.007  0.000  0.000  0.000  0.000  0.000  0.000  0.000  0.007
    5  0.000  0.000  0.002  0.000  0.000  0.000  0.000  0.000  0.000  0.003
    6  0.001  0.000  0.000  0.001  0.001  0.000  0.000  0.000  0.000  0.004
    7  0.000  0.001  0.002  0.001  0.000  0.000  0.000  0.000  0.001  0.005
    8  0.000  0.004  0.000  0.004  0.000  0.000  0.000  0.000  0.001  0.009
    9  0.002  0.012  0.008  0.000  0.000  0.000  0.000  0.000  0.001  0.024
   10  0.001  0.002  0.008  0.000  0.000  0.000  0.000  0.000  0.000  0.011
tot    0.004  0.033  0.020  0.014  0.158  0.076  0.001  0.248  0.352  0.907

band    29 # energy   -3.84821524 # occ.  1.00000000

ion      s     py     pz     px    dxy    dyz    dz2    dxz  x2-y2    tot
    1  0.003  0.000  0.000  0.000  0.000  0.000  0.653  0.000  0.000  0.656
    2  0.021  0.000  0.000  0.000  0.000  0.000  0.033  0.000  0.000  0.054
    3  0.001  0.000  0.016  0.000  0.000  0.000  0.000  0.000  0.000  0.017
    4  0.000  0.000  0.031  0.000  0.000  0.000  0.000  0.000  0.000  0.032
    5  0.002  0.000  0.013  0.000  0.000  0.000  0.001  0.000  0.000  0.016
    6  0.002  0.000  0.013  0.001  0.000  0.000  0.001  0.000  0.000  0.016
    7  0.002  0.001  0.013  0.000  0.000  0.000  0.001  0.000  0.000  0.016
    8  0.001  0.000  0.008  0.002  0.000  0.000  0.001  0.000  0.000  0.013
    9  0.001  0.003  0.008  0.000  0.000  0.000  0.001  0.000  0.000  0.013
   10  0.001  0.001  0.008  0.002  0.000  0.000  0.001  0.000  0.000  0.013
tot    0.035  0.005  0.112  0.005  0.000  0.001  0.689  0.001  0.000  0.848

band    30 # energy   -3.37608022 # occ.  1.00000000

ion      s     py     pz     px    dxy    dyz    dz2    dxz  x2-y2    tot
    1  0.000  0.002  0.000  0.019  0.038  0.000  0.000  0.003  0.002  0.063
    2  0.000  0.001  0.000  0.019  0.024  0.000  0.000  0.005  0.007  0.057
    3  0.000  0.001  0.000  0.008  0.000  0.000  0.000  0.000  0.000  0.008
    4  0.000  0.001  0.000  0.008  0.000  0.000  0.000  0.000  0.000  0.008
    5  0.002  0.007  0.019  0.035  0.000  0.000  0.000  0.000  0.001  0.065
    6  0.000  0.018  0.001  0.105  0.000  0.000  0.000  0.000  0.000  0.124
    7  0.001  0.000  0.012  0.088  0.001  0.000  0.000  0.000  0.000  0.103
    8  0.002  0.011  0.006  0.046  0.000  0.000  0.000  0.000  0.001  0.067
    9  0.000  0.015  0.000  0.089  0.000  0.000  0.000  0.001  0.000  0.105
   10  0.001  0.002  0.006  0.074  0.000  0.000  0.000  0.000  0.000  0.084
tot    0.006  0.058  0.044  0.492  0.063  0.001  0.001  0.009  0.012  0.685

band    31 # energy   -3.37605364 # occ.  1.00000000

ion      s     py     pz     px    dxy    dyz    dz2    dxz  x2-y2    tot
    1  0.000  0.019  0.000  0.002  0.002  0.003  0.000  0.000  0.038  0.063
    2  0.000  0.019  0.000  0.001  0.007  0.005  0.000  0.000  0.024  0.057
    3  0.000  0.008  0.000  0.001  0.000  0.000  0.000  0.000  0.000  0.008
    4  0.000  0.008  0.000  0.001  0.000  0.000  0.000  0.000  0.000  0.008
    5  0.000  0.124  0.002  0.003  0.000  0.000  0.000  0.000  0.000  0.129
    6  0.002  0.046  0.020  0.000  0.001  0.000  0.000  0.000  0.000  0.070
    7  0.001  0.058  0.009  0.022  0.000  0.000  0.000  0.000  0.000  0.092
    8  0.000  0.096  0.002  0.006  0.000  0.001  0.000  0.000  0.000  0.104
    9  0.002  0.051  0.008  0.003  0.001  0.000  0.000  0.000  0.000  0.066