<?xml version="1.0" encoding="ISO-8859-1"?>
<modeling>
 <generator>
  <i name="program" type="string">vasp </i>
  <i name="version" type="string">5.4.4.18Apr17-6-g9f103f2a35  </i>
  <i name="subversion" type="string">(build May  1 2020 15:48:39) complex            parallel </i>
  <i name="platform" type="string">LinuxGNU </i>
  <i name="date" type="string">2020 06 20 </i>
  <i name="time" type="string">10:52:00 </i>
 </generator>
 <incar>
  <i type="int" name="ISTART">     1</i>
  <i type="string" name="PREC">accurate</i>
  <i type="string" name="ALGO"> Normal</i>
  <i type="int" name="ISPIN">     2</i>
  <i name="AMIN">      0.01000000</i>
  <i type="int" name="NELM">   400</i>
  <i type="int" name="IBRION">     2</i>
  <i name="EDIFF">      0.00010000</i>
  <i type="int" name="NSW">    99</i>
  <i type="int" name="ISIF">     3</i>
  <i name="ENCUT">    520.00000000</i>
  <v name="MAGMOM">      1.26000000      1.26000000      0.60000000      0.60000000      0.60000000      0.60000000      0.60000000      0.60000000      0.60000000      0.60000000</v>
  <i type="string" name="LREAL"> Auto</i>
  <i type="int" name="ISMEAR">    -5</i>
  <i name="SIGMA">      0.05000000</i>
  <i type="logical" name="LWAVE"> F  </i>
  <i type="int" name="LORBIT">    11</i>
  <v type="int" name="KPOINT_BSE">    -1     0     0     0</v>
  <i type="int" name="NELM">   400</i>
  <i type="string" name="GGA"> Bo</i>
  <i name="PARAM1">      0.18333333</i>
  <i name="PARAM2">      0.22000000</i>
  <i type="logical" name="LUSE_VDW"> T  </i>
  <i name="AGGAC">      0.00000000</i>
 </incar>
 <structure name="primitive_cell" >
  <crystal>
   <varray name="basis" >
    <v>       6.90777700      -0.00000000       0.00000000 </v>
    <v>       3.45388800       5.98231000       0.00000000 </v>
    <v>       0.00000000       0.00000000      23.44458800 </v>
   </varray>
   <i name="volume">    968.83501932 </i>
   <varray name="rec_basis" >
    <v>       0.14476437      -0.08357974       0.00000000 </v>
    <v>       0.00000000       0.16715951      -0.00000000 </v>
    <v>      -0.00000000       0.00000000       0.04265377 </v>
   </varray>
  </crystal>
  <varray name="positions" >
   <v>       0.33333300       0.33333300       0.49992500 </v>
   <v>       0.00042000       0.37322400      -0.42624800 </v>
   <v>      -0.37364300       0.00042000      -0.42624800 </v>
   <v>       0.37322400      -0.37364300      -0.42624800 </v>
   <v>       0.37364300      -0.00042000       0.42624800 </v>
   <v>      -0.37322400       0.37364300       0.42624800 </v>
   <v>      -0.00042000      -0.37322400       0.42624800 </v>
   <v>      -0.33333300      -0.33333300      -0.49992500 </v>
   <v>       0.00000000       0.00000000       0.44821600 </v>
   <v>       0.00000000       0.00000000      -0.44821600 </v>
  </varray>
 </structure>
 <varray name="primitive_index" >
  <v type="int" >        1 </v>
  <v type="int" >        6 </v>
  <v type="int" >        5 </v>
  <v type="int" >        7 </v>
  <v type="int" >        8 </v>
  <v type="int" >       10 </v>
  <v type="int" >        9 </v>
  <v type="int" >        2 </v>
  <v type="int" >        3 </v>
  <v type="int" >        4 </v>
 </varray>
 <kpoints>
  <generation param="Gamma">
   <v type="int" name="divisions">       5        5        1 </v>
   <v name="usershift">      0.00000000       0.00000000       0.00000000 </v>
   <v name="genvec1">      0.20000000       0.00000000       0.00000000 </v>
   <v name="genvec2">      0.00000000       0.20000000       0.00000000 </v>
   <v name="genvec3">      0.00000000       0.00000000       1.00000000 </v>
   <v name="shift">      0.00000000       0.00000000       0.00000000 </v>
  </generation>
  <varray name="kpointlist" >
   <v>       0.00000000       0.00000000       0.00000000 </v>
   <v>       0.20000000       0.00000000       0.00000000 </v>
   <v>       0.40000000       0.00000000       0.00000000 </v>
   <v>       0.40000000       0.20000000       0.00000000 </v>
   <v>      -0.40000000       0.20000000       0.00000000 </v>
  </varray>
  <varray name="weights" >
   <v>       0.04000000 </v>
   <v>       0.24000000 </v>
   <v>       0.24000000 </v>
   <v>       0.24000000 </v>
   <v>       0.24000000 </v>
  </varray>
  <varray name="tetrahedronlist"  type="int" >
   <v type="int" >        6        1        1        2        2 </v>
   <v type="int" >       12        1        2        2        2 </v>
   <v type="int" >       12        2        2        3        4 </v>
   <v type="int" >       12        2        2        2        4 </v>
   <v type="int" >       12        2        3        3        4 </v>
   <v type="int" >       12        2        3        4        4 </v>
   <v type="int" >        6        2        2        4        4 </v>
   <v type="int" >       12        3        3        3        5 </v>
   <v type="int" >       12        3        3        4        5 </v>
   <v type="int" >       12        3        4        4        5 </v>
   <v type="int" >        6        3        3        5        5 </v>
   <v type="int" >       12        3        4        5        5 </v>
   <v type="int" >        6        4        4        5        5 </v>
   <v type="int" >       12        4        5        5        5 </v>
   <v type="int" >        6        5        5        5        5 </v>
  </varray>
  <i name="volumeweight">      0.00666667 </i>
 </kpoints>
 <parameters>
  <separator name="general" >
   <i type="string" name="SYSTEM">unknown system</i>
   <i type="logical" name="LCOMPAT"> F  </i>
  </separator>
  <separator name="electronic" >
   <i type="string" name="PREC">accura</i>
   <i name="ENMAX">    520.00000000</i>
   <i name="ENAUG">    544.56500000</i>
   <i name="EDIFF">      0.00010000</i>
   <i type="int" name="IALGO">    38</i>
   <i type="int" name="IWAVPR">    11</i>
   <i type="int" name="NBANDS">    48</i>
   <i name="NELECT">     65.00000000</i>
   <i type="int" name="TURBO">     0</i>
   <i type="int" name="IRESTART">     0</i>
   <i type="int" name="NREBOOT">     0</i>
   <i type="int" name="NMIN">     0</i>
   <i name="EREF">      0.00000000</i>
   <separator name="electronic smearing" >
    <i type="int" name="ISMEAR">    -5</i>
    <i name="SIGMA">      0.05000000</i>
    <i name="KSPACING">      0.50000000</i>
    <i type="logical" name="KGAMMA"> T  </i>
   </separator>
   <separator name="electronic projectors" >
    <i type="logical" name="LREAL"> T  </i>
    <v name="ROPT">     -0.00025000     -0.00025000     -0.00025000     -0.00025000</v>
    <i type="int" name="LMAXPAW">  -100</i>
    <i type="int" name="LMAXMIX">     2</i>
    <i type="logical" name="NLSPLINE"> F  </i>
   </separator>
   <separator name="electronic startup" >
    <i type="int" name="ISTART">     0</i>
    <i type="int" name="ICHARG">     2</i>
    <i type="int" name="INIWAV">     1</i>
   </separator>
   <separator name="electronic spin" >
    <i type="int" name="ISPIN">     2</i>
    <i type="logical" name="LNONCOLLINEAR"> F  </i>
    <v name="MAGMOM">      1.26000000      1.26000000      0.60000000      0.60000000      0.60000000      0.60000000      0.60000000      0.60000000      0.60000000      0.60000000</v>
    <i name="NUPDOWN">     -1.00000000</i>
    <i type="logical" name="LSORBIT"> F  </i>
    <v name="SAXIS">      0.00000000      0.00000000      1.00000000</v>
    <i type="logical" name="LSPIRAL"> F  </i>
    <v name="QSPIRAL">      0.00000000      0.00000000      0.00000000</v>
    <i type="logical" name="LZEROZ"> F  </i>
   </separator>
   <separator name="electronic exchange-correlation" >
    <i type="logical" name="LASPH"> F  </i>
    <i type="logical" name="LMETAGGA"> F  </i>
   </separator>
   <separator name="electronic convergence" >
    <i type="int" name="NELM">   400</i>
    <i type="int" name="NELMDL">     0</i>
    <i type="int" name="NELMIN">     2</i>
    <i name="ENINI">    520.00000000</i>
    <separator name="electronic convergence detail" >
     <i type="logical" name="LDIAG"> T  </i>
     <i type="logical" name="LSUBROT"> F  </i>
     <i name="WEIMIN">      0.00100000</i>
     <i name="EBREAK">      0.00000052</i>
     <i name="DEPER">      0.30000000</i>
     <i type="int" name="NRMM">     4</i>
     <i name="TIME">      0.40000000</i>
    </separator>
   </separator>
   <separator name="electronic mixer" >
    <i name="AMIX">      0.40000000</i>
    <i name="BMIX">      1.00000000</i>
    <i name="AMIN">      0.01000000</i>
    <i name="AMIX_MAG">      1.60000000</i>
    <i name="BMIX_MAG">      1.00000000</i>
    <separator name="electronic mixer details" >
     <i type="int" name="IMIX">     4</i>
     <i type="logical" name="MIXFIRST"> F  </i>
     <i type="int" name="MAXMIX">   -45</i>
     <i name="WC">    100.00000000</i>
     <i type="int" name="INIMIX">     1</i>
     <i type="int" name="MIXPRE">     1</i>
     <i type="int" name="MREMOVE">     5</i>
    </separator>
   </separator>
   <separator name="electronic dipolcorrection" >
    <i type="logical" name="LDIPOL"> F  </i>
    <i type="logical" name="LMONO"> F  </i>
    <i type="int" name="IDIPOL">     0</i>
    <i name="EPSILON">      1.00000000</i>
    <v name="DIPOL">   -100.00000000   -100.00000000   -100.00000000</v>
    <i name="EFIELD">      0.00000000</i>
   </separator>
  </separator>
  <separator name="grids" >
   <i type="int" name="NGX">    54</i>
   <i type="int" name="NGY">    54</i>
   <i type="int" name="NGZ">   180</i>
   <i type="int" name="NGXF">   108</i>
   <i type="int" name="NGYF">   108</i>
   <i type="int" name="NGZF">   360</i>
   <i type="logical" name="ADDGRID"> F  </i>
  </separator>
  <separator name="ionic" >
   <i type="int" name="NSW">    99</i>
   <i type="int" name="IBRION">     2</i>
   <i type="int" name="MDALGO">     0</i>
   <i type="int" name="ISIF">     3</i>
   <i name="PSTRESS">      0.00000000</i>
   <i name="EDIFFG">      0.00100000</i>
   <i type="int" name="NFREE">     1</i>
   <i name="POTIM">      0.50000000</i>
   <i name="SMASS">     -3.00000000</i>
   <i name="SCALEE">      1.00000000</i>
  </separator>
  <separator name="ionic md" >
   <i name="TEBEG">      0.00010000</i>
   <i name="TEEND">      0.00010000</i>
   <i type="int" name="NBLOCK">     1</i>
   <i type="int" name="KBLOCK">    99</i>
   <i type="int" name="NPACO">   256</i>
   <i name="APACO">     16.00000000</i>
  </separator>
  <separator name="symmetry" >
   <i type="int" name="ISYM">     2</i>
   <i name="SYMPREC">      0.00001000</i>
  </separator>
  <separator name="dos" >
   <i type="int" name="LORBIT">    11</i>
   <v name="RWIGS">     -1.00000000     -1.00000000     -1.00000000     -1.00000000</v>
   <i type="int" name="NEDOS">   301</i>
   <i name="EMIN">     10.00000000</i>
   <i name="EMAX">    -10.00000000</i>
   <i name="EFERMI">      0.00000000</i>
  </separator>
  <separator name="writing" >
   <i type="int" name="NWRITE">     2</i>
   <i type="logical" name="LWAVE"> F  </i>
   <i type="logical" name="LDOWNSAMPLE"> F  </i>
   <i type="logical" name="LCHARG"> T  </i>
   <i type="logical" name="LPARD"> F  </i>
   <i type="logical" name="LVTOT"> F  </i>
   <i type="logical" name="LVHAR"> F  </i>
   <i type="logical" name="LELF"> F  </i>
   <i type="logical" name="LOPTICS"> F  </i>
   <v name="STM">      0.00000000      0.00000000      0.00000000      0.00000000      0.00000000      0.00000000      0.00000000</v>
  </separator>
  <separator name="performance" >
   <i type="int" name="NPAR">    16</i>
   <i type="int" name="NSIM">     4</i>
   <i type="int" name="NBLK">    -1</i>
   <i type="logical" name="LPLANE"> T  </i>
   <i type="logical" name="LSCALAPACK"> T  </i>
   <i type="logical" name="LSCAAWARE"> F  </i>
   <i type="logical" name="LSCALU"> F  </i>
   <i type="logical" name="LASYNC"> F  </i>
   <i type="logical" name="LORBITALREAL"> F  </i>
  </separator>
  <separator name="miscellaneous" >
   <i type="int" name="IDIOT">     3</i>
   <i type="int" name="ISPECIAL">     0</i>
   <i type="logical" name="LMUSIC"> F  </i>
   <v name="POMASS">     58.69000000     28.08500000     30.97400000     78.96000000</v>
   <v name="DARWINR">      0.00000000      0.00000000      0.00000000      0.00000000</v>
   <v name="DARWINV">      1.00000000      1.00000000      1.00000000      1.00000000</v>
   <i type="logical" name="LCORR"> T  </i>
  </separator>
  <i type="logical" name="GGA_COMPAT"> T  </i>
  <i type="logical" name="LBERRY"> F  </i>
  <i type="int" name="ICORELEVEL">     0</i>
  <i type="logical" name="LDAU"> F  </i>
  <i type="int" name="I_CONSTRAINED_M">     0</i>
  <separator name="electronic exchange-correlation" >
   <i type="string" name="GGA">BO</i>
   <i type="int" name="VOSKOWN">     0</i>
   <i type="logical" name="LHFCALC"> F  </i>
   <i type="string" name="PRECFOCK"></i>
   <i type="logical" name="LSYMGRAD"> F  </i>
   <i type="logical" name="LHFONE"> F  </i>
   <i type="logical" name="LRHFCALC"> F  </i>
   <i type="logical" name="LTHOMAS"> F  </i>
   <i type="logical" name="LMODELHF"> F  </i>
   <i name="ENCUT4O">     -1.00000000</i>
   <i type="int" name="EXXOEP">     0</i>
   <i type="int" name="FOURORBIT">     0</i>
   <i name="AEXX">      0.00000000</i>
   <i name="HFALPHA">      0.00000000</i>
   <i name="MCALPHA">      0.00000000</i>
   <i name="ALDAX">      1.00000000</i>
   <i name="AGGAX">      1.00000000</i>
   <i name="ALDAC">      1.00000000</i>
   <i name="AGGAC">      0.00000000</i>
   <i type="int" name="NKREDX">     1</i>
   <i type="int" name="NKREDY">     1</i>
   <i type="int" name="NKREDZ">     1</i>
   <i type="logical" name="SHIFTRED"> F  </i>
   <i type="logical" name="ODDONLY"> F  </i>
   <i type="logical" name="EVENONLY"> F  </i>
   <i type="int" name="LMAXFOCK">     0</i>
   <i type="int" name="NMAXFOCKAE">     0</i>
   <i type="logical" name="LFOCKAEDFT"> F  </i>
   <i name="HFSCREEN">      0.00000000</i>
   <i name="HFSCREENC">      0.00000000</i>
   <i type="int" name="NBANDSGWLOW">     0</i>
  </separator>
  <separator name="vdW DFT" >
   <i type="logical" name="LUSE_VDW"> T  </i>
   <i name="Zab_VDW">     -0.84910000</i>
   <i name="PARAM1">      0.18333333</i>
   <i name="PARAM2">      0.22000000</i>
   <i name="PARAM3">      0.00000000</i>
  </separator>
  <separator name="model GW" >
   <i type="int" name="MODEL_GW">     0</i>
   <i name="MODEL_EPS0">     58.13010116</i>
   <i name="MODEL_ALPHA">      1.00000000</i>
  </separator>
  <separator name="linear response parameters" >
   <i type="logical" name="LEPSILON"> F  </i>
   <i type="logical" name="LRPA"> F  </i>
   <i type="logical" name="LNABLA"> F  </i>
   <i type="logical" name="LVEL"> F  </i>
   <i type="int" name="KINTER">     0</i>
   <i name="CSHIFT">      0.10000000</i>
   <i name="OMEGAMAX">     -1.00000000</i>
   <i name="DEG_THRESHOLD">      0.00200000</i>
   <i name="RTIME">     -0.10000000</i>
   <i name="WPLASMAI">      0.00000000</i>
   <v name="DFIELD">      0.00000000      0.00000000      0.00000000</v>
   <v name="WPLASMA">      0.00000000      0.00000000      0.00000000      0.00000000      0.00000000      0.00000000      0.00000000      0.00000000      0.00000000</v>
  </separator>
  <separator name="orbital magnetization" >
   <i type="logical" name="NUCIND"> F  </i>
   <v name="MAGPOS">      0.00000000      0.00000000      0.00000000</v>
   <i type="logical" name="LNICSALL"> T  </i>
   <i type="logical" name="ORBITALMAG"> F  </i>
   <i type="logical" name="LMAGBLOCH"> F  </i>
   <i type="logical" name="LCHIMAG"> F  </i>
   <i type="logical" name="LGAUGE"> T  </i>
   <i type="int" name="MAGATOM">     0</i>
   <v name="MAGDIPOL">      0.00000000      0.00000000      0.00000000</v>
   <v name="AVECCONST">      0.00000000      0.00000000      0.00000000</v>
  </separator>
  <separator name="response functions" >
   <i type="logical" name="LADDER"> F  </i>
   <i type="logical" name="LRPAFORCE"> F  </i>
   <i type="logical" name="LFXC"> F  </i>
   <i type="logical" name="LHARTREE"> T  </i>
   <i type="int" name="IBSE">     0</i>
   <v type="int" name="KPOINT">    -1     0     0     0</v>
   <i type="logical" name="LTCTE"> F  </i>
   <i type="logical" name="LTETE"> F  </i>
   <i type="logical" name="LTRIPLET"> F  </i>
   <i type="logical" name="LFXCEPS"> F  </i>
   <i type="logical" name="LFXHEG"> F  </i>
   <i type="int" name="NATURALO">     2</i>
   <i type="logical" name="L2ORDER"> F  </i>
   <i type="logical" name="LMP2LT"> F  </i>
   <i type="logical" name="LUSEW"> F  </i>
   <i name="ENCUTGW">     -2.00000000</i>
   <i name="ENCUTGWSOFT">     -2.00000000</i>
   <i name="ENCUTLF">     -1.00000000</i>
   <i type="int" name="LMAXMP2">    -1</i>
   <i name="SCISSOR">      0.00000000</i>
   <i type="int" name="NOMEGA">     0</i>
   <i type="int" name="NOMEGAR">     0</i>
   <i type="int" name="NBANDSGW">    -1</i>
   <i type="int" name="NBANDSO">    -1</i>
   <i type="int" name="NBANDSV">    -1</i>
   <i type="int" name="NELM">   400</i>
   <i type="int" name="NELMHF">     1</i>
   <i type="int" name="DIM">     3</i>
   <i type="int" name="ANTIRES">     0</i>
   <i name="OMEGAMAX">    -30.00000000</i>
   <i name="OMEGAMIN">    -30.00000000</i>
   <i name="OMEGATL">   -200.00000000</i>
   <i type="int" name="OMEGAGRID">   140</i>
   <i name="CSHIFT">     -0.10000000</i>
   <i type="logical" name="SELFENERGY"> F  </i>
   <i type="logical" name="LSPECTRAL"> F  </i>
   <i type="logical" name="LSPECTRALGW"> F  </i>
   <i type="logical" name="LSINGLES"> F  </i>
   <i type="logical" name="LFERMIGW"> F  </i>
   <i type="logical" name="ODDONLYGW"> F  </i>
   <i type="logical" name="EVENONLYGW"> F  </i>
   <i type="int" name="NKREDLFX">     1</i>
   <i type="int" name="NKREDLFY">     1</i>
   <i type="int" name="NKREDLFZ">     1</i>
   <i type="int" name="MAXMEM">  2800</i>
   <i type="int" name="TELESCOPE">     0</i>
   <i type="int" name="TAUPAR">     1</i>
   <i type="int" name="OMEGAPAR">    -1</i>
   <i name="LAMBDA">      1.00000000</i>
  </separator>
  <separator name="External order field" >
   <i name="OFIELD_KAPPA">      0.00000000</i>
   <v name="OFIELD_K">      0.00000000      0.00000000      0.00000000</v>
   <i name="OFIELD_Q6_NEAR">      0.00000000</i>
   <i name="OFIELD_Q6_FAR">      0.00000000</i>
   <i name="OFIELD_A">      0.00000000</i>
  </separator>
 </parameters>
 <atominfo>
  <atoms>      10 </atoms>
  <types>       4 </types>
  <array name="atoms" >
   <dimension dim="1">ion</dimension>
   <field type="string">element</field>
   <field type="int">atomtype</field>
   <set>
    <rc><c>Ni</c><c>   1</c></rc>
    <rc><c>Ni</c><c>   1</c></rc>
    <rc><c>Si</c><c>   2</c></rc>
    <rc><c>P </c><c>   3</c></rc>
    <rc><c>Se</c><c>   4</c></rc>
    <rc><c>Se</c><c>   4</c></rc>
    <rc><c>Se</c><c>   4</c></rc>
    <rc><c>Se</c><c>   4</c></rc>
    <rc><c>Se</c><c>   4</c></rc>
    <rc><c>Se</c><c>   4</c></rc>
   </set>
  </array>
  <array name="atomtypes" >
   <dimension dim="1">type</dimension>
   <field type="int">atomspertype</field>
   <field type="string">element</field>
   <field>mass</field>
   <field>valence</field>
   <field type="string">pseudopotential</field>
   <set>
    <rc><c>   2</c><c>Ni</c><c>     58.69000000</c><c>     10.00000000</c><c> PAW_PBE Ni 06Sep2000                   </c></rc>
    <rc><c>   1</c><c>Si</c><c>     28.08500000</c><c>      4.00000000</c><c> PAW_PBE Si 05Jan2001                   </c></rc>
    <rc><c>   1</c><c>P </c><c>     30.97400000</c><c>      5.00000000</c><c>  PAW_PBE P 17Jan2003                   </c></rc>
    <rc><c>   6</c><c>Se</c><c>     78.96000000</c><c>      6.00000000</c><c> PAW_PBE Se 06Sep2000                   </c></rc>
   </set>
  </array>
 </atominfo>
 <structure name="initialpos" >
  <crystal>
   <varray name="basis" >
    <v>       6.90777700      -0.00000000       0.00000000 </v>
    <v>       3.45388800       5.98231000       0.00000000 </v>
    <v>       0.00000000       0.00000000      23.44458800 </v>
   </varray>
   <i name="volume">    968.83501932 </i>
   <varray name="rec_basis" >
    <v>       0.14476437      -0.08357974       0.00000000 </v>
    <v>       0.00000000       0.16715951      -0.00000000 </v>
    <v>      -0.00000000       0.00000000       0.04265377 </v>
   </varray>
  </crystal>
  <varray name="positions" >
   <v>       0.33333300       0.33333300       0.49992500 </v>
   <v>       0.66666700       0.66666700       0.50007500 </v>
   <v>       0.00000000       0.00000000       0.44821600 </v>
   <v>       0.00000000       0.00000000       0.55178400 </v>
   <v>       0.62635700       0.00042000       0.57375200 </v>
   <v>       0.00042000       0.37322400       0.57375200 </v>
   <v>       0.37322400       0.62635700       0.57375200 </v>
   <v>       0.37364300       0.99958000       0.42624800 </v>
   <v>       0.99958000       0.62677600       0.42624800 </v>
   <v>       0.62677600       0.37364300       0.42624800 </v>
  </varray>
  <varray name="selective"  type="logical" >
   <v type="logical" >  T  T  T </v>
   <v type="logical" >  T  T  T </v>
   <v type="logical" >  T  T  T </v>
   <v type="logical" >  T  T  T </v>
   <v type="logical" >  T  T  T </v>
   <v type="logical" >  T  T  T </v>
   <v type="logical" >  T  T  T </v>
   <v type="logical" >  T  T  T </v>
   <v type="logical" >  T  T  T </v>
   <v type="logical" >  T  T  T </v>
  </varray>
  <nose>
   <v>      -3.00000000       0.00000000       0.00010000       0.00010000 </v>
  </nose>
 </structure>
 <calculation>
  <scstep>
   <time name="dav">   22.71   22.81</time>
   <time name="total">   75.25   75.44</time>
   <energy>
    <i name="alphaZ">     38.82079944 </i>
    <i name="ewald">   8338.88239735 </i>
    <i name="hartreedc"> -11934.33700887 </i>
    <i name="XCdc">     42.75588518 </i>
    <i name="pawpsdc">   2457.05311387 </i>
    <i name="pawaedc">  -2475.34747419 </i>
    <i name="eentropy">      0.00000000 </i>
    <i name="bandstr">    -44.83837072 </i>
    <i name="atom">   3994.15407262 </i>
    <i name="e_fr_energy">    417.14341467 </i>
    <i name="e_wo_entrp">    417.14341467 </i>
    <i name="e_0_energy">    417.14341467 </i>
   </energy>
  </scstep>
  <scstep>
   <time name="dav">   31.30   32.64</time>
   <time name="total">   31.30   32.64</time>
   <energy>
    <i name="e_fr_energy">     27.92385602 </i>
    <i name="e_wo_entrp">     27.92385602 </i>
    <i name="e_0_energy">     27.92385602 </i>
   </energy>
  </scstep>
  <scstep>
   <time name="dav">   26.68   27.72</time>
   <time name="total">   26.68   27.73</time>
   <energy>
    <i name="e_fr_energy">    -35.83618430 </i>
    <i name="e_wo_entrp">    -35.83618430 </i>
    <i name="e_0_energy">    -35.83618430 </i>
   </energy>
  </scstep>
  <scstep>
   <time name="dav">   25.90   27.79</time>
   <time name="total">   25.90   27.79</time>
   <energy>
    <i name="e_fr_energy">    -38.16668389 </i>
    <i name="e_wo_entrp">    -38.16668389 </i>
    <i name="e_0_energy">    -38.16668389 </i>
   </energy>
  </scstep>
  <scstep>
   <time name="dav">   26.73   27.01</time>
   <time name="total">   28.88   29.20</time>
   <energy>
    <i name="e_fr_energy">    -38.22056313 </i>
    <i name="e_wo_entrp">    -38.22056313 </i>
    <i name="e_0_energy">    -38.22056313 </i>
   </energy>
  </scstep>
  <scstep>
   <time name="dav">   28.19   28.40</time>
   <time name="total">   82.16   82.82</time>
   <energy>
    <i name="e_fr_energy">    -80.33826372 </i>
    <i name="e_wo_entrp">    -80.33826372 </i>
    <i name="e_0_energy">    -80.33826372 </i>
   </energy>
  </scstep>
  <scstep>
   <time name="dav">   27.46   27.80</time>
   <time name="total">   81.61   82.36</time>
   <energy>
    <i name="e_fr_energy">    -44.17459315 </i>
    <i name="e_wo_entrp">    -44.17459315 </i>
    <i name="e_0_energy">    -44.17459315 </i>
   </energy>
  </scstep>
  <scstep>
   <time name="dav">   24.74   25.37</time>
   <time name="total">   78.42   79.51</time>
   <energy>
    <i name="e_fr_energy">    -35.10683257 </i>
    <i name="e_wo_entrp">    -35.10683257 </i>
    <i name="e_0_energy">    -35.10683257 </i>
   </energy>
  </scstep>
  <scstep>
   <time name="dav">   32.97   33.36</time>
   <time name="total">   86.38   87.44</time>
   <energy>
    <i name="e_fr_energy">    -34.48113304 </i>
    <i name="e_wo_entrp">    -34.48113304 </i>
    <i name="e_0_energy">    -34.48113304 </i>
   </energy>
  </scstep>
  <scstep>
   <time name="dav">   26.14   26.47</time>
   <time name="total">   79.08   79.53</time>
   <energy>
    <i name="e_fr_energy">    -34.49965048 </i>
    <i name="e_wo_entrp">    -34.49965048 </i>
    <i name="e_0_energy">    -34.49965048 </i>
   </energy>
  </scstep>
  <scstep>
   <time name="dav">   27.12   27.39</time>
   <time name="total">   80.19   80.52</time>
   <energy>
    <i name="e_fr_energy">    -34.57086096 </i>
    <i name="e_wo_entrp">    -34.57086096 </i>
    <i name="e_0_energy">    -34.57086096 </i>
   </energy>
  </scstep>
  <scstep>
   <time name="dav">   30.33   30.44</time>
   <time name="total">   83.31   83.63</time>
   <energy>
    <i name="e_fr_energy">    -34.57089412 </i>
    <i name="e_wo_entrp">    -34.57089412 </i>
    <i name="e_0_energy">    -34.57089412 </i>
   </energy>
  </scstep>
  <scstep>
   <time name="dav">   28.54   28.72</time>
   <time name="total">   81.73   81.96</time>
   <energy>
    <i name="e_fr_energy">    -34.43992246 </i>
    <i name="e_wo_entrp">    -34.43992246 </i>
    <i name="e_0_energy">    -34.43992246 </i>
   </energy>
  </scstep>
  <scstep>
   <time name="dav">   31.83   32.11</time>
   <time name="total">   84.88   85.46</time>
   <energy>
    <i name="e_fr_energy">    -34.56198489 </i>
    <i name="e_wo_entrp">    -34.56198489 </i>
    <i name="e_0_energy">    -34.56198489 </i>
   </energy>
  </scstep>
  <scstep>
   <time name="dav">   26.53   26.58</time>
   <time name="total">   79.93   80.05</time>
   <energy>
    <i name="e_fr_energy">    -34.53952389 </i>
    <i name="e_wo_entrp">    -34.53952389 </i>
    <i name="e_0_energy">    -34.53952389 </i>
   </energy>
  </scstep>
  <scstep>
   <time name="dav">   28.33   28.37</time>
   <time name="total">   81.37   81.44</time>
   <energy>
    <i name="e_fr_energy">    -34.57244792 </i>
    <i name="e_wo_entrp">    -34.57244792 </i>
    <i name="e_0_energy">    -34.57244792 </i>
   </energy>
  </scstep>
  <scstep>
   <time name="dav">   29.61   29.70</time>
   <time name="total">   82.72   83.11</time>
   <energy>
    <i name="e_fr_energy">    -34.58553492 </i>
    <i name="e_wo_entrp">    -34.58553492 </i>
    <i name="e_0_energy">    -34.58553492 </i>
   </energy>
  </scstep>
  <scstep>
   <time name="dav">   27.39   27.46</time>
   <time name="total">   80.39   80.65</time>
   <energy>
    <i name="e_fr_energy">    -34.60174652 </i>
    <i name="e_wo_entrp">    -34.60174652 </i>
    <i name="e_0_energy">    -34.60174652 </i>
   </energy>
  </scstep>
  <scstep>
   <time name="dav">   23.75   23.85</time>
   <time name="total">   76.92   77.13</time>
   <energy>
    <i name="e_fr_energy">    -34.59682075 </i>
    <i name="e_wo_entrp">    -34.59682075 </i>
    <i name="e_0_energy">    -34.59682075 </i>
   </energy>
  </scstep>
  <scstep>
   <time name="dav">   28.28   28.40</time>
   <time name="total">   81.18   81.67</time>
   <energy>
    <i name="e_fr_energy">    -34.59618012 </i>
    <i name="e_wo_entrp">    -34.59618012 </i>
    <i name="e_0_energy">    -34.59618012 </i>
   </energy>
  </scstep>
  <scstep>
   <time name="dav">   25.77   26.09</time>
   <time name="total">   78.66   79.51</time>
   <energy>
    <i name="e_fr_energy">    -34.59651561 </i>
    <i name="e_wo_entrp">    -34.59651561 </i>
    <i name="e_0_energy">    -34.59651561 </i>
   </energy>
  </scstep>
  <scstep>
   <time name="dav">   19.22   19.26</time>
   <time name="total">   69.89   70.35</time>
   <energy>
    <i name="alphaZ">     38.82079944 </i>
    <i name="ewald">   8338.88239735 </i>
    <i name="hartreedc"> -11911.44570354 </i>
    <i name="XCdc">     42.03067393 </i>
    <i name="pawpsdc">   2449.68556753 </i>
    <i name="pawaedc">  -2468.95941119 </i>
    <i name="eentropy">      0.00000000 </i>
    <i name="bandstr">   -517.76482381 </i>
    <i name="atom">   3994.15407262 </i>
    <i name="e_fr_energy">    -34.59642768 </i>
    <i name="e_wo_entrp">    -34.59642768 </i>
    <i name="e_0_energy">    -34.59642768 </i>
   </energy>
  </scstep>
  <structure>
   <crystal>
    <varray name="basis" >
     <v>       6.90777700      -0.00000000       0.00000000 </v>
     <v>       3.45388800       5.98231000       0.00000000 </v>
     <v>       0.00000000       0.00000000      23.44458800 </v>
    </varray>
    <i name="volume">    968.83501932 </i>
    <varray name="rec_basis" >
     <v>       0.14476437      -0.08357974       0.00000000 </v>
     <v>       0.00000000       0.16715951      -0.00000000 </v>
     <v>      -0.00000000       0.00000000       0.04265377 </v>
    </varray>
   </crystal>
   <varray name="positions" >
    <v>       0.33333300       0.33333300       0.49992500 </v>
    <v>       0.66666700       0.66666700       0.50007500 </v>
    <v>       0.00000000       0.00000000       0.44821600 </v>
    <v>       0.00000000       0.00000000       0.55178400 </v>
    <v>       0.62635700       0.00042000       0.57375200 </v>
    <v>       0.00042000       0.37322400       0.57375200 </v>
    <v>       0.37322400       0.62635700       0.57375200 </v>
    <v>       0.37364300       0.99958000       0.42624800 </v>
    <v>       0.99958000       0.62677600       0.42624800 </v>
    <v>       0.62677600       0.37364300       0.42624800 </v>
   </varray>
  </structure>
  <varray name="forces" >
   <v>      -0.00000000      -0.00000000      -0.00766192 </v>
   <v>      -0.00000000      -0.00000000      -0.02276874 </v>
   <v>      -0.00000000      -0.00000000       0.25806303 </v>
   <v>      -0.00000000      -0.00000000      -0.24813166 </v>
   <v>       0.92149558      -0.00573044      -1.31837459 </v>
   <v>      -0.46571043      -0.79517331      -1.31837459 </v>
   <v>      -0.45578515       0.80090375      -1.31837459 </v>
   <v>      -1.10086255       0.00581084       1.32520768 </v>
   <v>       0.55546354       0.95046946       1.32520768 </v>
   <v>       0.54539902      -0.95628030       1.32520768 </v>
  </varray>
  <varray name="stress" >
   <v>     -39.83645403       0.00000446       0.00000000 </v>
   <v>       0.00000220     -39.83644916       0.00000000 </v>
   <v>       0.00000000       0.00000000     -23.22920977 </v>
  </varray>
  <energy>
   <i name="e_fr_energy">    -34.59642768 </i>
   <i name="e_wo_entrp">    -34.59642768 </i>
   <i name="e_0_energy">      0.00000000 </i>
  </energy>
  <time name="totalsc"> 1705.59 1720.14</time>
 </calculation>
 <calculation>
  <scstep>
   <time name="dav">   30.40   30.52</time>
   <time name="total">   85.08   85.83</time>
   <energy>
    <i name="alphaZ">     53.31419514 </i>
    <i name="ewald">  10399.30733823 </i>
    <i name="hartreedc"> -14323.63651753 </i>
    <i name="XCdc">     60.73708515 </i>
    <i name="pawpsdc">   2449.79034844 </i>
    <i name="pawaedc">  -2469.05186123 </i>
    <i name="eentropy">      0.00000000 </i>
    <i name="bandstr">   -290.09389022 </i>
    <i name="atom">   3994.15407262 </i>
    <i name="e_fr_energy">   -125.47922940 </i>
    <i name="e_wo_entrp">   -125.47922940 </i>
    <i name="e_0_energy">   -125.47922940 </i>
   </energy>
  </scstep>
  <scstep>
   <time name="dav">   36.23   36.43</time>
   <time name="total">   90.06   90.77</time>
   <energy>
    <i name="e_fr_energy">   -475.70682052 </i>
    <i name="e_wo_entrp">   -475.70682052 </i>
    <i name="e_0_energy">   -475.70682052 </i>
   </energy>
  </scstep>
  <scstep>
   <time name="dav">   29.07   29.42</time>
   <time name="total">   83.75   84.77</time>
   <energy>
    <i name="e_fr_energy">    -98.17116360 </i>
    <i name="e_wo_entrp">    -98.17116360 </i>
    <i name="e_0_energy">    -98.17116360 </i>
   </energy>
  </scstep>
  <scstep>
   <time name="dav">   28.46   29.02</time>
   <time name="total">   81.74   83.42</time>
   <energy>
    <i name="e_fr_energy">    -45.01174481 </i>
    <i name="e_wo_entrp">    -45.01174481 </i>
    <i name="e_0_energy">    -45.01174481 </i>
   </energy>
  </scstep>
  <scstep>
   <time name="dav">   30.92   31.05</time>
   <time name="total">   85.67   86.49</time>
   <energy>
    <i name="e_fr_energy">    -40.50214979 </i>
    <i name="e_wo_entrp">    -40.50214979 </i>
    <i name="e_0_energy">    -40.50214979 </i>
   </energy>
  </scstep>
  <scstep>
   <time name="dav">   29.93   29.99</time>
   <time name="total">   83.56   83.98</time>
   <energy>
    <i name="e_fr_energy">    -39.07502713 </i>
    <i name="e_wo_entrp">    -39.07502713 </i>
    <i name="e_0_energy">    -39.07502713 </i>
   </energy>
  </scstep>
  <scstep>
   <time name="dav">   26.18   26.36</time>
   <time name="total">   80.12   80.52</time>
   <energy>
    <i name="e_fr_energy">    -39.50141626 </i>
    <i name="e_wo_entrp">    -39.50141626 </i>
    <i name="e_0_energy">    -39.50141626 </i>
   </energy>
  </scstep>
  <scstep>
   <time name="dav">   30.11   30.49</time>
   <time name="total">   83.94   84.45</time>
   <energy>
    <i name="e_fr_energy">    -39.40392205 </i>
    <i name="e_wo_entrp">    -39.40392205 </i>
    <i name="e_0_energy">    -39.40392205 </i>
   </energy>
  </scstep>
  <scstep>
   <time name="dav">   27.20   27.28</time>
   <time name="total">   81.35   81.48</time>
   <energy>
    <i name="e_fr_energy">    -38.85791780 </i>
    <i name="e_wo_entrp">    -38.85791780 </i>
    <i name="e_0_energy">    -38.85791780 </i>
   </energy>
  </scstep>
  <scstep>
   <time name="dav">   34.63   34.70</time>
   <time name="total">   88.92   89.10</time>
   <energy>
    <i name="e_fr_energy">    -38.77177857 </i>
    <i name="e_wo_entrp">    -38.77177857 </i>
    <i name="e_0_energy">    -38.77177857 </i>
   </energy>
  </scstep>
  <scstep>
   <time name="dav">   29.59   29.83</time>
   <time name="total">   83.98   84.87</time>
   <energy>
    <i name="e_fr_energy">    -38.81251086 </i>
    <i name="e_wo_entrp">    -38.81251086 </i>
    <i name="e_0_energy">    -38.81251086 </i>
   </energy>
  </scstep>
  <scstep>
   <time name="dav">   24.82   24.87</time>
   <time name="total">   79.59   80.19</time>
   <energy>
    <i name="e_fr_energy">    -38.80530873 </i>
    <i name="e_wo_entrp">    -38.80530873 </i>
    <i name="e_0_energy">    -38.80530873 </i>
   </energy>
  </scstep>
  <scstep>
   <time name="dav">   28.38   28.54</time>
   <time name="total">   82.97   83.23</time>
   <energy>
    <i name="e_fr_energy">    -38.81384939 </i>
    <i name="e_wo_entrp">    -38.81384939 </i>
    <i name="e_0_energy">    -38.81384939 </i>
   </energy>
  </scstep>
  <scstep>
   <time name="dav">   26.86   27.10</time>
   <time name="total">   81.18   81.81</time>
   <energy>
    <i name="e_fr_energy">    -38.81854222 </i>
    <i name="e_wo_entrp">    -38.81854222 </i>
    <i name="e_0_energy">    -38.81854222 </i>
   </energy>
  </scstep>
  <scstep>
   <time name="dav">   29.45   29.62</time>
   <time name="total">   83.68   83.96</time>
   <energy>
    <i name="e_fr_energy">    -38.81680876 </i>
    <i name="e_wo_entrp">    -38.81680876 </i>
    <i name="e_0_energy">    -38.81680876 </i>
   </energy>
  </scstep>
  <scstep>
   <time name="dav">   25.09   25.58</time>
   <time name="total">   79.20   79.87</time>
   <energy>
    <i name="e_fr_energy">    -38.82451389 </i>
    <i name="e_wo_entrp">    -38.82451389 </i>
    <i name="e_0_energy">    -38.82451389 </i>
   </energy>
  </scstep>
  <scstep>
   <time name="dav">   31.24   31.41</time>
   <time name="total">   85.05   85.66</time>
   <energy>
    <i name="e_fr_energy">    -38.82978117 </i>
    <i name="e_wo_entrp">    -38.82978117 </i>
    <i name="e_0_energy">    -38.82978117 </i>
   </energy>
  </scstep>
  <scstep>
   <time name="dav">   32.34   32.48</time>
   <time name="total">   87.00   87.31</time>
   <energy>
    <i name="e_fr_energy">    -38.83400070 </i>
    <i name="e_wo_entrp">    -38.83400070 </i>
    <i name="e_0_energy">    -38.83400070 </i>
   </energy>
  </scstep>
  <scstep>
   <time name="dav">   26.26   26.54</time>
   <time name="total">   80.10   80.66</time>
   <energy>
    <i name="e_fr_energy">    -38.82369391 </i>
    <i name="e_wo_entrp">    -38.82369391 </i>
    <i name="e_0_energy">    -38.82369391 </i>
   </energy>
  </scstep>
  <scstep>
   <time name="dav">   25.47   25.98</time>
   <time name="total">   79.47   80.29</time>
   <energy>
    <i name="e_fr_energy">    -38.83430239 </i>
    <i name="e_wo_entrp">    -38.83430239 </i>
    <i name="e_0_energy">    -38.83430239 </i>
   </energy>
  </scstep>
  <scstep>
   <time name="dav">   32.31   32.35</time>
   <time name="total">   86.32   86.55</time>
   <energy>
    <i name="e_fr_energy">    -38.84959436 </i>
    <i name="e_wo_entrp">    -38.84959436 </i>
    <i name="e_0_energy">    -38.84959436 </i>
   </energy>
  </scstep>
  <scstep>
   <time name="dav">   30.76   30.79</time>
   <time name="total">   85.04   85.14</time>
   <energy>
    <i name="e_fr_energy">    -38.85006080 </i>
    <i name="e_wo_entrp">    -38.85006080 </i>
    <i name="e_0_energy">    -38.85006080 </i>
   </energy>
  </scstep>
  <scstep>
   <time name="dav">   27.72   27.75</time>
   <time name="total">   81.58   81.93</time>
   <energy>
    <i name="e_fr_energy">    -38.85771292 </i>
    <i name="e_wo_entrp">    -38.85771292 </i>
    <i name="e_0_energy">    -38.85771292 </i>
   </energy>
  </scstep>
  <scstep>
   <time name="dav">   27.58   27.66</time>
   <time name="total">   81.62   81.88</time>
   <energy>
    <i name="e_fr_energy">    -38.85858880 </i>
    <i name="e_wo_entrp">    -38.85858880 </i>
    <i name="e_0_energy">    -38.85858880 </i>
   </energy>
  </scstep>
  <scstep>
   <time name="dav">   26.34   26.46</time>
   <time name="total">   80.22   80.42</time>
   <energy>
    <i name="e_fr_energy">    -38.86044899 </i>
    <i name="e_wo_entrp">    -38.86044899 </i>
    <i name="e_0_energy">    -38.86044899 </i>
   </energy>
  </scstep>
  <scstep>
   <time name="dav">   27.49   27.78</time>
   <time name="total">   81.53   82.03</time>
   <energy>
    <i name="e_fr_energy">    -38.86064485 </i>
    <i name="e_wo_entrp">    -38.86064485 </i>
    <i name="e_0_energy">    -38.86064485 </i>
   </energy>
  </scstep>
  <scstep>
   <time name="dav">   31.59   31.99</time>
   <time name="total">   83.25   83.84</time>
   <energy>
    <i name="alphaZ">     53.31419514 </i>
    <i name="ewald">  10399.30733823 </i>
    <i name="hartreedc"> -14007.87900168 </i>
    <i name="XCdc">     48.81028843 </i>
    <i name="pawpsdc">   2604.42325984 </i>
    <i name="pawaedc">  -2626.61563267 </i>
    <i name="eentropy">      0.00000000 </i>
    <i name="bandstr">   -504.37508878 </i>
    <i name="atom">   3994.15407262 </i>
    <i name="e_fr_energy">    -38.86056886 </i>
    <i name="e_wo_entrp">    -38.86056886 </i>
    <i name="e_0_energy">    -38.86056886 </i>
   </energy>
  </scstep>
  <structure>
   <crystal>
    <varray name="basis" >
     <v>       6.10501017       0.00000009       0.00000000 </v>
     <v>       3.05250468       5.28709370       0.00000000 </v>
     <v>       0.00000000       0.00000000      21.85586757 </v>
    </varray>
    <i name="volume">    705.45845947 </i>
    <varray name="rec_basis" >
     <v>       0.16379989      -0.09456990      -0.00000000 </v>
     <v>      -0.00000000       0.18913983       0.00000000 </v>
     <v>      -0.00000000      -0.00000000       0.04575430 </v>
    </varray>
   </crystal>
   <varray name="positions" >
    <v>       0.33333300       0.33333300       0.49990923 </v>
    <v>       0.66666700       0.66666700       0.50002815 </v>
    <v>      -0.00000000      -0.00000000       0.44874702 </v>
    <v>      -0.00000000      -0.00000000       0.55127341 </v>
    <v>       0.63281566       0.00037379       0.57103914 </v>
    <v>       0.00037379       0.36681155       0.57103914 </v>
    <v>       0.36681155       0.63281566       0.57103914 </v>
    <v>       0.36593135       0.99962686       0.42897492 </v>
    <v>       0.99962686       0.63444079       0.42897492 </v>
    <v>       0.63444079       0.36593135       0.42897492 </v>
   </varray>
  </structure>
  <varray name="forces" >
   <v>      -0.00000000       0.00000000      -0.01663985 </v>
   <v>      -0.00000000      -0.00000000      -0.01472123 </v>
   <v>      -0.00000000       0.00000000      -0.16385403 </v>
   <v>      -0.00000000       0.00000000       0.23141724 </v>
   <v>       0.09014644      -0.02124370       0.11170145 </v>
   <v>      -0.06347080      -0.06744725       0.11170145 </v>
   <v>      -0.02667564       0.08869095       0.11170145 </v>
   <v>       0.05775026      -0.00238053      -0.12376883 </v>
   <v>      -0.03093673      -0.04882293      -0.12376883 </v>
   <v>      -0.02681353       0.05120346      -0.12376883 </v>
  </varray>
  <varray name="stress" >
   <v>       9.07507278       0.00000026       0.00000000 </v>
   <v>      -0.00000138       9.07507196       0.00000000 </v>
   <v>       0.00000000       0.00000000       6.54107243 </v>
  </varray>
  <energy>
   <i name="e_fr_energy">    -38.86056886 </i>
   <i name="e_wo_entrp">    -38.86056886 </i>
   <i name="e_0_energy">      0.00000000 </i>
  </energy>
  <time name="totalsc"> 2381.80 2396.73</time>
 </calculation>
 <calculation>
  <scstep>
   <time name="dav">   28.19   28.51</time>
   <time name="total">   82.40   82.89</time>
   <energy>
    <i name="alphaZ">     51.94150996 </i>
    <i name="ewald">  10209.99925499 </i>
    <i name="hartreedc"> -13792.20408431 </i>
    <i name="XCdc">     47.31105011 </i>
    <i name="pawpsdc">   2604.47353545 </i>
    <i name="pawaedc">  -2626.67250556 </i>
    <i name="eentropy">      0.00000000 </i>
    <i name="bandstr">   -528.32838487 </i>
    <i name="atom">   3994.15407262 </i>
    <i name="e_fr_energy">    -39.32555162 </i>
    <i name="e_wo_entrp">    -39.32555162 </i>
    <i name="e_0_energy">    -39.32555162 </i>
   </energy>
  </scstep>
  <scstep>
   <time name="dav">   26.52   26.70</time>
   <time name="total">   80.64   80.93</time>
   <energy>
    <i name="e_fr_energy">    -41.00742252 </i>
    <i name="e_wo_entrp">    -41.00742252 </i>
    <i name="e_0_energy">    -41.00742252 </i>
   </energy>
  </scstep>
  <scstep>
   <time name="dav">   24.75   24.99</time>
   <time name="total">   78.62   79.23</time>
   <energy>
    <i name="e_fr_energy">    -39.00990245 </i>
    <i name="e_wo_entrp">    -39.00990245 </i>
    <i name="e_0_energy">    -39.00990245 </i>
   </energy>
  </scstep>
  <scstep>
   <time name="dav">   28.92   29.02</time>
   <time name="total">   82.86   83.17</time>
   <energy>
    <i name="e_fr_energy">    -38.99607576 </i>
    <i name="e_wo_entrp">    -38.99607576 </i>
    <i name="e_0_energy">    -38.99607576 </i>
   </energy>
  </scstep>
  <scstep>
   <time name="dav">   25.30   25.50</time>
   <time name="total">   79.64   80.03</time>
   <energy>
    <i name="e_fr_energy">    -38.88890322 </i>
    <i name="e_wo_entrp">    -38.88890322 </i>
    <i name="e_0_energy">    -38.88890322 </i>
   </energy>
  </scstep>
  <scstep>
   <time name="dav">   28.16   28.41</time>
   <time name="total">   81.99   82.50</time>
   <energy>
    <i name="e_fr_energy">    -38.88534528 </i>
    <i name="e_wo_entrp">    -38.88534528 </i>
    <i name="e_0_energy">    -38.88534528 </i>
   </energy>
  </scstep>
  <scstep>
   <time name="dav">   28.61   28.77</time>
   <time name="total">   82.49   82.85</time>
   <energy>
    <i name="e_fr_energy">    -38.88608243 </i>
    <i name="e_wo_entrp">    -38.88608243 </i>
    <i name="e_0_energy">    -38.88608243 </i>
   </energy>
  </scstep>
  <scstep>
   <time name="dav">   29.39   29.69</time>
   <time name="total">   83.44   83.84</time>
   <energy>
    <i name="e_fr_energy">    -38.88552210 </i>
    <i name="e_wo_entrp">    -38.88552210 </i>
    <i name="e_0_energy">    -38.88552210 </i>
   </energy>
  </scstep>
  <scstep>
   <time name="dav">   23.47   23.72</time>
   <time name="total">   74.98   75.71</time>
   <energy>
    <i name="alphaZ">     51.94150996 </i>
    <i name="ewald">  10209.99925499 </i>
    <i name="hartreedc"> -13814.50738661 </i>
    <i name="XCdc">     48.12221099 </i>
    <i name="pawpsdc">   2587.43432225 </i>
    <i name="pawaedc">  -2609.21265900 </i>
    <i name="eentropy">      0.00000000 </i>
    <i name="bandstr">   -506.81691663 </i>
    <i name="atom">   3994.15407262 </i>
    <i name="e_fr_energy">    -38.88559145 </i>
    <i name="e_wo_entrp">    -38.88559145 </i>
    <i name="e_0_energy">    -38.88559145 </i>
   </energy>
  </scstep>
  <structure>
   <crystal>
    <varray name="basis" >
     <v>       6.16767915       0.00000008       0.00000000 </v>
     <v>       3.08383917       5.34136662       0.00000000 </v>
     <v>       0.00000000       0.00000000      21.97989300 </v>
    </varray>
    <i name="volume">    724.10197560 </i>
    <varray name="rec_basis" >
     <v>       0.16213554      -0.09360899      -0.00000000 </v>
     <v>      -0.00000000       0.18721801       0.00000000 </v>
     <v>      -0.00000000      -0.00000000       0.04549613 </v>
    </varray>
   </crystal>
   <varray name="positions" >
    <v>       0.33333300       0.33333300       0.49991055 </v>
    <v>       0.66666700       0.66666700       0.50003207 </v>
    <v>      -0.00000000      -0.00000000       0.44870256 </v>
    <v>      -0.00000000      -0.00000000       0.55131617 </v>
    <v>       0.63224516       0.00037787       0.57126632 </v>
    <v>       0.00037787       0.36737797       0.57126632 </v>
    <v>       0.36737797       0.63224516       0.57126632 </v>
    <v>       0.36661253       0.99962272       0.42874657 </v>
    <v>       0.99962272       0.63376375       0.42874657 </v>
    <v>       0.63376375       0.36661253       0.42874657 </v>
   </varray>
  </structure>
  <varray name="forces" >
   <v>      -0.00000000      -0.00000000      -0.00930097 </v>
   <v>      -0.00000000      -0.00000000      -0.00701038 </v>
   <v>      -0.00000000      -0.00000000      -0.16205698 </v>
   <v>      -0.00000000      -0.00000000       0.21916729 </v>
   <v>       0.22112988      -0.00852139      -0.09055700 </v>
   <v>      -0.11794467      -0.18724339      -0.09055700 </v>
   <v>      -0.10318521       0.19576478      -0.09055700 </v>
   <v>      -0.14221790       0.00755800       0.07695735 </v>
   <v>       0.07765437       0.11938531       0.07695735 </v>
   <v>       0.06456354      -0.12694331       0.07695735 </v>
  </varray>
  <varray name="stress" >
   <v>      -1.15301119       0.00000127       0.00000000 </v>
   <v>      -0.00000112      -1.15301109       0.00000000 </v>
   <v>       0.00000000       0.00000000      -0.14667647 </v>
  </varray>
  <energy>
   <i name="e_fr_energy">    -38.88559145 </i>
   <i name="e_wo_entrp">    -38.88559145 </i>
   <i name="e_0_energy">      0.00000000 </i>
  </energy>
  <time name="totalsc">  862.21  866.74</time>
 </calculation>
 <calculation>
  <scstep>
   <time name="dav">   24.61   24.80</time>
   <time name="total">   78.46   78.82</time>
   <energy>
    <i name="alphaZ">     52.14312498 </i>
    <i name="ewald">  10237.86981592 </i>
    <i name="hartreedc"> -13846.65698971 </i>
    <i name="XCdc">     48.35421818 </i>
    <i name="pawpsdc">   2586.81254595 </i>
    <i name="pawaedc">  -2608.58799190 </i>
    <i name="eentropy">      0.00000000 </i>
    <i name="bandstr">   -502.98635798 </i>
    <i name="atom">   3994.15407262 </i>
    <i name="e_fr_energy">    -38.89756194 </i>
    <i name="e_wo_entrp">    -38.89756194 </i>
    <i name="e_0_energy">    -38.89756194 </i>
   </energy>
  </scstep>
  <scstep>
   <time name="dav">   24.11   24.18</time>
   <time name="total">   78.21   78.39</time>
   <energy>
    <i name="e_fr_energy">    -38.93520945 </i>
    <i name="e_wo_entrp">    -38.93520945 </i>
    <i name="e_0_energy">    -38.93520945 </i>
   </energy>
  </scstep>
  <scstep>
   <time name="dav">   22.98   23.24</time>
   <time name="total">   76.38   77.70</time>
   <energy>
    <i name="e_fr_energy">    -38.88760537 </i>
    <i name="e_wo_entrp">    -38.88760537 </i>
    <i name="e_0_energy">    -38.88760537 </i>
   </energy>
  </scstep>
  <scstep>
   <time name="dav">   28.84   29.08</time>
   <time name="total">   81.97   83.38</time>
   <energy>
    <i name="e_fr_energy">    -38.89095016 </i>
    <i name="e_wo_entrp">    -38.89095016 </i>
    <i name="e_0_energy">    -38.89095016 </i>
   </energy>
  </scstep>
  <scstep>
   <time name="dav">   25.75   25.81</time>
   <time name="total">   79.64   79.79</time>
   <energy>
    <i name="e_fr_energy">    -38.88780258 </i>
    <i name="e_wo_entrp">    -38.88780258 </i>
    <i name="e_0_energy">    -38.88780258 </i>
   </energy>
  </scstep>
  <scstep>
   <time name="dav">   25.27   25.32</time>
   <time name="total">   78.93   79.23</time>
   <energy>
    <i name="e_fr_energy">    -38.88818532 </i>
    <i name="e_wo_entrp">    -38.88818532 </i>
    <i name="e_0_energy">    -38.88818532 </i>
   </energy>
  </scstep>
  <scstep>
   <time name="dav">   22.55   22.60</time>
   <time name="total">   74.14   74.28</time>
   <energy>
    <i name="alphaZ">     52.14312498 </i>
    <i name="ewald">  10237.86981592 </i>
    <i name="hartreedc"> -13844.32477987 </i>
    <i name="XCdc">     48.23579203 </i>
    <i name="pawpsdc">   2588.98923983 </i>
    <i name="pawaedc">  -2610.84556172 </i>
    <i name="eentropy">      0.00000000 </i>
    <i name="bandstr">   -505.10993433 </i>
    <i name="atom">   3994.15407262 </i>
    <i name="e_fr_energy">    -38.88823054 </i>
    <i name="e_wo_entrp">    -38.88823054 </i>
    <i name="e_0_energy">    -38.88823054 </i>
   </energy>
  </scstep>
  <structure>
   <crystal>
    <varray name="basis" >
     <v>       6.15833492       0.00000008       0.00000000 </v>
     <v>       3.07916705       5.33327428       0.00000000 </v>
     <v>       0.00000000       0.00000000      21.96140025 </v>
    </varray>
    <i name="volume">    721.30218493 </i>
    <varray name="rec_basis" >
     <v>       0.16238156      -0.09375103      -0.00000000 </v>
     <v>      -0.00000000       0.18750208       0.00000000 </v>
     <v>      -0.00000000      -0.00000000       0.04553444 </v>
    </varray>
   </crystal>
   <varray name="positions" >
    <v>       0.33333300       0.33333300       0.49991036 </v>
    <v>       0.66666700       0.66666700       0.50003149 </v>
    <v>      -0.00000000      -0.00000000       0.44870915 </v>
    <v>      -0.00000000      -0.00000000       0.55130983 </v>
    <v>       0.63232936       0.00037727       0.57123264 </v>
    <v>       0.00037727       0.36729437       0.57123264 </v>
    <v>       0.36729437       0.63232936       0.57123264 </v>
    <v>       0.36651199       0.99962333       0.42878042 </v>
    <v>       0.99962333       0.63386368       0.42878042 </v>
    <v>       0.63386368       0.36651199       0.42878042 </v>
   </varray>
  </structure>
  <varray name="forces" >
   <v>      -0.00000000      -0.00000000      -0.00744831 </v>
   <v>      -0.00000000      -0.00000000      -0.00789222 </v>
   <v>      -0.00000000      -0.00000000      -0.16228767 </v>
   <v>      -0.00000000      -0.00000000       0.22053573 </v>
   <v>       0.20402957      -0.00881139      -0.06158067 </v>
   <v>      -0.10964567      -0.17228909      -0.06158067 </v>
   <v>      -0.09438391       0.18110048      -0.06158067 </v>
   <v>      -0.11178524       0.00920397       0.04727816 </v>
   <v>       0.06386348       0.09220687       0.04727816 </v>
   <v>       0.04792175      -0.10141083       0.04727816 </v>
  </varray>
  <varray name="stress" >
   <v>      -0.22048372       0.00000472       0.00000000 </v>
   <v>      -0.00000469      -0.22048370      -0.00000000 </v>
   <v>      -0.00000000      -0.00000000       0.10908508 </v>
  </varray>
  <energy>
   <i name="e_fr_energy">    -38.88823054 </i>
   <i name="e_wo_entrp">    -38.88823054 </i>
   <i name="e_0_energy">      0.00000000 </i>
  </energy>
  <time name="totalsc">  682.87  687.24</time>
 </calculation>
 <calculation>
  <scstep>
   <time name="dav">   22.98   23.13</time>
   <time name="total">   77.00   77.25</time>
   <energy>
    <i name="alphaZ">     52.03665312 </i>
    <i name="ewald">  10236.32635761 </i>
    <i name="hartreedc"> -13839.89409622 </i>
    <i name="XCdc">     48.16846441 </i>
    <i name="pawpsdc">   2589.25780937 </i>
    <i name="pawaedc">  -2611.13230348 </i>
    <i name="eentropy">      0.00000000 </i>
    <i name="bandstr">   -507.81256135 </i>
    <i name="atom">   3994.15407262 </i>
    <i name="e_fr_energy">    -38.89560392 </i>
    <i name="e_wo_entrp">    -38.89560392 </i>
    <i name="e_0_energy">    -38.89560392 </i>
   </energy>
  </scstep>
  <scstep>
   <time name="dav">   26.01   26.10</time>
   <time name="total">   79.91   80.15</time>
   <energy>
    <i name="e_fr_energy">    -38.90639888 </i>
    <i name="e_wo_entrp">    -38.90639888 </i>
    <i name="e_0_energy">    -38.90639888 </i>
   </energy>
  </scstep>
  <scstep>
   <time name="dav">   23.31   23.36</time>
   <time name="total">   77.28   77.53</time>
   <energy>
    <i name="e_fr_energy">    -38.89462779 </i>
    <i name="e_wo_entrp">    -38.89462779 </i>
    <i name="e_0_energy">    -38.89462779 </i>
   </energy>
  </scstep>
  <scstep>
   <time name="dav">   26.35   26.39</time>
   <time name="total">   80.38   80.51</time>
   <energy>
    <i name="e_fr_energy">    -38.89517143 </i>
    <i name="e_wo_entrp">    -38.89517143 </i>
    <i name="e_0_energy">    -38.89517143 </i>
   </energy>
  </scstep>
  <scstep>
   <time name="dav">   25.67   25.88</time>
   <time name="total">   79.30   79.82</time>
   <energy>
    <i name="e_fr_energy">    -38.89524450 </i>
    <i name="e_wo_entrp">    -38.89524450 </i>
    <i name="e_0_energy">    -38.89524450 </i>
   </energy>
  </scstep>
  <scstep>
   <time name="dav">   21.35   21.43</time>
   <time name="total">   75.02   75.53</time>
   <energy>
    <i name="e_fr_energy">    -38.89489599 </i>
    <i name="e_wo_entrp">    -38.89489599 </i>
    <i name="e_0_energy">    -38.89489599 </i>
   </energy>
  </scstep>
  <scstep>
   <time name="dav">   17.36   17.40</time>
   <time name="total">   71.22   71.48</time>
   <energy>
    <i name="e_fr_energy">    -38.89503386 </i>
    <i name="e_wo_entrp">    -38.89503386 </i>
    <i name="e_0_energy">    -38.89503386 </i>
   </energy>
  </scstep>
  <scstep>
   <time name="dav">   18.67   18.72</time>
   <time name="total">   70.38   70.55</time>
   <energy>
    <i name="alphaZ">     52.03665312 </i>
    <i name="ewald">  10236.32635761 </i>
    <i name="hartreedc"> -13842.64434850 </i>
    <i name="XCdc">     48.23621003 </i>
    <i name="pawpsdc">   2588.84287285 </i>
    <i name="pawaedc">  -2610.67697446 </i>
    <i name="eentropy">      0.00000000 </i>
    <i name="bandstr">   -505.16988128 </i>
    <i name="atom">   3994.15407262 </i>
    <i name="e_fr_energy">    -38.89503799 </i>
    <i name="e_wo_entrp">    -38.89503799 </i>
    <i name="e_0_energy">    -38.89503799 </i>
   </energy>
  </scstep>
  <structure>
   <crystal>
    <varray name="basis" >
     <v>       6.16199549       0.00000015       0.00000000 </v>
     <v>       3.08099728       5.33644446      -0.00000000 </v>
     <v>      -0.00000000      -0.00000000      21.98019713 </v>
    </varray>
    <i name="volume">    722.77803661 </i>
    <varray name="rec_basis" >
     <v>       0.16228509      -0.09369533       0.00000000 </v>
     <v>      -0.00000000       0.18739069       0.00000000 </v>
     <v>      -0.00000000       0.00000000       0.04549550 </v>
    </varray>
   </crystal>
   <varray name="positions" >
    <v>       0.33333300       0.33333300       0.49989437 </v>
    <v>       0.66666700       0.66666700       0.50001484 </v>
    <v>      -0.00000000      -0.00000000       0.44835218 </v>
    <v>      -0.00000000      -0.00000000       0.55179285 </v>
    <v>       0.63387925       0.00029910       0.57112575 </v>
    <v>       0.00029910       0.36582265       0.57112575 </v>
    <v>       0.36582265       0.63387925       0.57112575 </v>
    <v>       0.36568627       0.99970500       0.42885617 </v>
    <v>       0.99970500       0.63460773       0.42885617 </v>
    <v>       0.63460773       0.36568627       0.42885617 </v>
   </varray>
  </structure>
  <varray name="forces" >
   <v>       0.00000000      -0.00000000      -0.01047891 </v>
   <v>       0.00000000      -0.00000000      -0.01472836 </v>
   <v>       0.00000000      -0.00000000       0.08088742 </v>
   <v>       0.00000000      -0.00000000      -0.08479294 </v>
   <v>       0.10319903      -0.00480071      -0.02755570 </v>
   <v>      -0.05575704      -0.08697262      -0.02755570 </v>
   <v>      -0.04744199       0.09177333      -0.02755570 </v>
   <v>      -0.04713232       0.00523387       0.03725996 </v>
   <v>       0.02809882       0.03820085       0.03725996 </v>
   <v>       0.01903350      -0.04343472       0.03725996 </v>
  </varray>
  <varray name="stress" >
   <v>       0.12434724       0.00000617       0.00000000 </v>
   <v>      -0.00000619       0.12434723       0.00000000 </v>
   <v>       0.00000000       0.00000000      -0.84394941 </v>
  </varray>
  <energy>
   <i name="e_fr_energy">    -38.89503799 </i>
   <i name="e_wo_entrp">    -38.89503799 </i>
   <i name="e_0_energy">      0.00000000 </i>
  </energy>
  <time name="totalsc">  745.72  748.37</time>
 </calculation>
 <calculation>
  <scstep>
   <time name="dav">   22.98   23.12</time>
   <time name="total">   76.71   77.04</time>
   <energy>
    <i name="alphaZ">     52.01201894 </i>
    <i name="ewald">  10235.96881583 </i>
    <i name="hartreedc"> -13841.80819578 </i>
    <i name="XCdc">     48.22164035 </i>
    <i name="pawpsdc">   2588.74322745 </i>
    <i name="pawaedc">  -2610.57582508 </i>
    <i name="eentropy">      0.00000000 </i>
    <i name="bandstr">   -505.61110342 </i>
    <i name="atom">   3994.15407262 </i>
    <i name="e_fr_energy">    -38.89534909 </i>
    <i name="e_wo_entrp">    -38.89534909 </i>
    <i name="e_0_energy">    -38.89534909 </i>
   </energy>
  </scstep>
  <scstep>
   <time name="dav">   25.60   25.79</time>
   <time name="total">   79.33   79.75</time>
   <energy>
    <i name="e_fr_energy">    -38.89596046 </i>
    <i name="e_wo_entrp">    -38.89596046 </i>
    <i name="e_0_energy">    -38.89596046 </i>
   </energy>
  </scstep>
  <scstep>
   <time name="dav">   22.96   23.08</time>
   <time name="total">   76.76   77.12</time>
   <energy>
    <i name="e_fr_energy">    -38.89519919 </i>
    <i name="e_wo_entrp">    -38.89519919 </i>
    <i name="e_0_energy">    -38.89519919 </i>
   </energy>
  </scstep>
  <scstep>
   <time name="dav">   20.24   20.29</time>
   <time name="total">   73.94   74.16</time>
   <energy>
    <i name="e_fr_energy">    -38.89531164 </i>
    <i name="e_wo_entrp">    -38.89531164 </i>
    <i name="e_0_energy">    -38.89531164 </i>
   </energy>
  </scstep>
  <scstep>
   <time name="dav">   20.97   21.13</time>
   <time name="total">   72.88   73.12</time>
   <energy>
    <i name="alphaZ">     52.01201894 </i>
    <i name="ewald">  10235.96881583 </i>
    <i name="hartreedc"> -13842.55944077 </i>
    <i name="XCdc">     48.23790879 </i>
    <i name="pawpsdc">   2588.73968047 </i>
    <i name="pawaedc">  -2610.57749830 </i>
    <i name="eentropy">      0.00000000 </i>
    <i name="bandstr">   -504.87087285 </i>
    <i name="atom">   3994.15407262 </i>
    <i name="e_fr_energy">    -38.89531528 </i>
    <i name="e_wo_entrp">    -38.89531528 </i>
    <i name="e_0_energy">    -38.89531528 </i>
   </energy>
  </scstep>
  <structure>
   <crystal>
    <varray name="basis" >
     <v>       6.16284386       0.00000016       0.00000000 </v>
     <v>       3.08142145       5.33717918      -0.00000000 </v>
     <v>      -0.00000000      -0.00000000      21.98455350 </v>
    </varray>
    <i name="volume">    723.12036224 </i>
    <varray name="rec_basis" >
     <v>       0.16226275      -0.09368243       0.00000000 </v>
     <v>      -0.00000000       0.18736489       0.00000000 </v>
     <v>      -0.00000000       0.00000000       0.04548648 </v>
    </varray>
   </crystal>
   <varray name="positions" >
    <v>       0.33333300       0.33333300       0.49989067 </v>
    <v>       0.66666700       0.66666700       0.50001099 </v>
    <v>      -0.00000000      -0.00000000       0.44826952 </v>
    <v>      -0.00000000      -0.00000000       0.55190470 </v>
    <v>       0.63423824       0.00028099       0.57110099 </v>
    <v>       0.00028099       0.36548177       0.57110099 </v>
    <v>       0.36548177       0.63423824       0.57110099 </v>
    <v>       0.36549502       0.99972391       0.42887371 </v>
    <v>       0.99972391       0.63478007       0.42887371 </v>
    <v>       0.63478007       0.36549502       0.42887371 </v>
   </varray>
  </structure>
  <varray name="forces" >
   <v>       0.00000000      -0.00000000      -0.01191233 </v>
   <v>       0.00000000      -0.00000000      -0.01708282 </v>
   <v>       0.00000000      -0.00000000       0.13419062 </v>
   <v>       0.00000000      -0.00000000      -0.15261169 </v>
   <v>       0.08037373      -0.00385358      -0.01830169 </v>
   <v>      -0.04352416      -0.06767889      -0.01830169 </v>
   <v>      -0.03684957       0.07153248      -0.01830169 </v>
   <v>      -0.03199214       0.00348656       0.03410709 </v>
   <v>       0.01901552       0.02596273       0.03410709 </v>
   <v>       0.01297662      -0.02944929       0.03410709 </v>
  </varray>
  <varray name="stress" >
   <v>       0.32644537       0.00000579       0.00000000 </v>
   <v>      -0.00000583       0.32644534       0.00000000 </v>
   <v>       0.00000000      -0.00000000      -0.93915230 </v>
  </varray>
  <energy>
   <i name="e_fr_energy">    -38.89531528 </i>
   <i name="e_wo_entrp">    -38.89531528 </i>
   <i name="e_0_energy">      0.00000000 </i>
  </energy>
  <time name="totalsc">  514.83  516.87</time>
 </calculation>
 <calculation>
  <scstep>
   <time name="dav">   22.93   23.41</time>
   <time name="total">   76.29   77.40</time>
   <energy>
    <i name="alphaZ">     52.00988168 </i>
    <i name="ewald">  10194.05476458 </i>
    <i name="hartreedc"> -13802.73619305 </i>
    <i name="XCdc">     48.29233335 </i>
    <i name="pawpsdc">   2588.73329664 </i>
    <i name="pawaedc">  -2610.57066082 </i>
    <i name="eentropy">      0.00000000 </i>
    <i name="bandstr">   -502.83662904 </i>
    <i name="atom">   3994.15407262 </i>
    <i name="e_fr_energy">    -38.89913405 </i>
    <i name="e_wo_entrp">    -38.89913405 </i>
    <i name="e_0_energy">    -38.89913405 </i>
   </energy>
  </scstep>
  <scstep>
   <time name="dav">   24.77   25.00</time>
   <time name="total">   79.40   80.11</time>
   <energy>
    <i name="e_fr_energy">    -38.89930891 </i>
    <i name="e_wo_entrp">    -38.89930891 </i>
    <i name="e_0_energy">    -38.89930891 </i>
   </energy>
  </scstep>
  <scstep>
   <time name="dav">   24.52   24.55</time>
   <time name="total">   78.65   78.79</time>
   <energy>
    <i name="e_fr_energy">    -38.89936518 </i>
    <i name="e_wo_entrp">    -38.89936518 </i>
    <i name="e_0_energy">    -38.89936518 </i>
   </energy>
  </scstep>
  <scstep>
   <time name="dav">   24.99   25.11</time>
   <time name="total">   78.76   79.06</time>
   <energy>
    <i name="e_fr_energy">    -38.89949433 </i>
    <i name="e_wo_entrp">    -38.89949433 </i>
    <i name="e_0_energy">    -38.89949433 </i>
   </energy>
  </scstep>
  <scstep>
   <time name="dav">   23.61   23.87</time>
   <time name="total">   77.01   78.05</time>
   <energy>
    <i name="e_fr_energy">    -38.89843421 </i>
    <i name="e_wo_entrp">    -38.89843421 </i>
    <i name="e_0_energy">    -38.89843421 </i>
   </energy>
  </scstep>
  <scstep>
   <time name="dav">   20.89   21.06</time>
   <time name="total">   74.62   75.23</time>
   <energy>
    <i name="e_fr_energy">    -38.89866091 </i>
    <i name="e_wo_entrp">    -38.89866091 </i>
    <i name="e_0_energy">    -38.89866091 </i>
   </energy>
  </scstep>
  <scstep>
   <time name="dav">   19.76   19.97</time>
   <time name="total">   71.66   72.03</time>
   <energy>
    <i name="alphaZ">     52.00988168 </i>
    <i name="ewald">  10194.05476458 </i>
    <i name="hartreedc"> -13801.99560044 </i>
    <i name="XCdc">     48.28569809 </i>
    <i name="pawpsdc">   2588.88411579 </i>
    <i name="pawaedc">  -2610.72070889 </i>
    <i name="eentropy">      0.00000000 </i>
    <i name="bandstr">   -503.57088825 </i>
    <i name="atom">   3994.15407262 </i>
    <i name="e_fr_energy">    -38.89866482 </i>
    <i name="e_wo_entrp">    -38.89866482 </i>
    <i name="e_0_energy">    -38.89866482 </i>
   </energy>
  </scstep>
  <structure>
   <crystal>
    <varray name="basis" >
     <v>       6.16859758       0.00000026       0.00000000 </v>
     <v>       3.08429822       5.34216209      -0.00000000 </v>
     <v>      -0.00000000      -0.00000000      21.94446248 </v>
    </varray>
    <i name="volume">    723.15007768 </i>
    <varray name="rec_basis" >
     <v>       0.16211141      -0.09359505       0.00000000 </v>
     <v>      -0.00000001       0.18719013       0.00000000 </v>
     <v>      -0.00000000       0.00000000       0.04556958 </v>
    </varray>
   </crystal>
   <varray name="positions" >
    <v>       0.33333300       0.33333300       0.49985831 </v>
    <v>       0.66666700       0.66666700       0.49996670 </v>
    <v>      -0.00000000      -0.00000000       0.44845371 </v>
    <v>      -0.00000000      -0.00000000       0.55172109 </v>
    <v>       0.63542627       0.00021878       0.57102365 </v>
    <v>       0.00021878       0.36435595       0.57102365 </v>
    <v>       0.36435595       0.63542627       0.57102365 </v>
    <v>       0.36494290       0.99978388       0.42897642 </v>
    <v>       0.99978388       0.63527222       0.42897642 </v>
    <v>       0.63527222       0.36494290       0.42897642 </v>
   </varray>
  </structure>
  <varray name="forces" >
   <v>       0.00000000       0.00000000      -0.00233054 </v>
   <v>       0.00000000       0.00000000      -0.00849787 </v>
   <v>       0.00000000       0.00000000       0.03519392 </v>
   <v>       0.00000000       0.00000000      -0.07952991 </v>
   <v>       0.03023107      -0.00258478       0.00630874 </v>
   <v>      -0.01735402      -0.02488848       0.00630874 </v>
   <v>      -0.01287705       0.02747326       0.00630874 </v>
   <v>      -0.00730514       0.00385453       0.01207940 </v>
   <v>       0.00699069       0.00439917       0.01207940 </v>
   <v>       0.00031444      -0.00825370       0.01207940 </v>
  </varray>
  <varray name="stress" >
   <v>       0.19529053       0.00000350      -0.00000000 </v>
   <v>      -0.00000352       0.19529051       0.00000000 </v>
   <v>       0.00000000       0.00000000      -0.44936139 </v>
  </varray>
  <energy>
   <i name="e_fr_energy">    -38.89866482 </i>
   <i name="e_wo_entrp">    -38.89866482 </i>
   <i name="e_0_energy">      0.00000000 </i>
  </energy>
  <time name="totalsc">  671.66  676.41</time>
 </calculation>
 <calculation>
  <scstep>
   <time name="dav">   23.40   23.56</time>
   <time name="total">   77.30   77.59</time>
   <energy>
    <i name="alphaZ">     52.00866431 </i>
    <i name="ewald">  10167.55801768 </i>
    <i name="hartreedc"> -13776.75852017 </i>
    <i name="XCdc">     48.31855959 </i>
    <i name="pawpsdc">   2588.92085231 </i>
    <i name="pawaedc">  -2610.75665372 </i>
    <i name="eentropy">      0.00000000 </i>
    <i name="bandstr">   -502.34448125 </i>
    <i name="atom">   3994.15407262 </i>
    <i name="e_fr_energy">    -38.89948862 </i>
    <i name="e_wo_entrp">    -38.89948862 </i>
    <i name="e_0_energy">    -38.89948862 </i>
   </energy>
  </scstep>
  <scstep>
   <time name="dav">   25.36   25.51</time>
   <time name="total">   79.44   79.80</time>
   <energy>
    <i name="e_fr_energy">    -38.89929578 </i>
    <i name="e_wo_entrp">    -38.89929578 </i>
    <i name="e_0_energy">    -38.89929578 </i>
   </energy>
  </scstep>
  <scstep>
   <time name="dav">   25.48   25.61</time>
   <time name="total">   79.25   79.70</time>
   <energy>
    <i name="e_fr_energy">    -38.89919147 </i>
    <i name="e_wo_entrp">    -38.89919147 </i>
    <i name="e_0_energy">    -38.89919147 </i>
   </energy>
  </scstep>
  <scstep>
   <time name="dav">   22.58   22.75</time>
   <time name="total">   76.35   76.82</time>
   <energy>
    <i name="e_fr_energy">    -38.89890523 </i>
    <i name="e_wo_entrp">    -38.89890523 </i>
    <i name="e_0_energy">    -38.89890523 </i>
   </energy>
  </scstep>
  <scstep>
   <time name="dav">   20.70   20.74</time>
   <time name="total">   72.15   72.46</time>
   <energy>
    <i name="alphaZ">     52.00866431 </i>
    <i name="ewald">  10167.55801768 </i>
    <i name="hartreedc"> -13776.16086657 </i>
    <i name="XCdc">     48.31459870 </i>
    <i name="pawpsdc">   2588.99040311 </i>
    <i name="pawaedc">  -2610.82541334 </i>
    <i name="eentropy">      0.00000000 </i>
    <i name="bandstr">   -502.93834116 </i>
    <i name="atom">   3994.15407262 </i>
    <i name="e_fr_energy">    -38.89886465 </i>
    <i name="e_wo_entrp">    -38.89886465 </i>
    <i name="e_0_energy">    -38.89886465 </i>
   </energy>
  </scstep>
  <structure>
   <crystal>
    <varray name="basis" >
     <v>       6.17224275       0.00000032       0.00000000 </v>
     <v>       3.08612076       5.34531894      -0.00000000 </v>
     <v>      -0.00000000      -0.00000000      21.91906346 </v>
    </varray>
    <i name="volume">    723.16700438 </i>
    <varray name="rec_basis" >
     <v>       0.16201567      -0.09353977       0.00000000 </v>
     <v>      -0.00000001       0.18707958       0.00000000 </v>
     <v>      -0.00000000       0.00000000       0.04562239 </v>
    </varray>
   </crystal>
   <varray name="positions" >
    <v>       0.33333300       0.33333300       0.49983777 </v>
    <v>       0.66666700       0.66666700       0.49993858 </v>
    <v>      -0.00000000      -0.00000000       0.44857061 </v>
    <v>      -0.00000000      -0.00000000       0.55160456 </v>
    <v>       0.63617823       0.00017940       0.57097456 </v>
    <v>       0.00017940       0.36364336       0.57097456 </v>
    <v>       0.36364336       0.63617823       0.57097456 </v>
    <v>       0.36459344       0.99982183       0.42904160 </v>
    <v>       0.99982183       0.63558373       0.42904160 </v>
    <v>       0.63558373       0.36459344       0.42904160 </v>
   </varray>
  </structure>
  <varray name="forces" >
   <v>      -0.00000000       0.00000000       0.00076018 </v>
   <v>       0.00000000       0.00000000      -0.00397309 </v>
   <v>       0.00000000       0.00000000      -0.03085548 </v>
   <v>       0.00000000       0.00000000      -0.03248351 </v>
   <v>      -0.00019639       0.00133313       0.02500259 </v>
   <v>       0.00125272      -0.00049648       0.02500259 </v>
   <v>      -0.00105632      -0.00083664       0.02500259 </v>
   <v>       0.00799011       0.00687424      -0.00281862 </v>
   <v>       0.00195821      -0.01035676      -0.00281862 </v>
   <v>      -0.00994832       0.00348252      -0.00281862 </v>
  </varray>
  <varray name="stress" >
   <v>       0.70880979       0.00000234       0.00000000 </v>
   <v>      -0.00000243       0.70880972      -0.00000000 </v>
   <v>       0.00000000      -0.00000000       0.35558945 </v>
  </varray>
  <energy>
   <i name="e_fr_energy">    -38.89886465 </i>
   <i name="e_wo_entrp">    -38.89886465 </i>
   <i name="e_0_energy">      0.00000000 </i>
  </energy>
  <time name="totalsc">  519.59  522.07</time>
 </calculation>
 <calculation>
  <scstep>
   <time name="dav">   25.45   25.51</time>
   <time name="total">   79.48   79.81</time>
   <energy>
    <i name="alphaZ">     51.77508401 </i>
    <i name="ewald">  10120.38908469 </i>
    <i name="hartreedc"> -13725.05873225 </i>
    <i name="XCdc">     48.07576848 </i>
    <i name="pawpsdc">   2589.11061995 </i>
    <i name="pawaedc">  -2610.95156036 </i>
    <i name="eentropy">      0.00000000 </i>
    <i name="bandstr">   -506.40539872 </i>
    <i name="atom">   3994.15407262 </i>
    <i name="e_fr_energy">    -38.91106158 </i>
    <i name="e_wo_entrp">    -38.91106158 </i>
    <i name="e_0_energy">    -38.91106158 </i>
   </energy>
  </scstep>
  <scstep>
   <time name="dav">   23.38   23.43</time>
   <time name="total">   77.53   77.65</time>
   <energy>
    <i name="e_fr_energy">    -38.95896188 </i>
    <i name="e_wo_entrp">    -38.95896188 </i>
    <i name="e_0_energy">    -38.95896188 </i>
   </energy>
  </scstep>
  <scstep>
   <time name="dav">   23.04   23.16</time>
   <time name="total">   77.00   77.20</time>
   <energy>
    <i name="e_fr_energy">    -38.89869732 </i>
    <i name="e_wo_entrp">    -38.89869732 </i>
    <i name="e_0_energy">    -38.89869732 </i>
   </energy>
  </scstep>
  <scstep>
   <time name="dav">   27.98   28.02</time>
   <time name="total">   82.08   82.24</time>
   <energy>
    <i name="e_fr_energy">    -38.89919683 </i>
    <i name="e_wo_entrp">    -38.89919683 </i>
    <i name="e_0_energy">    -38.89919683 </i>
   </energy>
  </scstep>
  <scstep>
   <time name="dav">   25.96   26.00</time>
   <time name="total">   80.02   80.17</time>
   <energy>
    <i name="e_fr_energy">    -38.89842783 </i>
    <i name="e_wo_entrp">    -38.89842783 </i>
    <i name="e_0_energy">    -38.89842783 </i>
   </energy>
  </scstep>
  <scstep>
   <time name="dav">   22.54   22.65</time>
   <time name="total">   74.21   74.47</time>
   <energy>
    <i name="alphaZ">     51.77508401 </i>
    <i name="ewald">  10120.38908469 </i>
    <i name="hartreedc"> -13728.04794541 </i>
    <i name="XCdc">     48.21174001 </i>
    <i name="pawpsdc">   2586.96179805 </i>
    <i name="pawaedc">  -2608.77604843 </i>
    <i name="eentropy">      0.00000000 </i>
    <i name="bandstr">   -503.56615360 </i>
    <i name="atom">   3994.15407262 </i>
    <i name="e_fr_energy">    -38.89836805 </i>
    <i name="e_wo_entrp">    -38.89836805 </i>
    <i name="e_0_energy">    -38.89836805 </i>
   </energy>
  </scstep>
  <structure>
   <crystal>
    <varray name="basis" >
     <v>       6.18519455       0.00000040       0.00000000 </v>
     <v>       3.09259659       5.35653555      -0.00000000 </v>
     <v>      -0.00000000      -0.00000000      21.92583545 </v>
    </varray>
    <i name="volume">    726.42953061 </i>
    <varray name="rec_basis" >
     <v>       0.16167641      -0.09334390      -0.00000000 </v>
     <v>      -0.00000001       0.18668784       0.00000000 </v>
     <v>      -0.00000000       0.00000000       0.04560830 </v>
    </varray>
   </crystal>
   <varray name="positions" >
    <v>       0.33333300       0.33333300       0.49982919 </v>
    <v>       0.66666700       0.66666700       0.49991400 </v>
    <v>      -0.00000000      -0.00000000       0.44855156 </v>
    <v>      -0.00000000      -0.00000000       0.55146164 </v>
    <v>       0.63655439       0.00017324       0.57101339 </v>
    <v>       0.00017324       0.36327337       0.57101339 </v>
    <v>       0.36327337       0.63655439       0.57101339 </v>
    <v>       0.36445111       0.99991343       0.42906781 </v>
    <v>       0.99991343       0.63563446       0.42906781 </v>
    <v>       0.63563446       0.36445111       0.42906781 </v>
   </varray>
  </structure>
  <varray name="forces" >
   <v>      -0.00000000      -0.00000000       0.00955218 </v>
   <v>      -0.00000000      -0.00000000       0.00422719 </v>
   <v>      -0.00000000       0.00000000      -0.05876139 </v>
   <v>      -0.00000000      -0.00000000       0.00434652 </v>
   <v>       0.01298950      -0.00183411      -0.00538130 </v>
   <v>      -0.00808314      -0.01033218      -0.00538130 </v>
   <v>      -0.00490637       0.01216630      -0.00538130 </v>
   <v>      -0.01153380       0.00309102       0.01892647 </v>
   <v>       0.00844380       0.00844305       0.01892647 </v>
   <v>       0.00308999      -0.01153407       0.01892647 </v>
  </varray>
  <varray name="stress" >
   <v>      -0.65584863       0.00000320      -0.00000000 </v>
   <v>      -0.00000312      -0.65584857      -0.00000000 </v>
   <v>       0.00000000       0.00000000       0.17463381 </v>
  </varray>
  <energy>
   <i name="e_fr_energy">    -38.89836805 </i>
   <i name="e_wo_entrp">    -38.89836805 </i>
   <i name="e_0_energy">      0.00000000 </i>
  </energy>
  <time name="totalsc">  605.28  607.42</time>
 </calculation>
 <calculation>
  <scstep>
   <time name="dav">   24.59   25.17</time>
   <time name="total">   77.56   79.45</time>
   <energy>
    <i name="alphaZ">     51.87051724 </i>
    <i name="ewald">  10139.66140530 </i>
    <i name="hartreedc"> -13748.93191403 </i>
    <i name="XCdc">     48.30812632 </i>
    <i name="pawpsdc">   2586.65717154 </i>
    <i name="pawaedc">  -2608.45173509 </i>
    <i name="eentropy">      0.00000000 </i>
    <i name="bandstr">   -502.16878081 </i>
    <i name="atom">   3994.15407262 </i>
    <i name="e_fr_energy">    -38.90113690 </i>
    <i name="e_wo_entrp">    -38.90113690 </i>
    <i name="e_0_energy">    -38.90113690 </i>
   </energy>
  </scstep>
  <scstep>
   <time name="dav">   22.86   23.26</time>
   <time name="total">   75.84   77.44</time>
   <energy>
    <i name="e_fr_energy">    -38.90919714 </i>
    <i name="e_wo_entrp">    -38.90919714 </i>
    <i name="e_0_energy">    -38.90919714 </i>
   </energy>
  </scstep>
  <scstep>
   <time name="dav">   22.87   23.13</time>
   <time name="total">   76.68   77.20</time>
   <energy>
    <i name="e_fr_energy">    -38.89876353 </i>
    <i name="e_wo_entrp">    -38.89876353 </i>
    <i name="e_0_energy">    -38.89876353 </i>
   </energy>
  </scstep>
  <scstep>
   <time name="dav">   28.88   29.44</time>
   <time name="total">   82.61   83.55</time>
   <energy>
    <i name="e_fr_energy">    -38.89969082 </i>
    <i name="e_wo_entrp">    -38.89969082 </i>
    <i name="e_0_energy">    -38.89969082 </i>
   </energy>
  </scstep>
  <scstep>
   <time name="dav">   24.02   24.69</time>
   <time name="total">   77.66   78.89</time>
   <energy>
    <i name="e_fr_energy">    -38.89900134 </i>
    <i name="e_wo_entrp">    -38.89900134 </i>
    <i name="e_0_energy">    -38.89900134 </i>
   </energy>
  </scstep>
  <scstep>
   <time name="dav">   20.56   20.63</time>
   <time name="total">   72.33   72.47</time>
   <energy>
    <i name="alphaZ">     51.87051724 </i>
    <i name="ewald">  10139.66140530 </i>
    <i name="hartreedc"> -13747.59425488 </i>
    <i name="XCdc">     48.25123562 </i>
    <i name="pawpsdc">   2587.26825602 </i>
    <i name="pawaedc">  -2609.06233292 </i>
    <i name="eentropy">      0.00000000 </i>
    <i name="bandstr">   -503.44799273 </i>
    <i name="atom">   3994.15407262 </i>
    <i name="e_fr_energy">    -38.89909374 </i>
    <i name="e_wo_entrp">    -38.89909374 </i>
    <i name="e_0_energy">    -38.89909374 </i>
   </energy>
  </scstep>
  <structure>
   <crystal>
    <varray name="basis" >
     <v>       6.17989274       0.00000037       0.00000000 </v>
     <v>       3.08994571       5.35194404      -0.00000000 </v>
     <v>      -0.00000000      -0.00000000      21.92306334 </v>
    </varray>
    <i name="volume">    725.09301958 </i>
    <varray name="rec_basis" >
     <v>       0.16181511      -0.09342398      -0.00000000 </v>
     <v>      -0.00000001       0.18684800       0.00000000 </v>
     <v>      -0.00000000       0.00000000       0.04561406 </v>
    </varray>
   </crystal>
   <varray name="positions" >
[...]
        <r>  0.0006  0.0078  0.0181  0.0036  0.0000  0.0000  0.0001  0.0000  0.0001 </r>
        <r>  0.0003  0.0041  0.0143  0.0070  0.0005  0.0000  0.0001  0.0002  0.0000 </r>
        <r>  0.0007  0.0042  0.0071  0.0015  0.0001  0.0000  0.0001  0.0001  0.0000 </r>
       </set>
       <set comment="band 30">
        <r>  0.0006  0.0024  0.0016  0.0024  0.0231  0.0008  0.0046  0.0054  0.0489 </r>
        <r>  0.0001  0.0009  0.0010  0.0013  0.0476  0.0164  0.4210  0.0317  0.1042 </r>
        <r>  0.0000  0.0012  0.0014  0.0029  0.0000  0.0000  0.0000  0.0000  0.0000 </r>
        <r>  0.0001  0.0019  0.0046  0.0000  0.0000  0.0000  0.0000  0.0000  0.0000 </r>
        <r>  0.0000  0.0017  0.0159  0.0005  0.0002  0.0000  0.0000  0.0000  0.0001 </r>
        <r>  0.0010  0.0008  0.0093  0.0007  0.0002  0.0000  0.0002  0.0002  0.0000 </r>
        <r>  0.0002  0.0072  0.0116  0.0082  0.0001  0.0000  0.0001  0.0001  0.0002 </r>
        <r>  0.0001  0.0090  0.0166  0.0009  0.0001  0.0001  0.0002  0.0000  0.0001 </r>
        <r>  0.0013  0.0039  0.0129  0.0010  0.0001  0.0001  0.0003  0.0000  0.0001 </r>
        <r>  0.0000  0.0002  0.0219  0.0008  0.0001  0.0000  0.0001  0.0000  0.0001 </r>
       </set>
       <set comment="band 31">
        <r>  0.0001  0.0077  0.0008  0.0106  0.0451  0.0020  0.0142  0.0038  0.0481 </r>
        <r>  0.0006  0.0053  0.0003  0.0065  0.0460  0.0027  0.1909  0.0165  0.1052 </r>
        <r>  0.0001  0.0006  0.0002  0.0005  0.0000  0.0000  0.0000  0.0000  0.0000 </r>
        <r>  0.0004  0.0003  0.0003  0.0002  0.0000  0.0000  0.0000  0.0000  0.0000 </r>
        <r>  0.0000  0.0411  0.0096  0.0003  0.0003  0.0001  0.0001  0.0000  0.0000 </r>
        <r>  0.0001  0.0152  0.0007  0.0313  0.0001  0.0000  0.0000  0.0002  0.0001 </r>
        <r>  0.0000  0.0080  0.0046  0.0343  0.0001  0.0000  0.0000  0.0001  0.0001 </r>
        <r>  0.0000  0.0401  0.0050  0.0001  0.0002  0.0002  0.0001  0.0000  0.0000 </r>
        <r>  0.0001  0.0064  0.0009  0.0299  0.0000  0.0001  0.0000  0.0002  0.0001 </r>
        <r>  0.0000  0.0109  0.0145  0.0283  0.0001  0.0001  0.0001  0.0001  0.0002 </r>
       </set>
       <set comment="band 32">
        <r>  0.0001  0.0000  0.0000  0.0003  0.0242  0.0575  0.0000  0.1712  0.0455 </r>
        <r>  0.0001  0.0005  0.0004  0.0004  0.0307  0.0184  0.0161  0.0169  0.0393 </r>
        <r>  0.0007  0.0002  0.0103  0.0022  0.0000  0.0000  0.0000  0.0000  0.0000 </r>
        <r>  0.0035  0.0020  0.0068  0.0003  0.0000  0.0000  0.0000  0.0000  0.0000 </r>
        <r>  0.0045  0.0201  0.0337  0.0082  0.0002  0.0003  0.0000  0.0005  0.0001 </r>
        <r>  0.0051  0.0010  0.0421  0.0031  0.0002  0.0003  0.0000  0.0004  0.0000 </r>
        <r>  0.0004  0.0123  0.0007  0.0055  0.0000  0.0000  0.0000  0.0005  0.0001 </r>
        <r>  0.0003  0.0057  0.0005  0.0077  0.0001  0.0002  0.0000  0.0004  0.0000 </r>
        <r>  0.0053  0.0131  0.0370  0.0012  0.0000  0.0006  0.0000  0.0002  0.0002 </r>
        <r>  0.0041  0.0032  0.0314  0.0274  0.0000  0.0003  0.0000  0.0006  0.0002 </r>
       </set>
       <set comment="band 33">
        <r>  0.0003  0.0003  0.0003  0.0004  0.0727  0.1146  0.0010  0.0390  0.0300 </r>
        <r>  0.0004  0.0003  0.0010  0.0001  0.0158  0.0290  0.0171  0.0441  0.0424 </r>
        <r>  0.0010  0.0017  0.0053  0.0025  0.0000  0.0000  0.0000  0.0000  0.0000 </r>
        <r>  0.0043  0.0005  0.0026  0.0038  0.0000  0.0000  0.0000  0.0000  0.0000 </r>
        <r>  0.0001  0.0051  0.0101  0.0042  0.0004  0.0001  0.0000  0.0003  0.0002 </r>
        <r>  0.0016  0.0040  0.0105  0.0110  0.0000  0.0002  0.0000  0.0005  0.0007 </r>
        <r>  0.0067  0.0012  0.0574  0.0324  0.0000  0.0004  0.0000  0.0003  0.0004 </r>
        <r>  0.0059  0.0314  0.0497  0.0071  0.0004  0.0001  0.0000  0.0006  0.0000 </r>
        <r>  0.0010  0.0085  0.0073  0.0032  0.0003  0.0004  0.0000  0.0004  0.0005 </r>
        <r>  0.0003  0.0049  0.0098  0.0128  0.0001  0.0003  0.0000  0.0002  0.0005 </r>
       </set>
       <set comment="band 34">
        <r>  0.0002  0.0002  0.0009  0.0004  0.0149  0.0042  0.0109  0.0072  0.0074 </r>
        <r>  0.0001  0.0002  0.0000  0.0001  0.1032  0.1658  0.0022  0.1196  0.0394 </r>
        <r>  0.0023  0.0013  0.0001  0.0011  0.0000  0.0000  0.0000  0.0000  0.0000 </r>
        <r>  0.0078  0.0011  0.0013  0.0019  0.0000  0.0000  0.0000  0.0000  0.0000 </r>
        <r>  0.0053  0.0170  0.0349  0.0132  0.0002  0.0006  0.0000  0.0001  0.0002 </r>
        <r>  0.0013  0.0190  0.0135  0.0020  0.0005  0.0003  0.0000  0.0001  0.0001 </r>
        <r>  0.0021  0.0078  0.0199  0.0042  0.0005  0.0002  0.0000  0.0004  0.0003 </r>
        <r>  0.0020  0.0102  0.0234  0.0029  0.0002  0.0003  0.0000  0.0002  0.0003 </r>
        <r>  0.0014  0.0034  0.0147  0.0121  0.0001  0.0000  0.0000  0.0003  0.0002 </r>
        <r>  0.0041  0.0164  0.0308  0.0068  0.0002  0.0005  0.0000  0.0001  0.0001 </r>
       </set>
       <set comment="band 35">
        <r>  0.0007  0.0003  0.0004  0.0005  0.0015  0.0445  0.0001  0.0518  0.0036 </r>
        <r>  0.0006  0.0007  0.0004  0.0001  0.0249  0.0962  0.0002  0.1164  0.0268 </r>
        <r>  0.0001  0.0002  0.0007  0.0009  0.0000  0.0000  0.0000  0.0000  0.0000 </r>
        <r>  0.0029  0.0005  0.0022  0.0015  0.0000  0.0000  0.0000  0.0000  0.0000 </r>
        <r>  0.0014  0.0546  0.0019  0.0071  0.0005  0.0002  0.0000  0.0000  0.0003 </r>
        <r>  0.0008  0.0093  0.0014  0.0429  0.0005  0.0004  0.0000  0.0005  0.0005 </r>
        <r>  0.0020  0.0149  0.0030  0.0338  0.0001  0.0000  0.0000  0.0004  0.0006 </r>
        <r>  0.0017  0.0657  0.0048  0.0007  0.0006  0.0002  0.0000  0.0002  0.0001 </r>
        <r>  0.0001  0.0167  0.0002  0.0447  0.0002  0.0001  0.0000  0.0006  0.0006 </r>
        <r>  0.0007  0.0096  0.0005  0.0538  0.0000  0.0001  0.0000  0.0001  0.0006 </r>
       </set>
       <set comment="band 36">
        <r>  0.0001  0.0016  0.0002  0.0008  0.0004  0.0180  0.0004  0.0006  0.0081 </r>
        <r>  0.0001  0.0006  0.0002  0.0016  0.0057  0.0117  0.0003  0.0537  0.0075 </r>
        <r>  0.0108  0.0004  0.0021  0.0002  0.0000  0.0000  0.0000  0.0000  0.0000 </r>
        <r>  0.0784  0.0027  0.0485  0.0010  0.0000  0.0000  0.0000  0.0000  0.0000 </r>
        <r>  0.0030  0.0036  0.0038  0.0733  0.0002  0.0000  0.0008  0.0001  0.0047 </r>
        <r>  0.0051  0.0721  0.0044  0.0189  0.0033  0.0002  0.0005  0.0001  0.0012 </r>
        <r>  0.0029  0.0393  0.0048  0.0545  0.0040  0.0001  0.0008  0.0000  0.0009 </r>
        <r>  0.0015  0.0040  0.0120  0.0033  0.0000  0.0000  0.0000  0.0001  0.0004 </r>
        <r>  0.0028  0.0096  0.0074  0.0073  0.0005  0.0002  0.0000  0.0002  0.0004 </r>
        <r>  0.0027  0.0002  0.0162  0.0076  0.0003  0.0001  0.0000  0.0000  0.0000 </r>
       </set>
       <set comment="band 37">
        <r>  0.0265  0.0006  0.0024  0.0011  0.0007  0.0003  0.0021  0.0022  0.0026 </r>
        <r>  0.0254  0.0003  0.0024  0.0014  0.0036  0.0026  0.0025  0.0008  0.0006 </r>
        <r>  0.0060  0.0080  0.0011  0.0026  0.0000  0.0000  0.0000  0.0000  0.0000 </r>
        <r>  0.0007  0.0904  0.0002  0.0305  0.0000  0.0000  0.0000  0.0000  0.0000 </r>
        <r>  0.0035  0.0036  0.0018  0.0145  0.0098  0.0009  0.0001  0.0007  0.0019 </r>
        <r>  0.0215  0.0712  0.0059  0.0234  0.0036  0.0022  0.0015  0.0007  0.0012 </r>
        <r>  0.0033  0.0067  0.0017  0.0112  0.0061  0.0006  0.0001  0.0010  0.0057 </r>
        <r>  0.0002  0.0009  0.0017  0.0004  0.0009  0.0012  0.0002  0.0005  0.0004 </r>
        <r>  0.0039  0.0199  0.0010  0.0067  0.0008  0.0014  0.0002  0.0005  0.0003 </r>
        <r>  0.0002  0.0001  0.0017  0.0011  0.0001  0.0006  0.0002  0.0011  0.0012 </r>
       </set>
       <set comment="band 38">
        <r>  0.0023  0.0004  0.0004  0.0020  0.0108  0.0088  0.0004  0.0066  0.0028 </r>
        <r>  0.0018  0.0021  0.0004  0.0005  0.0064  0.0142  0.0004  0.0059  0.0096 </r>
        <r>  0.1185  0.0022  0.0455  0.0009  0.0000  0.0000  0.0000  0.0000  0.0000 </r>
        <r>  0.0002  0.0019  0.0171  0.0010  0.0000  0.0000  0.0000  0.0000  0.0000 </r>
        <r>  0.0002  0.0000  0.0099  0.0006  0.0003  0.0001  0.0005  0.0005  0.0000 </r>
        <r>  0.0019  0.0037  0.0025  0.0012  0.0002  0.0003  0.0001  0.0001  0.0001 </r>
        <r>  0.0001  0.0013  0.0093  0.0002  0.0002  0.0004  0.0005  0.0002  0.0002 </r>
        <r>  0.0086  0.0037  0.0016  0.0773  0.0009  0.0000  0.0016  0.0003  0.0081 </r>
        <r>  0.0035  0.0399  0.0030  0.0136  0.0068  0.0006  0.0006  0.0002  0.0022 </r>
        <r>  0.0085  0.0424  0.0016  0.0353  0.0087  0.0002  0.0017  0.0002  0.0003 </r>
       </set>
       <set comment="band 39">
        <r>  0.0233  0.0020  0.0020  0.0022  0.0046  0.0010  0.0014  0.0039  0.0008 </r>
        <r>  0.0232  0.0030  0.0021  0.0012  0.0036  0.0080  0.0017  0.0000  0.0033 </r>
        <r>  0.0000  0.0026  0.0000  0.0080  0.0000  0.0000  0.0000  0.0000  0.0000 </r>
        <r>  0.0000  0.0263  0.0000  0.0765  0.0000  0.0000  0.0000  0.0000  0.0000 </r>
        <r>  0.0104  0.0222  0.0015  0.0697  0.0030  0.0003  0.0007  0.0023  0.0034 </r>
        <r>  0.0000  0.0059  0.0000  0.0195  0.0030  0.0001  0.0000  0.0004  0.0087 </r>
        <r>  0.0106  0.0905  0.0020  0.0000  0.0018  0.0020  0.0007  0.0005  0.0044 </r>
        <r>  0.0020  0.0061  0.0009  0.0105  0.0005  0.0004  0.0003  0.0015  0.0003 </r>
        <r>  0.0000  0.0002  0.0000  0.0003  0.0003  0.0003  0.0000  0.0008  0.0012 </r>
        <r>  0.0020  0.0177  0.0007  0.0007  0.0005  0.0015  0.0003  0.0005  0.0005 </r>
       </set>
       <set comment="band 40">
        <r>  0.0346  0.0016  0.0036  0.0004  0.0014  0.0009  0.0030  0.0009  0.0038 </r>
        <r>  0.0342  0.0001  0.0034  0.0018  0.0017  0.0009  0.0035  0.0012  0.0040 </r>
        <r>  0.0028  0.0528  0.0078  0.0172  0.0000  0.0000  0.0000  0.0000  0.0000 </r>
        <r>  0.0025  0.0157  0.0058  0.0059  0.0000  0.0000  0.0000  0.0000  0.0000 </r>
        <r>  0.0001  0.0048  0.0038  0.0012  0.0038  0.0018  0.0007  0.0007  0.0005 </r>
        <r>  0.0064  0.0056  0.0017  0.0016  0.0004  0.0020  0.0009  0.0007  0.0002 </r>
        <r>  0.0001  0.0000  0.0039  0.0059  0.0024  0.0000  0.0007  0.0025  0.0020 </r>
        <r>  0.0022  0.0009  0.0044  0.0021  0.0144  0.0005  0.0004  0.0013  0.0018 </r>
        <r>  0.0253  0.0250  0.0037  0.0085  0.0040  0.0008  0.0009  0.0003  0.0013 </r>
        <r>  0.0025  0.0009  0.0045  0.0022  0.0071  0.0017  0.0004  0.0000  0.0091 </r>
       </set>
       <set comment="band 41">
        <r>  0.0021  0.0034  0.0002  0.0027  0.0037  0.0020  0.0005  0.0034  0.0040 </r>
        <r>  0.0019  0.0049  0.0002  0.0011  0.0050  0.0035  0.0005  0.0044  0.0048 </r>
        <r>  0.0355  0.0063  0.0698  0.0018  0.0000  0.0000  0.0000  0.0000  0.0000 </r>
        <r>  0.0246  0.0017  0.0444  0.0004  0.0000  0.0000  0.0000  0.0000  0.0000 </r>
        <r>  0.0007  0.0004  0.0077  0.0010  0.0004  0.0008  0.0007  0.0055  0.0001 </r>
        <r>  0.0004  0.0018  0.0254  0.0007  0.0002  0.0030  0.0010  0.0011  0.0000 </r>
        <r>  0.0008  0.0012  0.0076  0.0001  0.0001  0.0061  0.0007  0.0001  0.0004 </r>
        <r>  0.0006  0.0002  0.0134  0.0023  0.0014  0.0003  0.0004  0.0066  0.0004 </r>
        <r>  0.0020  0.0086  0.0343  0.0031  0.0008  0.0040  0.0009  0.0013  0.0002 </r>
        <r>  0.0008  0.0020  0.0130  0.0002  0.0003  0.0059  0.0003  0.0010  0.0014 </r>
       </set>
       <set comment="band 42">
        <r>  0.0231  0.0022  0.0021  0.0001  0.0012  0.0043  0.0020  0.0025  0.0035 </r>
        <r>  0.0217  0.0007  0.0019  0.0016  0.0028  0.0030  0.0024  0.0052  0.0020 </r>
        <r>  0.0000  0.0180  0.0000  0.0567  0.0000  0.0000  0.0000  0.0000  0.0000 </r>
        <r>  0.0000  0.0060  0.0000  0.0164  0.0000  0.0000  0.0000  0.0000  0.0000 </r>
        <r>  0.0026  0.0037  0.0025  0.0041  0.0015  0.0006  0.0020  0.0010  0.0011 </r>
        <r>  0.0000  0.0036  0.0000  0.0107  0.0013  0.0006  0.0000  0.0016  0.0038 </r>
        <r>  0.0026  0.0071  0.0027  0.0007  0.0004  0.0011  0.0020  0.0005  0.0023 </r>
        <r>  0.0132  0.0138  0.0025  0.0264  0.0047  0.0000  0.0012  0.0005  0.0049 </r>
        <r>  0.0000  0.0050  0.0000  0.0142  0.0048  0.0000  0.0000  0.0000  0.0149 </r>
        <r>  0.0128  0.0402  0.0026  0.0005  0.0027  0.0004  0.0012  0.0001  0.0071 </r>
       </set>
       <set comment="band 43">
        <r>  0.0373  0.0007  0.0022  0.0034  0.0017  0.0005  0.0048  0.0007  0.0017 </r>
        <r>  0.0341  0.0035  0.0022  0.0005  0.0011  0.0014  0.0047  0.0001  0.0029 </r>
        <r>  0.0011  0.0111  0.0015  0.0033  0.0000  0.0000  0.0000  0.0000  0.0000 </r>
        <r>  0.0007  0.0127  0.0039  0.0047  0.0000  0.0000  0.0000  0.0000  0.0000 </r>
        <r>  0.0003  0.0083  0.0004  0.0041  0.0005  0.0076  0.0002  0.0011  0.0001 </r>
        <r>  0.0034  0.0043  0.0128  0.0013  0.0009  0.0013  0.0090  0.0005  0.0004 </r>
        <r>  0.0002  0.0007  0.0004  0.0114  0.0003  0.0043  0.0002  0.0044  0.0003 </r>
        <r>  0.0000  0.0096  0.0012  0.0016  0.0012  0.0093  0.0003  0.0006  0.0008 </r>
        <r>  0.0045  0.0012  0.0084  0.0005  0.0002  0.0041  0.0025  0.0012  0.0000 </r>
        <r>  0.0000  0.0002  0.0013  0.0110  0.0017  0.0045  0.0004  0.0054  0.0004 </r>
       </set>
       <set comment="band 44">
        <r>  0.0195  0.0035  0.0014  0.0049  0.0000  0.0008  0.0009  0.0000  0.0009 </r>
        <r>  0.0104  0.0004  0.0013  0.0082  0.0016  0.0001  0.0005  0.0007  0.0004 </r>
        <r>  0.0051  0.0080  0.0028  0.0030  0.0000  0.0000  0.0000  0.0000  0.0000 </r>
        <r>  0.0007  0.0029  0.0016  0.0017  0.0000  0.0000  0.0000  0.0000  0.0000 </r>
        <r>  0.0022  0.0028  0.0054  0.0005  0.0008  0.0035  0.0020  0.0001  0.0006 </r>
        <r>  0.0022  0.0078  0.0070  0.0010  0.0006  0.0004  0.0004  0.0004  0.0002 </r>
        <r>  0.0006  0.0022  0.0022  0.0019  0.0001  0.0009  0.0006  0.0040  0.0014 </r>
        <r>  0.0006  0.0027  0.0031  0.0009  0.0015  0.0044  0.0012  0.0007  0.0000 </r>
        <r>  0.0008  0.0102  0.0132  0.0033  0.0004  0.0001  0.0043  0.0001  0.0003 </r>
        <r>  0.0003  0.0025  0.0012  0.0020  0.0003  0.0006  0.0010  0.0058  0.0016 </r>
       </set>
       <set comment="band 45">
        <r>  0.0122  0.0031  0.0018  0.0011  0.0016  0.0002  0.0013  0.0002  0.0024 </r>
        <r>  0.0183  0.0033  0.0034  0.0003  0.0009  0.0004  0.0018  0.0003  0.0016 </r>
        <r>  0.0001  0.0009  0.0001  0.0009  0.0000  0.0000  0.0000  0.0000  0.0000 </r>
        <r>  0.0000  0.0022  0.0000  0.0033  0.0000  0.0000  0.0000  0.0000  0.0000 </r>
        <r>  0.0042  0.0028  0.0076  0.0023  0.0003  0.0017  0.0034  0.0011  0.0000 </r>
        <r>  0.0000  0.0012  0.0001  0.0085  0.0000  0.0018  0.0000  0.0038  0.0001 </r>
        <r>  0.0056  0.0037  0.0095  0.0005  0.0001  0.0003  0.0049  0.0016  0.0001 </r>
        <r>  0.0019  0.0019  0.0044  0.0004  0.0007  0.0023  0.0002  0.0017  0.0003 </r>
        <r>  0.0000  0.0019  0.0003  0.0062  0.0003  0.0012  0.0002  0.0043  0.0007 </r>
        <r>  0.0023  0.0003  0.0074  0.0013  0.0002  0.0008  0.0006  0.0012  0.0001 </r>
       </set>
       <set comment="band 46">
        <r>  0.0101  0.0008  0.0178  0.0016  0.0009  0.0000  0.0002  0.0000  0.0024 </r>
        <r>  0.0115  0.0008  0.0154  0.0009  0.0013  0.0001  0.0002  0.0001  0.0032 </r>
        <r>  0.0000  0.0068  0.0057  0.0021  0.0000  0.0000  0.0000  0.0000  0.0000 </r>
        <r>  0.0004  0.0066  0.0030  0.0026  0.0000  0.0000  0.0000  0.0000  0.0000 </r>
        <r>  0.0003  0.0015  0.0048  0.0008  0.0039  0.0046  0.0002  0.0004  0.0013 </r>
        <r>  0.0002  0.0010  0.0056  0.0003  0.0047  0.0072  0.0027  0.0029  0.0018 </r>
        <r>  0.0005  0.0004  0.0065  0.0021  0.0013  0.0003  0.0001  0.0040  0.0037 </r>
        <r>  0.0007  0.0018  0.0048  0.0002  0.0040  0.0033  0.0001  0.0003  0.0011 </r>
        <r>  0.0019  0.0002  0.0047  0.0001  0.0036  0.0056  0.0057  0.0017  0.0010 </r>
        <r>  0.0006  0.0002  0.0038  0.0016  0.0014  0.0002  0.0001  0.0039  0.0042 </r>
       </set>
       <set comment="band 47">
        <r>  0.0011  0.0020  0.0018  0.0008  0.0004  0.0001  0.0022  0.0000  0.0007 </r>
        <r>  0.0022  0.0013  0.0021  0.0020  0.0007  0.0000  0.0025  0.0001  0.0005 </r>
        <r>  0.0000  0.0019  0.0000  0.0075  0.0000  0.0000  0.0000  0.0000  0.0000 </r>
        <r>  0.0000  0.0013  0.0000  0.0029  0.0000  0.0000  0.0000  0.0000  0.0000 </r>
        <r>  0.0005  0.0001  0.0008  0.0042  0.0000  0.0002  0.0009  0.0005  0.0004 </r>
        <r>  0.0000  0.0002  0.0000  0.0006  0.0002  0.0003  0.0000  0.0006  0.0004 </r>
        <r>  0.0006  0.0032  0.0006  0.0013  0.0002  0.0001  0.0009  0.0009  0.0004 </r>
        <r>  0.0019  0.0023  0.0056  0.0056  0.0006  0.0003  0.0058  0.0003  0.0008 </r>
        <r>  0.0000  0.0009  0.0000  0.0020  0.0007  0.0006  0.0000  0.0014  0.0024 </r>
        <r>  0.0019  0.0079  0.0054  0.0002  0.0002  0.0001  0.0056  0.0006  0.0011 </r>
       </set>
       <set comment="band 48">
        <r>  0.0013  0.0018  0.0073  0.0000  0.0006  0.0003  0.0003  0.0002  0.0001 </r>
        <r>  0.0009  0.0004  0.0072  0.0015  0.0000  0.0004  0.0004  0.0001  0.0007 </r>
        <r>  0.0009  0.0001  0.0132  0.0000  0.0000  0.0000  0.0000  0.0000  0.0000 </r>
        <r>  0.0023  0.0043  0.0088  0.0013  0.0000  0.0000  0.0000  0.0000  0.0000 </r>
        <r>  0.0004  0.0008  0.0003  0.0008  0.0033  0.0008  0.0002  0.0026  0.0015 </r>
        <r>  0.0005  0.0020  0.0029  0.0006  0.0034  0.0011  0.0008  0.0004  0.0011 </r>
        <r>  0.0004  0.0001  0.0003  0.0016  0.0007  0.0012  0.0002  0.0021  0.0042 </r>
        <r>  0.0003  0.0003  0.0002  0.0017  0.0024  0.0006  0.0018  0.0009  0.0005 </r>
        <r>  0.0016  0.0003  0.0025  0.0001  0.0009  0.0008  0.0004  0.0004  0.0003 </r>
        <r>  0.0003  0.0014  0.0002  0.0006  0.0013  0.0003  0.0018  0.0012  0.0016 </r>
       </set>
      </set>
     </set>
    </set>
   </array>
  </projected>
 </calculation>
 <structure name="finalpos" >
  <crystal>
   <varray name="basis" >
    <v>       6.17989274       0.00000037       0.00000000 </v>
    <v>       3.08994571       5.35194404      -0.00000000 </v>
    <v>      -0.00000000      -0.00000000      21.92306334 </v>
   </varray>
   <i name="volume">    725.09301958 </i>
   <varray name="rec_basis" >
    <v>       0.16181511      -0.09342398      -0.00000000 </v>
    <v>      -0.00000001       0.18684800       0.00000000 </v>
    <v>      -0.00000000       0.00000000       0.04561406 </v>
   </varray>
  </crystal>
  <varray name="positions" >
   <v>       0.33333300       0.33333300       0.49983270 </v>
   <v>       0.66666700       0.66666700       0.49992406 </v>
   <v>      -0.00000000      -0.00000000       0.44855936 </v>
   <v>      -0.00000000      -0.00000000       0.55152013 </v>
   <v>       0.63640073       0.00017576       0.57099750 </v>
   <v>       0.00017576       0.36342451       0.57099750 </v>
   <v>       0.36342451       0.63640073       0.57099750 </v>
   <v>       0.36450925       0.99987601       0.42905709 </v>
   <v>       0.99987601       0.63561374       0.42905709 </v>
   <v>       0.63561374       0.36450925       0.42905709 </v>
  </varray>
  <varray name="selective"  type="logical" >
   <v type="logical" >  T  T  T </v>
   <v type="logical" >  T  T  T </v>
   <v type="logical" >  T  T  T </v>
   <v type="logical" >  T  T  T </v>
   <v type="logical" >  T  T  T </v>
   <v type="logical" >  T  T  T </v>
   <v type="logical" >  T  T  T </v>
   <v type="logical" >  T  T  T </v>
   <v type="logical" >  T  T  T </v>
   <v type="logical" >  T  T  T </v>
  </varray>
  <nose>
   <v>      -3.00000000       0.00000000       0.00010000       0.00010000 </v>
  </nose>
 </structure>
</modeling>
