unknown system                          
           1
     6.907777   -0.000000    0.000000
     3.453888    5.982310    0.000000
     0.000000    0.000000   23.444588
   Ni   Si   P    Se
   2   1   1   6
Direct configuration=     1
   0.33333300  0.33333300  0.49992500
   0.66666700  0.66666700  0.50007500
   0.00000000  0.00000000  0.44821600
   0.00000000  0.00000000  0.55178400
   0.62635700  0.00042000  0.57375200
   0.00042000  0.37322400  0.57375200
   0.37322400  0.62635700  0.57375200
   0.37364300  0.99958000  0.42624800
   0.99958000  0.62677600  0.42624800
   0.62677600  0.37364300  0.42624800
unknown system                          
           1
     6.105010    0.000000    0.000000
     3.052505    5.287094    0.000000
     0.000000    0.000000   21.855868
   Ni   Si   P    Se
   2   1   1   6
Direct configuration=     2
   0.33333300  0.33333300  0.49990923
   0.66666700  0.66666700  0.50002815
  -0.00000000 -0.00000000  0.44874702
  -0.00000000 -0.00000000  0.55127341
   0.63281566  0.00037379  0.57103914
   0.00037379  0.36681155  0.57103914
   0.36681155  0.63281566  0.57103914
   0.36593135  0.99962686  0.42897492
   0.99962686  0.63444079  0.42897492
   0.63444079  0.36593135  0.42897492
unknown system                          
           1
     6.167679    0.000000    0.000000
     3.083839    5.341367    0.000000
     0.000000    0.000000   21.979893
   Ni   Si   P    Se
   2   1   1   6
Direct configuration=     3
   0.33333300  0.33333300  0.49991055
   0.66666700  0.66666700  0.50003207
  -0.00000000 -0.00000000  0.44870256
  -0.00000000 -0.00000000  0.55131617
   0.63224516  0.00037787  0.57126632
   0.00037787  0.36737797  0.57126632
   0.36737797  0.63224516  0.57126632
   0.36661253  0.99962272  0.42874657
   0.99962272  0.63376375  0.42874657
   0.63376375  0.36661253  0.42874657
unknown system                          
           1
     6.158335    0.000000    0.000000
     3.079167    5.333274    0.000000
     0.000000    0.000000   21.961400
   Ni   Si   P    Se
   2   1   1   6
Direct configuration=     4
   0.33333300  0.33333300  0.49991036
   0.66666700  0.66666700  0.50003149
  -0.00000000 -0.00000000  0.44870915
  -0.00000000 -0.00000000  0.55130983
   0.63232936  0.00037727  0.57123264
   0.00037727  0.36729437  0.57123264
   0.36729437  0.63232936  0.57123264
   0.36651199  0.99962333  0.42878042
   0.99962333  0.63386368  0.42878042
   0.63386368  0.36651199  0.42878042
unknown system                          
           1
     6.161995    0.000000    0.000000
     3.080997    5.336444   -0.000000
    -0.000000   -0.000000   21.980197
   Ni   Si   P    Se
   2   1   1   6
Direct configuration=     5
   0.33333300  0.33333300  0.49989437
   0.66666700  0.66666700  0.50001484
  -0.00000000 -0.00000000  0.44835218
  -0.00000000 -0.00000000  0.55179285
   0.63387925  0.00029910  0.57112575
   0.00029910  0.36582265  0.57112575
   0.36582265  0.63387925  0.57112575
   0.36568627  0.99970500  0.42885617
   0.99970500  0.63460773  0.42885617
   0.63460773  0.36568627  0.42885617
unknown system                          
           1
     6.162844    0.000000    0.000000
     3.081421    5.337179   -0.000000
    -0.000000   -0.000000   21.984553
   Ni   Si   P    Se
   2   1   1   6
Direct configuration=     6
   0.33333300  0.33333300  0.49989067
   0.66666700  0.66666700  0.50001099
  -0.00000000 -0.00000000  0.44826952
  -0.00000000 -0.00000000  0.55190470
   0.63423824  0.00028099  0.57110099
   0.00028099  0.36548177  0.57110099
   0.36548177  0.63423824  0.57110099
   0.36549502  0.99972391  0.42887371
   0.99972391  0.63478007  0.42887371
   0.63478007  0.36549502  0.42887371
unknown system                          
           1
     6.168598    0.000000    0.000000
     3.084298    5.342162   -0.000000
    -0.000000   -0.000000   21.944462
   Ni   Si   P    Se
   2   1   1   6
Direct configuration=     7
   0.33333300  0.33333300  0.49985831
   0.66666700  0.66666700  0.49996670
  -0.00000000 -0.00000000  0.44845371
  -0.00000000 -0.00000000  0.55172109
   0.63542627  0.00021878  0.57102365
   0.00021878  0.36435595  0.57102365
   0.36435595  0.63542627  0.57102365
   0.36494290  0.99978388  0.42897642
   0.99978388  0.63527222  0.42897642
   0.63527222  0.36494290  0.42897642
unknown system                          
           1
     6.172243    0.000000    0.000000
     3.086121    5.345319   -0.000000
    -0.000000   -0.000000   21.919063
   Ni   Si   P    Se
   2   1   1   6
Direct configuration=     8
   0.33333300  0.33333300  0.49983777
   0.66666700  0.66666700  0.49993858
  -0.00000000 -0.00000000  0.44857061
  -0.00000000 -0.00000000  0.55160456
   0.63617823  0.00017940  0.57097456
   0.00017940  0.36364336  0.57097456
   0.36364336  0.63617823  0.57097456
   0.36459344  0.99982183  0.42904160
   0.99982183  0.63558373  0.42904160
   0.63558373  0.36459344  0.42904160
unknown system                          
           1
     6.185195    0.000000    0.000000
     3.092597    5.356536   -0.000000
    -0.000000   -0.000000   21.925835
   Ni   Si   P    Se
   2   1   1   6
Direct configuration=     9
   0.33333300  0.33333300  0.49982919
   0.66666700  0.66666700  0.49991400
  -0.00000000 -0.00000000  0.44855156
  -0.00000000 -0.00000000  0.55146164
   0.63655439  0.00017324  0.57101339
   0.00017324  0.36327337  0.57101339
   0.36327337  0.63655439  0.57101339
   0.36445111  0.99991343  0.42906781
   0.99991343  0.63563446  0.42906781
   0.63563446  0.36445111  0.42906781
unknown system                          
           1
     6.179893    0.000000    0.000000
     3.089946    5.351944   -0.000000
    -0.000000   -0.000000   21.923063
   Ni   Si   P    Se
   2   1   1   6
Direct configuration=    10
   0.33333300  0.33333300  0.49983270
   0.66666700  0.66666700  0.49992406
  -0.00000000 -0.00000000  0.44855936
  -0.00000000 -0.00000000  0.55152013
   0.63640073  0.00017576  0.57099750
   0.00017576  0.36342451  0.57099750
   0.36342451  0.63640073  0.57099750
   0.36450925  0.99987601  0.42905709
   0.99987601  0.63561374  0.42905709
   0.63561374  0.36450925  0.42905709
