       N       E                     dE             d eps       ncg     rms          rms(c)
DAV:   1     0.371989787673E+03    0.37199E+03   -0.19754E+04   960   0.945E+02
DAV:   2     0.281283004258E+01   -0.36918E+03   -0.35699E+03  1320   0.189E+02
DAV:   3    -0.327972353248E+02   -0.35610E+02   -0.35237E+02  1344   0.603E+01
DAV:   4    -0.338757579130E+02   -0.10785E+01   -0.10778E+01  1416   0.117E+01
DAV:   5    -0.338915649636E+02   -0.15807E-01   -0.15800E-01  1560   0.147E+00    0.160E+01
DAV:   6    -0.460048336558E+02   -0.12113E+02   -0.13573E+02  1128   0.104E+02    0.251E+01
DAV:   7    -0.321759736184E+02    0.13829E+02   -0.25316E+01  1152   0.577E+01    0.678E+00
DAV:   8    -0.324068124885E+02   -0.23084E+00   -0.74374E+00  1392   0.304E+01    0.851E+00
DAV:   9    -0.323390219332E+02    0.67791E-01   -0.54126E+00  1008   0.249E+01    0.562E+00
DAV:  10    -0.322003777570E+02    0.13864E+00   -0.94767E-01  1176   0.124E+01    0.168E+00
DAV:  11    -0.322457424993E+02   -0.45365E-01   -0.56138E-01  1560   0.833E+00    0.321E+00
DAV:  12    -0.323287716314E+02   -0.83029E-01   -0.50724E-01  1008   0.716E+00    0.113E+00
DAV:  13    -0.324062981733E+02   -0.77527E-01   -0.15189E-01  1056   0.265E+00    0.121E+00
DAV:  14    -0.324606479249E+02   -0.54350E-01   -0.63585E-02   960   0.304E+00    0.543E-01
DAV:  15    -0.324644265892E+02   -0.37787E-02   -0.15648E-02   960   0.157E+00    0.296E-01
DAV:  16    -0.324652954713E+02   -0.86888E-03   -0.50118E-03   984   0.756E-01    0.126E-01
DAV:  17    -0.324653458209E+02   -0.50350E-04   -0.82848E-04  1104   0.239E-01
   1 F= -.32465346E+02 E0= -.32465346E+02  d E =-.324653E+02  mag=     1.8056
       N       E                     dE             d eps       ncg     rms          rms(c)
DAV:   1    -0.404488099628E+02   -0.79835E+01   -0.83643E+01  1128   0.820E+01    0.292E+01
DAV:   2    -0.721903240537E+02   -0.31742E+02   -0.51165E+02   960   0.180E+02    0.329E+01
DAV:   3    -0.352921465043E+02    0.36898E+02   -0.71193E+01  1056   0.104E+02    0.126E+01
DAV:   4    -0.342358001564E+02    0.10563E+01   -0.25915E+01  1416   0.659E+01    0.135E+01
DAV:   5    -0.332622744685E+02    0.97353E+00   -0.18719E+01  1128   0.367E+01    0.623E+00
DAV:   6    -0.330367382950E+02    0.22554E+00   -0.12193E+00  1248   0.112E+01    0.492E+00
DAV:   7    -0.328740155855E+02    0.16272E+00   -0.49306E-01  1080   0.790E+00    0.257E+00
DAV:   8    -0.328288678560E+02    0.45148E-01   -0.20555E-01  1128   0.474E+00    0.976E-01
DAV:   9    -0.328401443082E+02   -0.11276E-01   -0.41340E-02  1296   0.142E+00    0.877E-01
DAV:  10    -0.328290493360E+02    0.11095E-01   -0.42050E-02  1080   0.244E+00    0.374E-01
DAV:  11    -0.328315441921E+02   -0.24949E-02   -0.75220E-03  1272   0.492E-01    0.273E-01
DAV:  12    -0.328317039624E+02   -0.15977E-03   -0.25641E-03  1080   0.530E-01    0.616E-02
DAV:  13    -0.328319427779E+02   -0.23882E-03   -0.90000E-04  1296   0.223E-01    0.561E-02
DAV:  14    -0.328323229237E+02   -0.38015E-03   -0.31018E-04  1056   0.918E-02    0.350E-02
DAV:  15    -0.328329654625E+02   -0.64254E-03   -0.95780E-04  1056   0.169E-01    0.448E-02
DAV:  16    -0.328329729443E+02   -0.74817E-05   -0.89919E-04  1128   0.864E-02
   2 F= -.32832973E+02 E0= -.32832973E+02  d E =-.367627E+00  mag=     1.1526
       N       E                     dE             d eps       ncg     rms          rms(c)
DAV:   1    -0.329296536334E+02   -0.96688E-01   -0.88614E-01  1104   0.868E+00    0.269E+00
DAV:   2    -0.334170026484E+02   -0.48735E+00   -0.32411E+00  1032   0.230E+01    0.749E+00
DAV:   3    -0.328569654118E+02    0.56004E+00   -0.24000E+00  1008   0.170E+01    0.113E+00
DAV:   4    -0.328584146213E+02   -0.14492E-02   -0.18860E-01  1248   0.372E+00    0.154E+00
DAV:   5    -0.328455915035E+02    0.12823E-01   -0.11047E-01  1056   0.294E+00    0.298E-01
DAV:   6    -0.328455331167E+02    0.58387E-04   -0.88271E-03  1128   0.574E-01    0.143E-01
DAV:   7    -0.328451357635E+02    0.39735E-03   -0.13518E-03  1152   0.255E-01    0.517E-02
DAV:   8    -0.328450594538E+02    0.76310E-04   -0.20459E-04   720   0.101E-01
   3 F= -.32845059E+02 E0= -.32845059E+02  d E =-.379714E+00  mag=     1.1554
       N       E                     dE             d eps       ncg     rms          rms(c)
DAV:   1    -0.328722012974E+02   -0.27066E-01   -0.29059E-01  1128   0.494E+00    0.157E+00
DAV:   2    -0.330448391845E+02   -0.17264E+00   -0.11494E+00  1056   0.135E+01    0.442E+00
DAV:   3    -0.328488270439E+02    0.19601E+00   -0.78281E-01  1056   0.106E+01    0.603E-01
DAV:   4    -0.328528534789E+02   -0.40264E-02   -0.77065E-02  1272   0.230E+00    0.108E+00
DAV:   5    -0.328463751837E+02    0.64783E-02   -0.50181E-02  1008   0.196E+00    0.169E-01
DAV:   6    -0.328468488492E+02   -0.47367E-03   -0.34228E-03  1032   0.350E-01    0.103E-01
DAV:   7    -0.328467188974E+02    0.12995E-03   -0.62057E-04   816   0.185E-01    0.369E-02
DAV:   8    -0.328468762306E+02   -0.15733E-03   -0.96416E-05   984   0.618E-02    0.193E-02
DAV:   9    -0.328469859349E+02   -0.10970E-03   -0.19225E-05   888   0.278E-02    0.158E-02
DAV:  10    -0.328470624143E+02   -0.76479E-04   -0.21998E-05   912   0.212E-02
   4 F= -.32847062E+02 E0= -.32847062E+02  d E =-.381717E+00  mag=     1.1984
       N       E                     dE             d eps       ncg     rms          rms(c)
DAV:   1    -0.329277965616E+02   -0.80811E-01   -0.21856E+00  1080   0.539E+00    0.107E+00
DAV:   2    -0.329908595601E+02   -0.63063E-01   -0.43806E-01  1152   0.751E+00    0.242E+00
DAV:   3    -0.329213694325E+02    0.69490E-01   -0.25539E-01  1200   0.661E+00    0.484E-01
DAV:   4    -0.329195726187E+02    0.17968E-02   -0.43467E-02  1320   0.150E+00    0.731E-01
DAV:   5    -0.329186237905E+02    0.94883E-03   -0.48977E-02  1080   0.181E+00    0.541E-01
DAV:   6    -0.329266937046E+02   -0.80699E-02   -0.13882E-02  1152   0.812E-01    0.158E-01
DAV:   7    -0.329271056516E+02   -0.41195E-03   -0.21229E-03  1104   0.311E-01    0.132E-01
DAV:   8    -0.329277778139E+02   -0.67216E-03   -0.11485E-03   960   0.221E-01    0.704E-02
DAV:   9    -0.329287118706E+02   -0.93406E-03   -0.58315E-04  1008   0.135E-01    0.624E-02
DAV:  10    -0.329295603577E+02   -0.84849E-03   -0.26545E-04   984   0.976E-02    0.627E-02
DAV:  11    -0.329291293417E+02    0.43102E-03   -0.88204E-04  1032   0.133E-01    0.129E-01
DAV:  12    -0.329294238683E+02   -0.29453E-03   -0.13468E-04   792   0.882E-02    0.146E-01
DAV:  13    -0.329289398168E+02    0.48405E-03   -0.12194E-04   792   0.702E-02    0.167E-01
DAV:  14    -0.329297804652E+02   -0.84065E-03   -0.23504E-04   840   0.119E-01    0.133E-01
DAV:  15    -0.329292128032E+02    0.56766E-03   -0.44260E-04   864   0.173E-01    0.116E-01
DAV:  16    -0.329294552860E+02   -0.24248E-03   -0.81471E-05   768   0.698E-02    0.825E-02
DAV:  17    -0.329298251429E+02   -0.36986E-03   -0.56006E-05   744   0.585E-02    0.691E-02
DAV:  18    -0.329274275726E+02    0.23976E-02   -0.14216E-03   984   0.308E-01    0.182E-01
DAV:  19    -0.329262594581E+02    0.11681E-02   -0.32447E-04   936   0.150E-01    0.285E-01
DAV:  20    -0.329259860208E+02    0.27344E-03   -0.61980E-05   912   0.663E-02    0.319E-01
DAV:  21    -0.329266430735E+02   -0.65705E-03   -0.16093E-04   816   0.995E-02    0.311E-01
DAV:  22    -0.329277513311E+02   -0.11083E-02   -0.15345E-04  1032   0.105E-01    0.268E-01
DAV:  23    -0.329286995772E+02   -0.94825E-03   -0.79112E-05   720   0.663E-02    0.212E-01
DAV:  24    -0.329298128712E+02   -0.11133E-02   -0.10127E-04   792   0.716E-02    0.142E-01
DAV:  25    -0.329297432920E+02    0.69579E-04   -0.13389E-04   936   0.757E-02
   5 F= -.32929743E+02 E0= -.32929743E+02  d E =-.826809E-01  mag=     1.0265
       N       E                     dE             d eps       ncg     rms          rms(c)
DAV:   1    -0.329409431083E+02   -0.11130E-01   -0.34995E-01  1224   0.216E+00    0.468E-01
DAV:   2    -0.329574108626E+02   -0.16468E-01   -0.73364E-02  1176   0.316E+00    0.119E+00
DAV:   3    -0.329461390251E+02    0.11272E-01   -0.34386E-02  1080   0.245E+00    0.425E-01
DAV:   4    -0.329460292335E+02    0.10979E-03   -0.25880E-03  1344   0.286E-01    0.438E-01
DAV:   5    -0.329461696209E+02   -0.14039E-03   -0.26353E-04   744   0.158E-01    0.457E-01
DAV:   6    -0.329443509483E+02    0.18187E-02   -0.30661E-03  1152   0.466E-01    0.445E-01
DAV:   7    -0.329445560639E+02   -0.20512E-03   -0.48090E-04  1032   0.195E-01    0.508E-01
DAV:   8    -0.329433726537E+02    0.11834E-02   -0.18838E-03  1056   0.435E-01    0.429E-01
DAV:   9    -0.329417515347E+02    0.16211E-02   -0.32734E-03  1296   0.325E-01    0.385E-01
DAV:  10    -0.329351687380E+02    0.65828E-02   -0.16622E-03  1224   0.348E-01    0.345E-01
DAV:  11    -0.329351146234E+02    0.54115E-04   -0.11527E-03  1368   0.291E-01    0.182E-01
DAV:  12    -0.329359595800E+02   -0.84496E-03   -0.76880E-04  1104   0.208E-01    0.112E-01
DAV:  13    -0.329355819609E+02    0.37762E-03   -0.85788E-04  1008   0.247E-01    0.669E-02
DAV:  14    -0.329358128811E+02   -0.23092E-03   -0.21159E-04   840   0.109E-01    0.226E-02
DAV:  15    -0.329356627692E+02    0.15011E-03   -0.42317E-05   792   0.342E-02    0.262E-02
DAV:  16    -0.329356668737E+02   -0.41045E-05   -0.98824E-06   768   0.172E-02
   6 F= -.32935667E+02 E0= -.32935667E+02  d E =-.886045E-01  mag=     0.3594
       N       E                     dE             d eps       ncg     rms          rms(c)
DAV:   1    -0.329669183278E+02   -0.31256E-01   -0.13977E+00  1032   0.433E+00    0.857E-01
DAV:   2    -0.329998040210E+02   -0.32886E-01   -0.27414E-01   984   0.618E+00    0.177E+00
DAV:   3    -0.329618242562E+02    0.37980E-01   -0.17015E-01  1056   0.558E+00    0.450E-01
DAV:   4    -0.329586985533E+02    0.31257E-02   -0.24555E-02  1248   0.117E+00    0.493E-01
DAV:   5    -0.329581461535E+02    0.55240E-03   -0.22423E-02  1080   0.124E+00    0.328E-01
DAV:   6    -0.329575987604E+02    0.54739E-03   -0.60840E-03  1128   0.557E-01    0.765E-02
DAV:   7    -0.329576623586E+02   -0.63598E-04   -0.82584E-04   744   0.167E-01
   7 F= -.32957662E+02 E0= -.32957662E+02  d E =-.110600E+00  mag=     0.3355
       N       E                     dE             d eps       ncg     rms          rms(c)
DAV:   1    -0.329765628607E+02   -0.18964E-01   -0.56543E+00  1008   0.867E+00    0.178E+00
DAV:   2    -0.331321621943E+02   -0.15560E+00   -0.12446E+00  1032   0.133E+01    0.372E+00
DAV:   3    -0.329504216585E+02    0.18174E+00   -0.73604E-01  1080   0.120E+01    0.107E+00
DAV:   4    -0.329505520224E+02   -0.13036E-03   -0.53935E-01  1224   0.625E+00    0.309E+00
DAV:   5    -0.329341126218E+02    0.16439E-01   -0.40005E-01  1032   0.522E+00    0.309E-01
DAV:   6    -0.329339666213E+02    0.14600E-03   -0.22745E-02  1032   0.882E-01    0.276E-01
DAV:   7    -0.329346436772E+02   -0.67706E-03   -0.52568E-03  1224   0.516E-01    0.881E-02
DAV:   8    -0.329349923415E+02   -0.34866E-03   -0.10018E-03  1008   0.189E-01    0.379E-02
DAV:   9    -0.329360558667E+02   -0.10635E-02   -0.73271E-04  1008   0.100E-01    0.397E-02
DAV:  10    -0.329368369862E+02   -0.78112E-03   -0.78516E-04  1080   0.105E-01    0.617E-02
DAV:  11    -0.329372458056E+02   -0.40882E-03   -0.79775E-04  1056   0.967E-02    0.346E-02
DAV:  12    -0.329372704861E+02   -0.24680E-04   -0.51119E-04  1104   0.619E-02
   8 F= -.32937270E+02 E0= -.32937270E+02  d E =-.902081E-01  mag=     0.1874
       N       E                     dE             d eps       ncg     rms          rms(c)
DAV:   1    -0.329618789577E+02   -0.24633E-01   -0.12021E+00  1056   0.406E+00    0.826E-01
DAV:   2    -0.329940194754E+02   -0.32141E-01   -0.27350E-01  1200   0.617E+00    0.187E+00
DAV:   3    -0.329587927744E+02    0.35227E-01   -0.19027E-01  1008   0.554E+00    0.523E-01
DAV:   4    -0.329665481362E+02   -0.77554E-02   -0.10561E-01  1200   0.285E+00    0.137E+00
DAV:   5    -0.329557198295E+02    0.10828E-01   -0.79618E-02  1104   0.241E+00    0.162E-01
DAV:   6    -0.329559901245E+02   -0.27030E-03   -0.52516E-03  1176   0.441E-01    0.142E-01
DAV:   7    -0.329558455222E+02    0.14460E-03   -0.11417E-03   864   0.239E-01    0.445E-02
DAV:   8    -0.329559615825E+02   -0.11606E-03   -0.40520E-04   960   0.117E-01    0.372E-02
DAV:   9    -0.329560284315E+02   -0.66849E-04   -0.11355E-04   840   0.582E-02
   9 F= -.32956028E+02 E0= -.32956028E+02  d E =-.108966E+00  mag=     0.2549
       N       E                     dE             d eps       ncg     rms          rms(c)
DAV:   1    -0.331764144673E+02   -0.22045E+00   -0.35106E+00  1104   0.155E+01    0.442E+00
DAV:   2    -0.346508465735E+02   -0.14744E+01   -0.91243E+00  1056   0.389E+01    0.138E+01
DAV:   3    -0.330401196901E+02    0.16107E+01   -0.11394E+01  1056   0.276E+01    0.244E+00
DAV:   4    -0.329969988213E+02    0.43121E-01   -0.50249E-01  1344   0.674E+00    0.236E+00
DAV:   5    -0.329656531216E+02    0.31346E-01   -0.27302E-01  1056   0.460E+00    0.540E-01
DAV:   6    -0.329640941282E+02    0.15590E-02   -0.25573E-02  1152   0.968E-01    0.275E-01
DAV:   7    -0.329634938983E+02    0.60023E-03   -0.77988E-03  1128   0.623E-01    0.201E-01
DAV:   8    -0.329634917246E+02    0.21737E-05   -0.19335E-03  1104   0.300E-01    0.569E-02
DAV:   9    -0.329635302467E+02   -0.38522E-04   -0.22136E-04   960   0.110E-01
  10 F= -.32963530E+02 E0= -.32963530E+02  d E =-.750182E-02  mag=     0.1068
       N       E                     dE             d eps       ncg     rms          rms(c)
DAV:   1    -0.330248291672E+02   -0.61337E-01   -0.77710E-01  1248   0.719E+00    0.218E+00
DAV:   2    -0.333583924408E+02   -0.33356E+00   -0.23355E+00  1008   0.192E+01    0.541E+00
DAV:   3    -0.329675465463E+02    0.39085E+00   -0.12658E+00   960   0.161E+01    0.598E-01
DAV:   4    -0.329768619281E+02   -0.93154E-02   -0.14475E-01  1200   0.259E+00    0.139E+00
DAV:   5    -0.329674780219E+02    0.93839E-02   -0.87384E-02  1032   0.241E+00    0.390E-01
DAV:   6    -0.329674460646E+02    0.31957E-04   -0.90076E-03   960   0.774E-01    0.125E-01
DAV:   7    -0.329673148145E+02    0.13125E-03   -0.10804E-03  1176   0.170E-01    0.797E-02
DAV:   8    -0.329675002876E+02   -0.18547E-03   -0.17380E-03   840   0.259E-01    0.117E-01
DAV:   9    -0.329673197839E+02    0.18050E-03   -0.34143E-03  1200   0.369E-01    0.870E-02
DAV:  10    -0.329676013700E+02   -0.28159E-03   -0.22362E-03  1056   0.272E-01    0.510E-02
DAV:  11    -0.329678749144E+02   -0.27354E-03   -0.83072E-04   864   0.158E-01    0.566E-02
DAV:  12    -0.329667207891E+02    0.11541E-02   -0.78541E-03  1008   0.694E-01    0.157E-01
DAV:  13    -0.329676224833E+02   -0.90169E-03   -0.11257E-03   960   0.337E-01    0.617E-02
DAV:  14    -0.329676823556E+02   -0.59872E-04   -0.52203E-05   720   0.441E-02
  11 F= -.32967682E+02 E0= -.32967682E+02  d E =-.116539E-01  mag=     0.0669
       N       E                     dE             d eps       ncg     rms          rms(c)
DAV:   1    -0.329784521956E+02   -0.10830E-01   -0.17643E-01  1008   0.280E+00    0.809E-01
DAV:   2    -0.330384606020E+02   -0.60008E-01   -0.31474E-01  1080   0.705E+00    0.212E+00
DAV:   3    -0.329723275886E+02    0.66133E-01   -0.19937E-01  1056   0.598E+00    0.288E-01
DAV:   4    -0.329738090938E+02   -0.14815E-02   -0.16390E-02  1224   0.936E-01    0.445E-01
DAV:   5    -0.329725373158E+02    0.12718E-02   -0.89701E-03   960   0.839E-01    0.133E-01
DAV:   6    -0.329728185557E+02   -0.28124E-03   -0.91186E-04   960   0.237E-01    0.536E-02
DAV:   7    -0.329728799981E+02   -0.61442E-04   -0.30122E-04   720   0.984E-02
  12 F= -.32972880E+02 E0= -.32972880E+02  d E =-.519764E-02  mag=     0.0536
       N       E                     dE             d eps       ncg     rms          rms(c)
DAV:   1    -0.329867326696E+02   -0.13914E-01   -0.36697E-01  1008   0.402E+00    0.116E+00
DAV:   2    -0.330956982547E+02   -0.10897E+00   -0.65964E-01  1128   0.102E+01    0.299E+00
DAV:   3    -0.329744555156E+02    0.12124E+00   -0.39672E-01  1056   0.856E+00    0.370E-01
DAV:   4    -0.329773250064E+02   -0.28695E-02   -0.41882E-02  1272   0.154E+00    0.753E-01
DAV:   5    -0.329743933040E+02    0.29317E-02   -0.25339E-02   984   0.143E+00    0.167E-01
DAV:   6    -0.329746450381E+02   -0.25173E-03   -0.20640E-03  1056   0.355E-01    0.559E-02
DAV:   7    -0.329746608310E+02   -0.15793E-04   -0.30414E-04   744   0.119E-01
  13 F= -.32974661E+02 E0= -.32974661E+02  d E =-.697848E-02  mag=     0.0461
       N       E                     dE             d eps       ncg     rms          rms(c)
DAV:   1    -0.329796264069E+02   -0.49814E-02   -0.89655E-02  1008   0.187E+00    0.478E-01
DAV:   2    -0.329933161581E+02   -0.13690E-01   -0.10639E-01   960   0.410E+00    0.125E+00
DAV:   3    -0.329771548550E+02    0.16161E-01   -0.72955E-02  1008   0.351E+00    0.194E-01
DAV:   4    -0.329779478069E+02   -0.79295E-03   -0.81289E-03  1248   0.759E-01    0.360E-01
DAV:   5    -0.329771658661E+02    0.78194E-03   -0.57173E-03  1008   0.684E-01    0.636E-02
DAV:   6    -0.329772924057E+02   -0.12654E-03   -0.38847E-04   840   0.139E-01    0.254E-02
DAV:   7    -0.329773135733E+02   -0.21168E-04   -0.10132E-04   840   0.664E-02
  14 F= -.32977314E+02 E0= -.32977314E+02  d E =-.265274E-02  mag=     0.0390
       N       E                     dE             d eps       ncg     rms          rms(c)
DAV:   1    -0.329999181891E+02   -0.22626E-01   -0.80431E-01   960   0.557E+00    0.142E+00
DAV:   2    -0.331617001655E+02   -0.16178E+00   -0.93484E-01   960   0.122E+01    0.380E+00
DAV:   3    -0.329815652015E+02    0.18013E+00   -0.68699E-01  1296   0.103E+01    0.626E-01
DAV:   4    -0.329864309783E+02   -0.48658E-02   -0.77351E-02  1440   0.240E+00    0.110E+00
DAV:   5    -0.329797146258E+02    0.67164E-02   -0.53098E-02  1056   0.212E+00    0.172E-01
DAV:   6    -0.329798862369E+02   -0.17161E-03   -0.32849E-03  1176   0.379E-01    0.844E-02
DAV:   7    -0.329798001680E+02    0.86069E-04   -0.76688E-04   984   0.197E-01
  15 F= -.32979800E+02 E0= -.32979800E+02  d E =-.513934E-02  mag=     0.0268
       N       E                     dE             d eps       ncg     rms          rms(c)
DAV:   1    -0.329854466556E+02   -0.55604E-02   -0.27868E-01   960   0.218E+00    0.412E-01
DAV:   2    -0.329958060301E+02   -0.10359E-01   -0.71988E-02   960   0.331E+00    0.101E+00
DAV:   3    -0.329832820876E+02    0.12524E-01   -0.47864E-02  1056   0.289E+00    0.175E-01
DAV:   4    -0.329843760613E+02   -0.10940E-02   -0.14028E-02  1368   0.104E+00    0.525E-01
DAV:   5    -0.329828500583E+02    0.15260E-02   -0.12232E-02   960   0.989E-01    0.685E-02
DAV:   6    -0.329829576449E+02   -0.10759E-03   -0.76226E-04   960   0.172E-01    0.432E-02
DAV:   7    -0.329829842027E+02   -0.26558E-04   -0.21364E-04   768   0.963E-02
  16 F= -.32982984E+02 E0= -.32982984E+02  d E =-.318403E-02  mag=     0.0152
       N       E                     dE             d eps       ncg     rms          rms(c)
DAV:   1    -0.330096388405E+02   -0.26681E-01   -0.25126E+00   960   0.652E+00    0.125E+00
DAV:   2    -0.330999561054E+02   -0.90317E-01   -0.67269E-01  1056   0.101E+01    0.299E+00
DAV:   3    -0.329931590483E+02    0.10680E+00   -0.41740E-01  1104   0.881E+00    0.483E-01
DAV:   4    -0.329938828513E+02   -0.72380E-03   -0.69336E-02  1272   0.211E+00    0.995E-01
DAV:   5    -0.329891239914E+02    0.47589E-02   -0.49240E-02   960   0.203E+00    0.213E-01
DAV:   6    -0.329889016842E+02    0.22231E-03   -0.42415E-03  1056   0.459E-01    0.846E-02
DAV:   7    -0.329891664544E+02   -0.26477E-03   -0.89253E-04   840   0.199E-01    0.604E-02
DAV:   8    -0.329894861086E+02   -0.31965E-03   -0.38418E-04   912   0.114E-01    0.242E-02
DAV:   9    -0.329898423957E+02   -0.35629E-03   -0.29750E-04   768   0.909E-02    0.173E-02
DAV:  10    -0.329904116464E+02   -0.56925E-03   -0.83100E-04  1032   0.133E-01    0.161E-02
DAV:  11    -0.329905974118E+02   -0.18577E-03   -0.15961E-04   936   0.505E-02    0.137E-02
DAV:  12    -0.329907550415E+02   -0.15763E-03   -0.41125E-04   744   0.921E-02    0.921E-03
DAV:  13    -0.329907466768E+02    0.83647E-05   -0.27232E-04   888   0.602E-02
  17 F= -.32990747E+02 E0= -.32990747E+02  d E =-.109465E-01  mag=    -0.0019
       N       E                     dE             d eps       ncg     rms          rms(c)
DAV:   1    -0.330933329886E+02   -0.10258E+00   -0.10089E+01  1008   0.129E+01    0.256E+00
DAV:   2    -0.334306067429E+02   -0.33727E+00   -0.28939E+00  1200   0.207E+01    0.579E+00
DAV:   3    -0.330029152005E+02    0.42769E+00   -0.15396E+00  1200   0.180E+01    0.879E-01
DAV:   4    -0.329867974290E+02    0.16118E-01   -0.14641E-01  1104   0.159E+00    0.359E-01
DAV:   5    -0.330002540772E+02   -0.13457E-01   -0.27281E-02  1416   0.163E+00    0.653E-01
DAV:   6    -0.329869419458E+02    0.13312E-01   -0.21646E-02   960   0.136E+00    0.122E-01
DAV:   7    -0.329865919352E+02    0.35001E-03   -0.21391E-03  1200   0.275E-01    0.705E-02
DAV:   8    -0.329870629718E+02   -0.47104E-03   -0.53307E-04   864   0.158E-01    0.354E-02
DAV:   9    -0.329878868745E+02   -0.82390E-03   -0.61471E-04  1056   0.102E-01    0.212E-02
DAV:  10    -0.329885412438E+02   -0.65437E-03   -0.60036E-04  1032   0.961E-02    0.280E-02
DAV:  11    -0.329889664409E+02   -0.42520E-03   -0.71602E-04  1008   0.952E-02    0.147E-02
DAV:  12    -0.329890291073E+02   -0.62666E-04   -0.46946E-04  1080   0.639E-02
  18 F= -.32989029E+02 E0= -.32989029E+02  d E =-.922894E-02  mag=    -0.0001
       N       E                     dE             d eps       ncg     rms          rms(c)
DAV:   1    -0.330062830796E+02   -0.17317E-01   -0.16769E+00   960   0.547E+00    0.101E+00
DAV:   2    -0.331006357744E+02   -0.94353E-01   -0.45382E-01  1176   0.820E+00    0.253E+00
DAV:   3    -0.329949524483E+02    0.10568E+00   -0.33162E-01  1248   0.705E+00    0.452E-01
DAV:   4    -0.329995844121E+02   -0.46320E-02   -0.68636E-02  1344   0.239E+00    0.108E+00
DAV:   5    -0.329925380715E+02    0.70463E-02   -0.55026E-02  1056   0.217E+00    0.140E-01
DAV:   6    -0.329922874343E+02    0.25064E-03   -0.32426E-03  1056   0.351E-01    0.866E-02
DAV:   7    -0.329921484355E+02    0.13900E-03   -0.82100E-04   912   0.217E-01    0.575E-02
DAV:   8    -0.329920597377E+02    0.88698E-04   -0.27583E-04   912   0.133E-01
  19 F= -.32992060E+02 E0= -.32992060E+02  d E =-.122596E-01  mag=    -0.0002
       N       E                     dE             d eps       ncg     rms          rms(c)
DAV:   1    -0.329940663365E+02   -0.19179E-02   -0.76133E-02  1104   0.104E+00    0.976E-02
DAV:   2    -0.329949194177E+02   -0.85308E-03   -0.43620E-03  1080   0.727E-01    0.225E-01
DAV:   3    -0.329941068331E+02    0.81258E-03   -0.33205E-03  1176   0.686E-01    0.109E-01
DAV:   4    -0.329941021818E+02    0.46513E-05   -0.14154E-03   960   0.328E-01    0.100E-01
DAV:   5    -0.329941740999E+02   -0.71918E-04   -0.49608E-04   840   0.191E-01
  20 F= -.32994174E+02 E0= -.32994174E+02  d E =-.211436E-02  mag=    -0.0002
       N       E                     dE             d eps       ncg     rms          rms(c)
DAV:   1    -0.330006140525E+02   -0.65119E-02   -0.68138E-01   960   0.311E+00    0.289E-01
DAV:   2    -0.330060141977E+02   -0.54001E-02   -0.37472E-02  1032   0.212E+00    0.641E-01
DAV:   3    -0.330006222952E+02    0.53919E-02   -0.22741E-02  1056   0.193E+00    0.175E-01
DAV:   4    -0.330019533755E+02   -0.13311E-02   -0.12913E-02  1296   0.104E+00    0.478E-01
DAV:   5    -0.330007773384E+02    0.11760E-02   -0.10423E-02  1152   0.907E-01    0.551E-02
DAV:   6    -0.330009875309E+02   -0.21019E-03   -0.66929E-04  1104   0.154E-01    0.436E-02
DAV:   7    -0.330009171700E+02    0.70361E-04   -0.12305E-04   912   0.829E-02
  21 F= -.33000917E+02 E0= -.33000917E+02  d E =-.885743E-02  mag=    -0.0001
       N       E                     dE             d eps       ncg     rms          rms(c)
DAV:   1    -0.330170647031E+02   -0.16077E-01   -0.27313E+00   960   0.620E+00    0.589E-01
DAV:   2    -0.330345426816E+02   -0.17478E-01   -0.15743E-01  1008   0.436E+00    0.130E+00
DAV:   3    -0.330139578641E+02    0.20585E-01   -0.92360E-02  1008   0.394E+00    0.324E-01
DAV:   4    -0.330186701316E+02   -0.47123E-02   -0.47402E-02  1200   0.201E+00    0.915E-01
DAV:   5    -0.330133081682E+02    0.53620E-02   -0.37724E-02  1104   0.181E+00    0.111E-01
DAV:   6    -0.330131660077E+02    0.14216E-03   -0.24819E-03  1080   0.299E-01    0.875E-02
DAV:   7    -0.330131546993E+02    0.11308E-04   -0.53640E-04   816   0.175E-01
  22 F= -.33013155E+02 E0= -.33013155E+02  d E =-.210950E-01  mag=    -0.0001
       N       E                     dE             d eps       ncg     rms          rms(c)
DAV:   1    -0.330762307478E+02   -0.63065E-01   -0.10938E+01   960   0.123E+01    0.117E+00
DAV:   2    -0.331157573062E+02   -0.39527E-01   -0.62926E-01  1296   0.859E+00    0.251E+00
DAV:   3    -0.330729310634E+02    0.42826E-01   -0.35325E-01  1248   0.780E+00    0.667E-01
DAV:   4    -0.330611715282E+02    0.11760E-01   -0.19909E-01  1488   0.410E+00    0.169E+00
DAV:   5    -0.330615095991E+02   -0.33807E-03   -0.10297E-01  1104   0.342E+00    0.106E-01
DAV:   6    -0.330618488931E+02   -0.33929E-03   -0.58700E-03  1296   0.421E-01    0.165E-01
DAV:   7    -0.329996806813E+02    0.62168E-01   -0.20834E-03   816   0.303E-01    0.159E-01
DAV:   8    -0.330597651861E+02   -0.60085E-01   -0.16688E-03  1056   0.122E-01    0.564E-02
DAV:   9    -0.329989830634E+02    0.60782E-01   -0.19634E-03  1032   0.159E-01    0.149E-01
DAV:  10    -0.329988814077E+02    0.10166E-03   -0.16198E-03  1032   0.103E-01    0.139E-01
DAV:  11    -0.330015891155E+02   -0.27077E-02   -0.11875E-04  1032   0.818E-02    0.150E-01
DAV:  12    -0.330664328180E+02   -0.64844E-01   -0.13305E-04   912   0.679E-02    0.435E-02
DAV:  13    -0.330103484536E+02    0.56084E-01   -0.35600E-03  1272   0.114E-01    0.138E-01
DAV:  14    -0.330128168407E+02   -0.24684E-02   -0.31869E-03  1200   0.963E-02    0.123E-01
DAV:  15    -0.330765900479E+02   -0.63773E-01   -0.70355E-05   984   0.432E-02    0.637E-02
DAV:  16    -0.330138426556E+02    0.62747E-01   -0.39305E-03  1248   0.100E-01    0.133E-01
DAV:  17    -0.330099893956E+02    0.38533E-02   -0.44545E-03  1224   0.123E-01    0.131E-01
DAV:  18    -0.330057886432E+02    0.42008E-02   -0.15269E-04   984   0.839E-02    0.141E-01
DAV:  19    -0.330049614451E+02    0.82720E-03   -0.64846E-05   912   0.486E-02    0.134E-01
DAV:  20    -0.330054442967E+02   -0.48285E-03   -0.36864E-05   840   0.339E-02    0.130E-01
DAV:  21    -0.330683571187E+02   -0.62913E-01   -0.46702E-05   792   0.399E-02    0.578E-02
DAV:  22    -0.330694533531E+02   -0.10962E-02   -0.30451E-03  1224   0.104E-01    0.618E-02
DAV:  23    -0.330069855446E+02    0.62468E-01   -0.40865E-05   768   0.310E-02    0.132E-01
DAV:  24    -0.330680933965E+02   -0.61108E-01   -0.28794E-03  1224   0.984E-02    0.645E-02
DAV:  25    -0.330081198989E+02    0.59973E-01   -0.29350E-03  1200   0.978E-02    0.132E-01
DAV:  26    -0.330069060852E+02    0.12138E-02   -0.29471E-03  1176   0.993E-02    0.120E-01
DAV:  27    -0.330696708262E+02   -0.62765E-01   -0.31029E-05  1032   0.305E-02    0.596E-02
DAV:  28    -0.330088759648E+02    0.60795E-01   -0.30166E-03  1224   0.946E-02    0.129E-01
DAV:  29    -0.330699071611E+02   -0.61031E-01   -0.31360E-03  1152   0.991E-02    0.641E-02
DAV:  30    -0.330096026136E+02    0.60305E-01   -0.29885E-03  1152   0.963E-02    0.127E-01
DAV:  31    -0.330705261667E+02   -0.60924E-01   -0.31917E-03  1176   0.991E-02    0.668E-02
DAV:  32    -0.330719409200E+02   -0.14148E-02   -0.30423E-03  1176   0.953E-02    0.678E-02
DAV:  33    -0.330096488337E+02    0.62292E-01   -0.12893E-05   864   0.137E-02    0.123E-01
DAV:  34    -0.330092648099E+02    0.38402E-03   -0.31795E-03  1200   0.979E-02    0.115E-01
DAV:  35    -0.330099185126E+02   -0.65370E-03   -0.37105E-05  1080   0.310E-02    0.116E-01
DAV:  36    -0.330718454446E+02   -0.61927E-01   -0.15785E-05   960   0.209E-02    0.661E-02
DAV:  37    -0.330105447221E+02    0.61301E-01   -0.30817E-03  1200   0.924E-02    0.123E-01
DAV:  38    -0.330714732786E+02   -0.60929E-01   -0.35330E-03  1200   0.100E-01    0.695E-02
DAV:  39    -0.330108737584E+02    0.60600E-01   -0.31350E-03  1152   0.941E-02    0.121E-01
DAV:  40    -0.330100522158E+02    0.82154E-03   -0.34485E-03  1152   0.993E-02    0.112E-01
DAV:  41    -0.330108501845E+02   -0.79797E-03   -0.35051E-05   984   0.292E-02    0.113E-01
DAV:  42    -0.330109598194E+02   -0.10963E-03   -0.21778E-05   912   0.244E-02    0.113E-01
DAV:  43    -0.330109522881E+02    0.75312E-05   -0.21258E-05   864   0.237E-02
  23 F= -.33010952E+02 E0= -.33010952E+02  d E =-.188926E-01  mag=    -0.0316
       N       E                     dE             d eps       ncg     rms          rms(c)
DAV:   1    -0.330972586625E+02   -0.86299E-01   -0.43834E+01   960   0.245E+01    0.254E+00
DAV:   2    -0.334726037008E+02   -0.37535E+00   -0.31211E+00  1200   0.196E+01    0.552E+00
DAV:   3    -0.330966533079E+02    0.37595E+00   -0.14955E+00  1080   0.176E+01    0.109E+00
DAV:   4    -0.331204705818E+02   -0.23817E-01   -0.36467E-01  1272   0.618E+00    0.214E+00
DAV:   5    -0.330834773333E+02    0.36993E-01   -0.23369E-01  1056   0.588E+00    0.430E-01
DAV:   6    -0.330758525266E+02    0.76248E-02   -0.17158E-02  1056   0.113E+00    0.148E-01
DAV:   7    -0.330815885021E+02   -0.57360E-02   -0.15239E-03  1368   0.275E-01    0.586E-02
DAV:   8    -0.330827785979E+02   -0.11901E-02   -0.78080E-04  1056   0.157E-01    0.559E-02
DAV:   9    -0.330834636561E+02   -0.68506E-03   -0.44246E-04  1056   0.112E-01    0.275E-02
DAV:  10    -0.330841001912E+02   -0.63654E-03   -0.48463E-04  1056   0.108E-01    0.250E-02
DAV:  11    -0.330847082690E+02   -0.60808E-03   -0.97502E-04  1056   0.934E-02    0.258E-02
DAV:  12    -0.330847601407E+02   -0.51872E-04   -0.89805E-04  1032   0.954E-02
  24 F= -.33084760E+02 E0= -.33084760E+02  d E =-.927004E-01  mag=    -0.0571
       N       E                     dE             d eps       ncg     rms          rms(c)
DAV:   1    -0.329734541062E+02    0.11125E+00   -0.17659E+02   960   0.499E+01    0.515E+00
DAV:   2    -0.345579955986E+02   -0.15845E+01   -0.14432E+01  1224   0.417E+01    0.104E+01
DAV:   3    -0.330362449556E+02    0.15218E+01   -0.47780E+00  1176   0.348E+01    0.163E+00
DAV:   4    -0.330184834634E+02    0.17761E-01   -0.56915E-01  1080   0.284E+00    0.980E-01
DAV:   5    -0.330262093093E+02   -0.77258E-02   -0.15672E-01  1056   0.530E+00    0.131E+00
DAV:   6    -0.330128177724E+02    0.13392E-01   -0.88712E-02   960   0.425E+00    0.281E-01
DAV:   7    -0.330126732732E+02    0.14450E-03   -0.95395E-03  1008   0.957E-01    0.118E-01
DAV:   8    -0.330137056281E+02   -0.10324E-02   -0.19973E-03  1104   0.432E-01    0.666E-02
DAV:   9    -0.330147492060E+02   -0.10436E-02   -0.10376E-03  1056   0.174E-01    0.362E-02
DAV:  10    -0.330155207287E+02   -0.77152E-03   -0.14041E-03  1176   0.203E-01    0.633E-02
DAV:  11    -0.330158180153E+02   -0.29729E-03   -0.19338E-03  1152   0.260E-01    0.407E-02
DAV:  12    -0.330152867997E+02    0.53122E-03   -0.11418E-03  1200   0.150E-01    0.261E-02
DAV:  13    -0.330148791995E+02    0.40760E-03   -0.17546E-04   888   0.658E-02    0.173E-02
DAV:  14    -0.330145330943E+02    0.34611E-03   -0.16737E-04   840   0.699E-02    0.272E-02
DAV:  15    -0.330143007349E+02    0.23236E-03   -0.86668E-05   840   0.929E-02    0.133E-02
DAV:  16    -0.330143336951E+02   -0.32960E-04   -0.56305E-05   864   0.271E-02
  25 F= -.33014334E+02 E0= -.33014334E+02  d E =-.222740E-01  mag=    -0.0624
       N       E                     dE             d eps       ncg     rms          rms(c)
DAV:   1    -0.331375388713E+02   -0.12324E+00   -0.11134E+02   960   0.432E+01    0.321E+00
DAV:   2    -0.336520997912E+02   -0.51456E+00   -0.47759E+00  1344   0.240E+01    0.771E+00
DAV:   3    -0.331443471273E+02    0.50775E+00   -0.33909E+00  1056   0.199E+01    0.191E+00
DAV:   4    -0.330709979085E+02    0.73349E-01   -0.35803E-01  1320   0.608E+00    0.165E+00
DAV:   5    -0.331779239628E+02   -0.10693E+00   -0.29507E-01  1248   0.750E+00    0.127E+00
DAV:   6    -0.331534976834E+02    0.24426E-01   -0.81702E-02  1272   0.340E+00    0.238E-01
DAV:   7    -0.330893826569E+02    0.64115E-01   -0.96635E-03  1248   0.660E-01    0.224E-01
DAV:   8    -0.330956195628E+02   -0.62369E-02   -0.37998E-03  1008   0.674E-01    0.123E-01
DAV:   9    -0.330949740611E+02    0.64550E-03   -0.80011E-04   912   0.212E-01    0.108E-01
DAV:  10    -0.330947995879E+02    0.17447E-03   -0.13686E-04   720   0.549E-02    0.117E-01
DAV:  11    -0.330948978120E+02   -0.98224E-04   -0.92189E-05   744   0.546E-02
  26 F= -.33094898E+02 E0= -.33094898E+02  d E =-.102838E+00  mag=    -0.0507
       N       E                     dE             d eps       ncg     rms          rms(c)
DAV:   1    -0.331394597032E+02   -0.44660E-01   -0.34853E+00   960   0.705E+00    0.108E+00
DAV:   2    -0.331815267439E+02   -0.42067E-01   -0.48047E-01   960   0.765E+00    0.236E+00
DAV:   3    -0.331301967759E+02    0.51330E-01   -0.32232E-01   984   0.695E+00    0.720E-01
DAV:   4    -0.330872389450E+02    0.42958E-01   -0.16269E-01  1152   0.478E+00    0.141E+00
DAV:   5    -0.331222408553E+02   -0.35002E-01   -0.81628E-02  1080   0.391E+00    0.140E-01
DAV:   6    -0.331219038037E+02    0.33705E-03   -0.61493E-03  1080   0.456E-01    0.913E-02
DAV:   7    -0.331218329729E+02    0.70831E-04   -0.77490E-04  1128   0.275E-01
  27 F= -.33121833E+02 E0= -.33121833E+02  d E =-.269352E-01  mag=    -0.0567
       N       E                     dE             d eps       ncg     rms          rms(c)
DAV:   1    -0.331241755749E+02   -0.22718E-02   -0.22349E-01   960   0.178E+00    0.273E-01
DAV:   2    -0.331259813159E+02   -0.18057E-02   -0.31627E-02   960   0.195E+00    0.595E-01
DAV:   3    -0.331226420232E+02    0.33393E-02   -0.20247E-02  1008   0.180E+00    0.193E-01
DAV:   4    -0.331239362976E+02   -0.12943E-02   -0.12638E-02  1128   0.124E+00    0.443E-01
DAV:   5    -0.331219352799E+02    0.20010E-02   -0.80708E-03   960   0.103E+00    0.383E-02
DAV:   6    -0.331221656370E+02   -0.23036E-03   -0.51573E-04  1152   0.135E-01    0.349E-02
DAV:   7    -0.331216775349E+02    0.48810E-03   -0.19949E-04   984   0.133E-01    0.377E-02
DAV:   8    -0.331203333629E+02    0.13442E-02   -0.33874E-04  1104   0.781E-02    0.185E-02
DAV:   9    -0.331194185163E+02    0.91485E-03   -0.67674E-04   960   0.860E-02    0.204E-02
DAV:  10    -0.331176407709E+02    0.17777E-02   -0.10591E-03  1104   0.867E-02    0.156E-02
DAV:  11    -0.331170885950E+02    0.55218E-03   -0.86959E-05   840   0.422E-02    0.970E-03
DAV:  12    -0.331172784536E+02   -0.18986E-03   -0.71725E-05   768   0.354E-02    0.817E-03
DAV:  13    -0.331180003067E+02   -0.72185E-03   -0.22633E-04   744   0.424E-02    0.973E-03
DAV:  14    -0.331187164154E+02   -0.71611E-03   -0.33983E-04   888   0.444E-02    0.317E-03
DAV:  15    -0.331189257061E+02   -0.20929E-03   -0.67527E-05   744   0.211E-02    0.222E-03
DAV:  16    -0.331191276387E+02   -0.20193E-03   -0.68318E-05   720   0.196E-02    0.185E-03
DAV:  17    -0.331192327026E+02   -0.10506E-03   -0.36236E-05   792   0.171E-02    0.648E-04
DAV:  18    -0.331192888898E+02   -0.56187E-04   -0.30740E-05   768   0.158E-02
  28 F= -.33119289E+02 E0= -.33119289E+02  d E =-.243911E-01  mag=    -0.0664
       N       E                     dE             d eps       ncg     rms          rms(c)
DAV:   1    -0.333410305305E+02   -0.22180E+00   -0.37360E+00  1176   0.156E+01    0.476E+00
DAV:   2    -0.347937425585E+02   -0.14527E+01   -0.12263E+01   960   0.425E+01    0.105E+01
DAV:   3    -0.331226858250E+02    0.16711E+01   -0.46328E+00  1248   0.342E+01    0.872E-01
DAV:   4    -0.331333915466E+02   -0.10706E-01   -0.44130E-01  1200   0.275E+00    0.121E+00
DAV:   5    -0.331257487346E+02    0.76428E-02   -0.92007E-02  1488   0.356E+00    0.101E+00
DAV:   6    -0.331212808946E+02    0.44678E-02   -0.43752E-02  1152   0.251E+00    0.962E-02
DAV:   7    -0.331216579003E+02   -0.37701E-03   -0.27264E-03  1176   0.306E-01    0.932E-02
DAV:   8    -0.331217551587E+02   -0.97258E-04   -0.38913E-04  1032   0.212E-01
  29 F= -.33121755E+02 E0= -.33121755E+02  d E =-.246627E-02  mag=    -0.0646
       N       E                     dE             d eps       ncg     rms          rms(c)
DAV:   1    -0.332221515272E+02   -0.10049E+00   -0.76850E-01  1152   0.719E+00    0.212E+00
DAV:   2    -0.334756063700E+02   -0.25345E+00   -0.21675E+00  1128   0.189E+01    0.622E+00
DAV:   3    -0.331685352214E+02    0.30707E+00   -0.19368E+00  1152   0.159E+01    0.998E-01
DAV:   4    -0.330866846591E+02    0.81851E-01   -0.92047E-02  1176   0.241E+00    0.494E-01
DAV:   5    -0.330922194697E+02   -0.55348E-02   -0.23032E-02  1248   0.172E+00    0.254E-01
DAV:   6    -0.331114506564E+02   -0.19231E-01   -0.32479E-03  1584   0.587E-01    0.123E-01
DAV:   7    -0.331257794246E+02   -0.14329E-01   -0.11687E-03  1128   0.300E-01    0.349E-02
DAV:   8    -0.331263523723E+02   -0.57295E-03   -0.43080E-04   984   0.847E-02    0.128E-02
DAV:   9    -0.331265451591E+02   -0.19279E-03   -0.24224E-05   744   0.308E-02    0.810E-03
DAV:  10    -0.331265975197E+02   -0.52361E-04   -0.67210E-05   792   0.232E-02
  30 F= -.33126598E+02 E0= -.33126598E+02  d E =-.730863E-02  mag=    -0.0616
       N       E                     dE             d eps       ncg     rms          rms(c)
DAV:   1    -0.331392426215E+02   -0.12697E-01   -0.23873E-01  1032   0.305E+00    0.883E-01
DAV:   2    -0.331640111363E+02   -0.24769E-01   -0.39499E-01  1032   0.786E+00    0.224E+00
DAV:   3    -0.331299504118E+02    0.34061E-01   -0.23989E-01  1248   0.657E+00    0.283E-01
DAV:   4    -0.331292793047E+02    0.67111E-03   -0.11996E-02  1080   0.590E-01    0.114E-01
DAV:   5    -0.331293270388E+02   -0.47734E-04   -0.28485E-03  1224   0.614E-01    0.178E-01
DAV:   6    -0.331291501588E+02    0.17688E-03   -0.14414E-03  1008   0.432E-01    0.219E-02
DAV:   7    -0.331291357036E+02    0.14455E-04   -0.12019E-04   888   0.678E-02
  31 F= -.33129136E+02 E0= -.33129136E+02  d E =-.253818E-02  mag=    -0.0621
       N       E                     dE             d eps       ncg     rms          rms(c)
DAV:   1    -0.331306757197E+02   -0.15256E-02   -0.37091E-02  1152   0.123E+00    0.345E-01
DAV:   2    -0.331395474864E+02   -0.88718E-02   -0.60860E-02  1080   0.309E+00    0.910E-01
DAV:   3    -0.331294957786E+02    0.10052E-01   -0.39254E-02  1104   0.259E+00    0.124E-01
DAV:   4    -0.331295554047E+02   -0.59626E-04   -0.41297E-03  1296   0.634E-01    0.229E-01
DAV:   5    -0.331291692595E+02    0.38615E-03   -0.24675E-03  1104   0.580E-01    0.310E-02
DAV:   6    -0.331292428047E+02   -0.73545E-04   -0.14582E-04   840   0.949E-02
  32 F= -.33129243E+02 E0= -.33129243E+02  d E =-.264528E-02  mag=    -0.0610
       N       E                     dE             d eps       ncg     rms          rms(c)
DAV:   1    -0.331348653610E+02   -0.56961E-02   -0.99888E-02  1176   0.230E+00    0.660E-01
DAV:   2    -0.331617201118E+02   -0.26855E-01   -0.21001E-01  1080   0.576E+00    0.175E+00
DAV:   3    -0.331312081724E+02    0.30512E-01   -0.15235E-01  1056   0.491E+00    0.287E-01
DAV:   4    -0.331307783013E+02    0.42987E-03   -0.10540E-02  1224   0.930E-01    0.290E-01
DAV:   5    -0.331302250183E+02    0.55328E-03   -0.41770E-03  1008   0.763E-01    0.620E-02
DAV:   6    -0.331301546103E+02    0.70408E-04   -0.33501E-04   816   0.163E-01
  33 F= -.33130155E+02 E0= -.33130155E+02  d E =-.911806E-03  mag=    -0.0596
       N       E                     dE             d eps       ncg     rms          rms(c)
DAV:   1    -0.331302241347E+02    0.88355E-06   -0.98654E-05   720   0.680E-02    0.144E-02
DAV:   2    -0.331302927510E+02   -0.68616E-04   -0.31222E-04   720   0.209E-01
  34 F= -.33130293E+02 E0= -.33130293E+02  d E =-.104995E-02  mag=    -0.0594
       N       E                     dE             d eps       ncg     rms          rms(c)
DAV:   1    -0.331341980218E+02   -0.39739E-02   -0.54968E-02  1104   0.186E+00    0.571E-01
DAV:   2    -0.331555714627E+02   -0.21373E-01   -0.16645E-01  1008   0.513E+00    0.157E+00
DAV:   3    -0.331313030261E+02    0.24268E-01   -0.11806E-01  1104   0.432E+00    0.223E-01
DAV:   4    -0.331308939193E+02    0.40911E-03   -0.54486E-03  1296   0.590E-01    0.153E-01
DAV:   5    -0.331307601997E+02    0.13372E-03   -0.15752E-03  1248   0.454E-01    0.593E-02
DAV:   6    -0.331307174019E+02    0.42798E-04   -0.20223E-04   816   0.141E-01
  35 F= -.33130717E+02 E0= -.33130717E+02  d E =-.424651E-03  mag=    -0.0586
       N       E                     dE             d eps       ncg     rms          rms(c)
DAV:   1    -0.331307724322E+02   -0.12233E-04   -0.82605E-04  1008   0.236E-01    0.710E-02
DAV:   2    -0.331313839457E+02   -0.61151E-03   -0.27141E-03  1008   0.653E-01    0.197E-01
DAV:   3    -0.331307846035E+02    0.59934E-03   -0.20073E-03  1008   0.571E-01    0.495E-02
DAV:   4    -0.331307758501E+02    0.87535E-05   -0.18448E-04   720   0.131E-01
  36 F= -.33130776E+02 E0= -.33130776E+02  d E =-.483099E-03  mag=    -0.0584
