 vasp.5.4.4.18Apr17-6-g9f103f2a35 (build May  1 2020 15:48:39) complex           
 executed on             LinuxGNU date 2020.06.14  22:31:31
 running on   24 total cores
 distrk:  each k-point on   24 cores,    1 groups
 distr:  one band on NCORES_PER_BAND=   1 cores,   24 groups


--------------------------------------------------------------------------------------------------------


 INCAR:
 POTCAR:   PAW_PBE Ni 06Sep2000                   
 POTCAR:   PAW_PBE Si 05Jan2001                   
 POTCAR:   PAW_PBE Ge 05Jan2001                   
 POTCAR:   PAW_PBE Te 08Apr2002                   

 ----------------------------------------------------------------------------- 
|                                                                             |
|           W    W    AA    RRRRR   N    N  II  N    N   GGGG   !!!           |
|           W    W   A  A   R    R  NN   N  II  NN   N  G    G  !!!           |
|           W    W  A    A  R    R  N N  N  II  N N  N  G       !!!           |
|           W WW W  AAAAAA  RRRRR   N  N N  II  N  N N  G  GGG   !            |
|           WW  WW  A    A  R   R   N   NN  II  N   NN  G    G                |
|           W    W  A    A  R    R  N    N  II  N    N   GGGG   !!!           |
|                                                                             |
|      For optimal performance we recommend to set                            |
|        NCORE= 4 - approx SQRT( number of cores)                             |
|      NCORE specifies how many cores store one orbital (NPAR=cpu/NCORE).     |
|      This setting can  greatly improve the performance of VASP for DFT.     |
|      The default,   NCORE=1            might be grossly inefficient         |
|      on modern multi-core architectures or massively parallel machines.     |
|      Do your own testing !!!!                                               |
|      Unfortunately you need to use the default for GW and RPA calculations. |
|      (for HF NCORE is supported but not extensively tested yet)             |
|                                                                             |
 ----------------------------------------------------------------------------- 


 ----------------------------------------------------------------------------- 
|                                                                             |
|  ADVICE TO THIS USER RUNNING 'VASP/VAMP'   (HEAR YOUR MASTER'S VOICE ...):  |
|                                                                             |
|      You have switched on vdW-DFT.                                          |
|      This routine was written and supplied by Jiri Klimes.                  |
|      We recommed that you carefully read and cite the following             |
|      publication                                                            |
|      J. Klimes, D.R. Bowler, A. Michelides                                  |
|        J. Phys.: Cond Matt. 22 022201 (2010)                                |
|      J. Klimes, D.R. Bowler, A. Michelides                                  |
|        Phys. Rev. B. 83, 195131 (2011)                                      |
|      and references therein.                                                |
|                                                                             |
 ----------------------------------------------------------------------------- 

 POTCAR:   PAW_PBE Ni 06Sep2000                   
   VRHFIN =Ni:                                                                  
   LEXCH  = PE                                                                  
   EATOM  =  1077.9025 eV,   79.2236 Ry                                         
                                                                                
   TITEL  = PAW_PBE Ni 06Sep2000                                                
   LULTRA =        F    use ultrasoft PP ?                                      
   IUNSCR =        1    unscreen: 0-lin 1-nonlin 2-no                           
   RPACOR =    2.000    partial core radius                                     
   POMASS =   58.690; ZVAL   =   10.000    mass and valenz                      
   RCORE  =    2.300    outmost cutoff radius                                   
   RWIGS  =    2.430; RWIGS  =    1.286    wigner-seitz radius (au A)           
   ENMAX  =  269.533; ENMIN  =  202.150 eV                                      
   RCLOC  =    1.681    cutoff for local pot                                    
   LCOR   =        T    correct aug charges                                     
   LPAW   =        T    paw PP                                                  
   EAUG   =  544.565                                                            
   DEXC   =    -.009                                                            
   RMAX   =    2.808    core radius for proj-oper                               
   RAUG   =    1.300    factor for augmentation sphere                          
   RDEP   =    2.390    radius for radial grids                                 
   QCUT   =   -4.451; QGAM   =    8.902    optimization parameters              
                                                                                
   Description                                                                  
     l     E      TYP  RCUT    TYP  RCUT                                        
     2   .000     23  2.300                                                     
     2   .000     23  2.300                                                     
     0   .000     23  2.300                                                     
     0   .000     23  2.300                                                     
     1  -.200     23  2.300                                                     
     1   .000     23  2.300                                                     
     3   .000      7   .000                                                     
  local pseudopotential read in
  partial core-charges read in
  atomic valenz-charges read in
  non local Contribution for L=           2  read in
    real space projection operators read in
  non local Contribution for L=           2  read in
    real space projection operators read in
  non local Contribution for L=           0  read in
    real space projection operators read in
  non local Contribution for L=           0  read in
    real space projection operators read in
  non local Contribution for L=           1  read in
    real space projection operators read in
  non local Contribution for L=           1  read in
    real space projection operators read in
    PAW grid and wavefunctions read in

   number of l-projection  operators is LMAX  =           6
   number of lm-projection operators is LMMAX =          18

 POTCAR:   PAW_PBE Si 05Jan2001                   
   VRHFIN =Si: s2p2                                                             
   LEXCH  = PE                                                                  
   EATOM  =   103.0669 eV,    7.5752 Ry                                         
                                                                                
   TITEL  = PAW_PBE Si 05Jan2001                                                
   LULTRA =        F    use ultrasoft PP ?                                      
   IUNSCR =        1    unscreen: 0-lin 1-nonlin 2-no                           
   RPACOR =    1.500    partial core radius                                     
   POMASS =   28.085; ZVAL   =    4.000    mass and valenz                      
   RCORE  =    1.900    outmost cutoff radius                                   
   RWIGS  =    2.480; RWIGS  =    1.312    wigner-seitz radius (au A)           
   ENMAX  =  245.345; ENMIN  =  184.009 eV                                      
   ICORE  =        2    local potential                                         
   LCOR   =        T    correct aug charges                                     
   LPAW   =        T    paw PP                                                  
   EAUG   =  322.069                                                            
   DEXC   =    -.007                                                            
   RMAX   =    2.944    core radius for proj-oper                               
   RAUG   =    1.300    factor for augmentation sphere                          
   RDEP   =    1.993    radius for radial grids                                 
   QCUT   =   -4.246; QGAM   =    8.493    optimization parameters              
                                                                                
   Description                                                                  
     l     E      TYP  RCUT    TYP  RCUT                                        
     0   .000     23  1.900                                                     
     0   .000     23  1.900                                                     
     1   .000     23  1.900                                                     
     1   .000     23  1.900                                                     
     2   .000      7  1.900                                                     
  local pseudopotential read in
  partial core-charges read in
  atomic valenz-charges read in
  non local Contribution for L=           0  read in
    real space projection operators read in
  non local Contribution for L=           0  read in
    real space projection operators read in
  non local Contribution for L=           1  read in
    real space projection operators read in
  non local Contribution for L=           1  read in
    real space projection operators read in
    PAW grid and wavefunctions read in

   number of l-projection  operators is LMAX  =           4
   number of lm-projection operators is LMMAX =           8

 POTCAR:   PAW_PBE Ge 05Jan2001                   
   VRHFIN =Ge: s2p2                                                             
   LEXCH  = PE                                                                  
   EATOM  =   104.9960 eV,    7.7170 Ry                                         
                                                                                
   TITEL  = PAW_PBE Ge 05Jan2001                                                
   LULTRA =        F    use ultrasoft PP ?                                      
   IUNSCR =        1    unscreen: 0-lin 1-nonlin 2-no                           
   RPACOR =    2.170    partial core radius                                     
   POMASS =   72.610; ZVAL   =    4.000    mass and valenz                      
   RCORE  =    2.300    outmost cutoff radius                                   
   RWIGS  =    2.300; RWIGS  =    1.217    wigner-seitz radius (au A)           
   ENMAX  =  173.807; ENMIN  =  130.355 eV                                      
   ICORE  =        3    local potential                                         
   LCOR   =        T    correct aug charges                                     
   LPAW   =        T    paw PP                                                  
   EAUG   =  385.843                                                            
   DEXC   =    -.138                                                            
   RMAX   =    3.497    core radius for proj-oper                               
   RAUG   =    1.300    factor for augmentation sphere                          
   RDEP   =    2.318    radius for radial grids                                 
   QCUT   =   -3.574; QGAM   =    7.148    optimization parameters              
                                                                                
   Description                                                                  
     l     E      TYP  RCUT    TYP  RCUT                                        
     0   .000     23  2.300                                                     
     0   .000     23  2.300                                                     
     1   .000     23  2.300                                                     
     1   .000     23  2.300                                                     
     2   .000     23  2.300                                                     
     3  -.100      7  2.300                                                     
  local pseudopotential read in
  partial core-charges read in
  atomic valenz-charges read in
  non local Contribution for L=           0  read in
    real space projection operators read in
  non local Contribution for L=           0  read in
    real space projection operators read in
  non local Contribution for L=           1  read in
    real space projection operators read in
  non local Contribution for L=           1  read in
    real space projection operators read in
  non local Contribution for L=           2  read in
    real space projection operators read in
    PAW grid and wavefunctions read in

   number of l-projection  operators is LMAX  =           5
   number of lm-projection operators is LMMAX =          13

 POTCAR:   PAW_PBE Te 08Apr2002                   
   VRHFIN =Te: s2p4                                                             
   LEXCH  = PE                                                                  
   EATOM  =   223.2721 eV,   16.4100 Ry                                         
                                                                                
   TITEL  = PAW_PBE Te 08Apr2002                                                
   LULTRA =        F    use ultrasoft PP ?                                      
   IUNSCR =        1    unscreen: 0-lin 1-nonlin 2-no                           
   RPACOR =    2.200    partial core radius                                     
   POMASS =  127.600; ZVAL   =    6.000    mass and valenz                      
   RCORE  =    2.300    outmost cutoff radius                                   
   RWIGS  =    2.900; RWIGS  =    1.535    wigner-seitz radius (au A)           
   ENMAX  =  174.982; ENMIN  =  131.236 eV                                      
   ICORE  =        3    local potential                                         
   LCOR   =        T    correct aug charges                                     
   LPAW   =        T    paw PP                                                  
   EAUG   =  368.792                                                            
   DEXC   =    -.169                                                            
   RMAX   =    3.486    core radius for proj-oper                               
   RAUG   =    1.300    factor for augmentation sphere                          
   RDEP   =    2.397    radius for radial grids                                 
   QCUT   =   -3.586; QGAM   =    7.172    optimization parameters              
                                                                                
   Description                                                                  
     l     E      TYP  RCUT    TYP  RCUT                                        
     0   .000     23  2.300                                                     
     0   .000     23  2.300                                                     
     1   .000     23  2.300                                                     
     1   .000     23  2.300                                                     
     2   .000     23  2.300                                                     
     3  -.100     23  2.300                                                     
  local pseudopotential read in
  partial core-charges read in
  atomic valenz-charges read in
  non local Contribution for L=           0  read in
    real space projection operators read in
  non local Contribution for L=           0  read in
    real space projection operators read in
  non local Contribution for L=           1  read in
    real space projection operators read in
  non local Contribution for L=           1  read in
    real space projection operators read in
  non local Contribution for L=           2  read in
    real space projection operators read in
    PAW grid and wavefunctions read in

   number of l-projection  operators is LMAX  =           5
   number of lm-projection operators is LMMAX =          13

 Optimization of the real space projectors (new method)

 maximal supplied QI-value         = 16.25
 optimisation between [QCUT,QGAM] = [ 11.54, 23.24] = [ 37.28,151.24] Ry 
 Optimized for a Real-space Cutoff    1.49 Angstroem

   l    n(q)    QCUT    max X(q) W(low)/X(q) W(high)/X(q)  e(spline) 
   2      9    11.539     4.811    0.20E-04    0.14E-04    0.45E-07
   2      9    11.539    15.146    0.24E-03    0.12E-03    0.20E-06
   0     10    11.539    14.357    0.18E-04    0.12E-05    0.14E-07
   0     10    11.539    43.282    0.39E-04    0.17E-04    0.23E-06
   1     10    11.539     5.514    0.99E-05    0.13E-04    0.19E-07
   1     10    11.539     7.697    0.38E-04    0.79E-04    0.91E-07
 Optimization of the real space projectors (new method)

 maximal supplied QI-value         = 19.84
 optimisation between [QCUT,QGAM] = [ 11.51, 23.22] = [ 37.09,150.92] Ry 
 Optimized for a Real-space Cutoff    1.21 Angstroem

   l    n(q)    QCUT    max X(q) W(low)/X(q) W(high)/X(q)  e(spline) 
   0      8    11.508     8.708    0.18E-04    0.44E-05    0.47E-08
   0      8    11.508   106.241    0.70E-04    0.15E-03    0.51E-07
   1      8    11.508     5.901    0.63E-05    0.23E-04    0.21E-07
   1      8    11.508    73.241    0.15E-03    0.36E-04    0.79E-07
 Optimization of the real space projectors (new method)

 maximal supplied QI-value         = 16.25
 optimisation between [QCUT,QGAM] = [ 11.54, 23.24] = [ 37.28,151.24] Ry 
 Optimized for a Real-space Cutoff    1.28 Angstroem

   l    n(q)    QCUT    max X(q) W(low)/X(q) W(high)/X(q)  e(spline) 
   0      9    11.539     8.651    0.22E-04    0.16E-04    0.10E-07
   0      9    11.539    33.192    0.11E-03    0.16E-03    0.65E-07
   1      8    11.539     5.899    0.37E-04    0.28E-04    0.43E-07
   1      8    11.539    27.289    0.22E-03    0.28E-04    0.14E-06
   2      8    11.539     4.673    0.11E-03    0.18E-03    0.58E-07
 Optimization of the real space projectors (new method)

 maximal supplied QI-value         = 16.25
 optimisation between [QCUT,QGAM] = [ 11.54, 23.24] = [ 37.28,151.24] Ry 
 Optimized for a Real-space Cutoff    1.36 Angstroem

   l    n(q)    QCUT    max X(q) W(low)/X(q) W(high)/X(q)  e(spline) 
   0      9    11.539     7.090    0.13E-04    0.25E-05    0.51E-08
   0      9    11.539   101.654    0.53E-04    0.69E-04    0.12E-06
   1      9    11.539     5.276    0.20E-04    0.98E-05    0.24E-07
   1      9    11.539    81.891    0.24E-03    0.13E-04    0.15E-06
   2      9    11.539     5.599    0.30E-04    0.97E-04    0.54E-07

 ----------------------------------------------------------------------------- 
|                                                                             |
|  ADVICE TO THIS USER RUNNING 'VASP/VAMP'   (HEAR YOUR MASTER'S VOICE ...):  |
|                                                                             |
|      You enforced a specific xc-type in the INCAR file,                     |
|      a different type was found on the POTCAR file                          |
|          I HOPE YOU KNOW, WHAT YOU ARE  DOING                               |
|                                                                             |
 ----------------------------------------------------------------------------- 

 PAW_PBE Ni 06Sep2000                   :
 energy of atom  1       EATOM=-1077.9025
 kinetic energy error for atom=    0.0030 (will be added to EATOM!!)
 PAW_PBE Si 05Jan2001                   :
 energy of atom  2       EATOM= -103.0669
 kinetic energy error for atom=    0.0005 (will be added to EATOM!!)
 PAW_PBE Ge 05Jan2001                   :
 energy of atom  3       EATOM= -104.9960
 kinetic energy error for atom=    0.0002 (will be added to EATOM!!)
 PAW_PBE Te 08Apr2002                   :
 energy of atom  4       EATOM= -223.2721
 kinetic energy error for atom=    0.0007 (will be added to EATOM!!)


 POSCAR: Ni2 Si Ge Te6                           
  positions in direct lattice
  velocities in cartesian coordinates
  No initial velocities read in
 exchange correlation table for  LEXCH =       42
   RHO(1)=    0.500       N(1)  =     2000
   RHO(2)=  100.500       N(2)  =     4000



--------------------------------------------------------------------------------------------------------


 ion  position               nearest neighbor table
   1  0.333  0.333  0.500-   6 2.78   5 2.78   7 2.78   8 2.78  10 2.78   9 2.78
   2  0.667  0.667  0.500-   9 2.78   8 2.78  10 2.78   5 2.78   7 2.78   6 2.78
   3  0.000  0.000  0.448-   4 2.43   8 2.63  10 2.63   9 2.63
   4  0.000  0.000  0.552-   3 2.43   5 2.63   7 2.63   6 2.63
   5  0.626  0.000  0.574-   4 2.63   1 2.78   2 2.78
   6  0.000  0.373  0.574-   4 2.63   1 2.78   2 2.78
   7  0.373  0.626  0.574-   4 2.63   1 2.78   2 2.78
   8  0.374  1.000  0.426-   3 2.63   2 2.78   1 2.78
   9  1.000  0.627  0.426-   3 2.63   2 2.78   1 2.78
  10  0.627  0.374  0.426-   3 2.63   2 2.78   1 2.78

  LATTYP: Found a hexagonal cell.
 ALAT       =     6.9077769333
 C/A-ratio  =     3.3939410937
  
  Lattice vectors:
  
 A1 = (   3.4538890000,  -5.9823100000,   0.0000000000)
 A2 = (  -6.9077770000,   0.0000000000,   0.0000000000)
 A3 = (   0.0000000000,   0.0000000000, -23.4445880000)


Analysis of symmetry for initial positions (statically):
=====================================================================
 Subroutine PRICEL returns:
 Original cell was already a primitive cell.
 

 Routine SETGRP: Setting up the symmetry group for a 
 hexagonal supercell.


 Subroutine GETGRP returns: Found  3 space group operations
 (whereof  3 operations were pure point group operations)
 out of a pool of 24 trial point group operations.


The static configuration has the point symmetry C_3 .


Analysis of symmetry for dynamics (positions and initial velocities):
=====================================================================
 Subroutine PRICEL returns:
 Original cell was already a primitive cell.
 

 Routine SETGRP: Setting up the symmetry group for a 
 hexagonal supercell.


 Subroutine GETGRP returns: Found  3 space group operations
 (whereof  3 operations were pure point group operations)
 out of a pool of 24 trial point group operations.


The dynamic configuration has the point symmetry C_3 .


Analysis of structural, dynamic, and magnetic symmetry:
=====================================================================
 Subroutine PRICEL returns:
 Original cell was already a primitive cell.
 

 Routine SETGRP: Setting up the symmetry group for a 
 hexagonal supercell.


 Subroutine GETGRP returns: Found  3 space group operations
 (whereof  3 operations were pure point group operations)
 out of a pool of 24 trial point group operations.


The magnetic configuration has the point symmetry C_3 .


 Subroutine INISYM returns: Found  3 space group operations
 (whereof  3 operations are pure point group operations),
 and found     1 'primitive' translations



 KPOINTS: Kpoints from vasprun.xml                

Automatic generation of k-mesh.
Space group operators:
 irot       det(A)        alpha          n_x          n_y          n_z        tau_x        tau_y        tau_z
    1     1.000000     0.000000     1.000000     0.000000     0.000000     0.000000     0.000000     0.000000
    2     1.000000   120.000000     0.000000     0.000000     1.000000     0.000000     0.000000     0.000000
    3     1.000000   120.000000     0.000000     0.000000    -1.000000     0.000000     0.000000     0.000000
 
 Subroutine IBZKPT returns following result:
 ===========================================
 
 Found      5 irreducible k-points:
 
 Following reciprocal coordinates:
            Coordinates               Weight
  0.000000  0.000000  0.000000      1.000000
  0.200000  0.000000  0.000000      6.000000
  0.400000  0.000000  0.000000      6.000000
  0.400000  0.200000  0.000000      6.000000
 -0.400000  0.200000  0.000000      6.000000
 
 Following cartesian coordinates:
            Coordinates               Weight
  0.000000  0.000000  0.000000      1.000000
  0.028953 -0.016716  0.000000      6.000000
  0.057906 -0.033432  0.000000      6.000000
  0.057906  0.000000  0.000000      6.000000
 -0.057906  0.066864  0.000000      6.000000
 
 TETIRR: Found     15 inequivalent tetrahedra from      150


--------------------------------------------------------------------------------------------------------




 Dimension of arrays:
   k-points           NKPTS =      5   k-points in BZ     NKDIM =      5   number of bands    NBANDS=     48
   number of dos      NEDOS =    301   number of ions     NIONS =     10
   non local maximal  LDIM  =      6   non local SUM 2l+1 LMDIM =     18
   total plane-waves  NPLWV = 524880
   max r-space proj   IRMAX =   7543   max aug-charges    IRDMAX=  31706
   dimension x,y,z NGX =    54 NGY =   54 NGZ =  180
   dimension x,y,z NGXF=   108 NGYF=  108 NGZF=  360
   support grid    NGXF=   108 NGYF=  108 NGZF=  360
   ions per type =               2   1   1   6
   NGX,Y,Z   is equivalent  to a cutoff of  13.00, 13.00, 12.76 a.u.
   NGXF,Y,Z  is equivalent  to a cutoff of  25.99, 25.99, 25.53 a.u.

 SYSTEM =  unknown system                          
 POSCAR =  Ni2 Si Ge Te6                           

 Startparameter for this run:
   NWRITE =      2    write-flag & timer
   PREC   = accura    normal or accurate (medium, high low for compatibility)
   ISTART =      0    job   : 0-new  1-cont  2-samecut
   ICHARG =      2    charge: 1-file 2-atom 10-const
   ISPIN  =      2    spin polarized calculation?
   LNONCOLLINEAR =      F non collinear calculations
   LSORBIT =      F    spin-orbit coupling
   INIWAV =      1    electr: 0-lowe 1-rand  2-diag
   LASPH  =      F    aspherical Exc in radial PAW
   METAGGA=      F    non-selfconsistent MetaGGA calc.

 Electronic Relaxation 1
   ENCUT  =  520.0 eV  38.22 Ry    6.18 a.u.  12.84 12.84 43.59*2*pi/ulx,y,z
   ENINI  =  520.0     initial cutoff
   ENAUG  =  544.6 eV  augmentation charge cutoff
   NELM   =    400;   NELMIN=  2; NELMDL=  0     # of ELM steps 
   EDIFF  = 0.1E-03   stopping-criterion for ELM
   LREAL  =      T    real-space projection
   NLSPLINE    = F    spline interpolate recip. space projectors
   LCOMPAT=      F    compatible to vasp.4.4
   GGA_COMPAT  = T    GGA compatible to vasp.4.4-vasp.4.6
   LMAXPAW     = -100 max onsite density
   LMAXMIX     =    2 max onsite mixed and CHGCAR
   VOSKOWN=      0    Vosko Wilk Nusair interpolation
   ROPT   =   -0.00025  -0.00025  -0.00025  -0.00025
 Ionic relaxation
   EDIFFG = 0.1E-02   stopping-criterion for IOM
   NSW    =     99    number of steps for IOM
   NBLOCK =      1;   KBLOCK =     99    inner block; outer block 
   IBRION =      2    ionic relax: 0-MD 1-quasi-New 2-CG
   NFREE  =      1    steps in history (QN), initial steepest desc. (CG)
   ISIF   =      3    stress and relaxation
   IWAVPR =     11    prediction:  0-non 1-charg 2-wave 3-comb
   ISYM   =      2    0-nonsym 1-usesym 2-fastsym
   LCORR  =      T    Harris-Foulkes like correction to forces

   POTIM  = 0.5000    time-step for ionic-motion
   TEIN   =    0.0    initial temperature
   TEBEG  =    0.0;   TEEND  =   0.0 temperature during run
   SMASS  =  -3.00    Nose mass-parameter (am)
   estimated Nose-frequenzy (Omega)   =  0.10E-29 period in steps =****** mass=  -0.109E-26a.u.
   SCALEE = 1.0000    scale energy and forces
   NPACO  =    256;   APACO  = 16.0  distance and # of slots for P.C.
   PSTRESS=    0.0 pullay stress

  Mass of Ions in am
   POMASS =  58.69 28.09 72.61127.60
  Ionic Valenz
   ZVAL   =  10.00  4.00  4.00  6.00
  Atomic Wigner-Seitz radii
   RWIGS  =  -1.00 -1.00 -1.00 -1.00
  virtual crystal weights 
   VCA    =   1.00  1.00  1.00  1.00
   NELECT =      64.0000    total number of electrons
   NUPDOWN=      -1.0000    fix difference up-down

 DOS related values:
   EMIN   =  10.00;   EMAX   =-10.00  energy-range for DOS
   EFERMI =   0.00
   ISMEAR =    -5;   SIGMA  =   0.05  broadening in eV -4-tet -1-fermi 0-gaus

 Electronic relaxation 2 (details)
   IALGO  =     38    algorithm
   LDIAG  =      T    sub-space diagonalisation (order eigenvalues)
   LSUBROT=      F    optimize rotation matrix (better conditioning)
   TURBO    =      0    0=normal 1=particle mesh
   IRESTART =      0    0=no restart 2=restart with 2 vectors
   NREBOOT  =      0    no. of reboots
   NMIN     =      0    reboot dimension
   EREF     =   0.00    reference energy to select bands
   IMIX   =      4    mixing-type and parameters
     AMIX     =   0.40;   BMIX     =  1.00
     AMIX_MAG =   1.60;   BMIX_MAG =  1.00
     AMIN     =   0.01
     WC   =   100.;   INIMIX=   1;  MIXPRE=   1;  MAXMIX= -45

 Intra band minimization:
   WEIMIN = 0.0010     energy-eigenvalue tresh-hold
   EBREAK =  0.52E-06  absolut break condition
   DEPER  =   0.30     relativ break condition  

   TIME   =   0.40     timestep for ELM

  volume/ion in A,a.u.               =      96.88       653.80
  Fermi-wavevector in a.u.,A,eV,Ry     =   0.661787  1.250596  5.958835  0.437962
  Thomas-Fermi vector in A             =   1.734655

 Write flags
   LWAVE        =      F    write WAVECAR
   LDOWNSAMPLE  =      F    k-point downsampling of WAVECAR
   LCHARG       =      T    write CHGCAR
   LVTOT        =      F    write LOCPOT, total local potential
   LVHAR        =      F    write LOCPOT, Hartree potential only
   LELF         =      F    write electronic localiz. function (ELF)
   LORBIT       =     11    0 simple, 1 ext, 2 COOP (PROOUT), +10 PAW based schemes


 Dipole corrections
   LMONO  =      F    monopole corrections only (constant potential shift)
   LDIPOL =      F    correct potential (dipole corrections)
   IDIPOL =      0    1-x, 2-y, 3-z, 4-all directions 
   EPSILON=  1.0000000 bulk dielectric constant

 Exchange correlation treatment:
   GGA     =    BO    GGA type
   LEXCH   =    42    internal setting for exchange type
   VOSKOWN=      0    Vosko Wilk Nusair interpolation
   LHFCALC =     F    Hartree Fock is set to
   LHFONE  =     F    Hartree Fock one center treatment
   AEXX    =    0.0000 exact exchange contribution

 vdW DFT:
   LUSE_VDW   =     T    switch on vdW DFT
   Zab_VDW    =-.8491    correlation parameter
   PARAM1     =0.1833
   PARAM2     =0.2200
   PARAM3     =0.0000
   -- rVV10 --
   BPARAM     = 6.3000
   CPARAM     = 0.0093

 Linear response parameters
   LEPSILON=     F    determine dielectric tensor
   LRPA    =     F    only Hartree local field effects (RPA)
   LNABLA  =     F    use nabla operator in PAW spheres
   LVEL    =     F    velocity operator in full k-point grid
   LINTERFAST=   F  fast interpolation
   KINTER  =     0    interpolate to denser k-point grid
   CSHIFT  =0.1000    complex shift for real part using Kramers Kronig
   OMEGAMAX=  -1.0    maximum frequency
   DEG_THRESHOLD= 0.2000000E-02 threshold for treating states as degnerate
   RTIME   =   -0.100 relaxation time in fs
  (WPLASMAI=    0.000 imaginary part of plasma frequency in eV, 0.658/RTIME)
   DFIELD  = 0.0000000 0.0000000 0.0000000 field for delta impulse in time

 Orbital magnetization related:
   ORBITALMAG=     F  switch on orbital magnetization
   LCHIMAG   =     F  perturbation theory with respect to B field
   DQ        =  0.001000  dq finite difference perturbation B field
   LLRAUG    =     F  two centre corrections for induced B field



--------------------------------------------------------------------------------------------------------


 conjugate gradient relaxation of ions
 charge density and potential will be updated during run
 spin polarized calculation
 Variant of blocked Davidson
 Davidson routine will perform the subspace rotation
 perform sub-space diagonalisation
    after iterative eigenvector-optimisation
 modified Broyden-mixing scheme, WC =      100.0
 initial mixing is a Kerker type mixing with AMIX =  0.4000 and BMIX =      1.0000
 Hartree-type preconditioning will be used
 using additional bands           16
 real space projection scheme for non local part
 use partial core corrections
 calculate Harris-corrections to forces   (improved forces if not selfconsistent)
 use gradient corrections 
 use of overlap-Matrix (Vanderbilt PP)
 Fermi weights with tetrahedron method with Bloechl corrections


--------------------------------------------------------------------------------------------------------


  energy-cutoff  :      520.00
  volume of cell :      968.84
      direct lattice vectors                 reciprocal lattice vectors
     6.907777000 -0.000000000  0.000000000     0.144764372 -0.083579742  0.000000000
     3.453888000  5.982310000  0.000000000     0.000000000  0.167159509 -0.000000000
     0.000000000  0.000000000 23.444588000    -0.000000000  0.000000000  0.042653767

  length of vectors
     6.907777000  6.907776433 23.444588000     0.167159495  0.167159509  0.042653767



 k-points in units of 2pi/SCALE and weight: Kpoints from vasprun.xml                
   0.00000000  0.00000000  0.00000000       0.040
   0.02895287 -0.01671595  0.00000000       0.240
   0.05790575 -0.03343190  0.00000000       0.240
   0.05790575  0.00000000  0.00000000       0.240
  -0.05790575  0.06686380  0.00000000       0.240

 k-points in reciprocal lattice and weights: Kpoints from vasprun.xml                
   0.00000000  0.00000000  0.00000000       0.040
   0.20000000  0.00000000  0.00000000       0.240
   0.40000000  0.00000000  0.00000000       0.240
   0.40000000  0.20000000  0.00000000       0.240
  -0.40000000  0.20000000  0.00000000       0.240

 position of ions in fractional coordinates (direct lattice) 
   0.33333300  0.33333300  0.49992500
   0.66666700  0.66666700  0.50007500
   0.00000000  0.00000000  0.44821600
   0.00000000  0.00000000  0.55178400
   0.62635700  0.00042000  0.57375200
   0.00042000  0.37322400  0.57375200
   0.37322400  0.62635700  0.57375200
   0.37364300  0.99958000  0.42624800
   0.99958000  0.62677600  0.42624800
   0.62677600  0.37364300  0.42624800

 position of ions in cartesian coordinates  (Angst):
   3.45388488  1.99410134 11.72053566
   6.90778012  3.98820866 11.72405234
   0.00000000  0.00000000 10.50823946
   0.00000000  0.00000000 12.93634854
   4.32818511  0.00251257 13.45137925
   1.29197516  2.23274167 13.45137925
   4.74151509  3.74706174 13.45137925
   6.03347989  5.97979743  9.99320875
   9.06968984  3.74956833  9.99320875
   5.62014991  2.23524826  9.99320875



--------------------------------------------------------------------------------------------------------


 k-point  1 :   0.0000 0.0000 0.0000  plane waves:   26073
 k-point  2 :   0.2000 0.0000 0.0000  plane waves:   26070
 k-point  3 :   0.4000 0.0000 0.0000  plane waves:   26086
 k-point  4 :   0.4000 0.2000 0.0000  plane waves:   26085
 k-point  5 :  -0.4000 0.2000 0.0000  plane waves:   26115

 maximum and minimum number of plane-waves per node :     26115    26070

 maximum number of plane-waves:     26115
 maximum index in each direction: 
   IXMAX=   13   IYMAX=   12   IZMAX=   43
   IXMIN=  -13   IYMIN=  -13   IZMIN=  -43


 serial   3D FFT for wavefunctions
 parallel 3D FFT for charge:
    minimum data exchange during FFTs selected (reduces bandwidth)


 total amount of memory used by VASP MPI-rank0   116323. kBytes
=======================================================================

   base      :      30000. kBytes
   nonlr-proj:       8213. kBytes
   fftplans  :       8558. kBytes
   grid      :      60832. kBytes
   one-center:        311. kBytes
   wavefun   :       8409. kBytes

     INWAV:  cpu time    0.0000: real time    0.0004
 Broyden mixing: mesh for mixing (old mesh)
   NGX = 25   NGY = 25   NGZ = 87
  (NGX  =108   NGY  =108   NGZ  =360)
  gives a total of  54375 points

 initial charge density was supplied:
 charge density of overlapping atoms calculated
 number of electron      64.0000000 magnetization       7.3200000
 keeping initial charge density in first step


--------------------------------------------------------------------------------------------------------


 Maximum index for non-local projection operator         7247
 Maximum index for augmentation-charges         1805 (set IRDMAX)


--------------------------------------------------------------------------------------------------------


 First call to EWALD:  gamma=   0.179
 Maximum number of real-space cells 4x 4x 1
 Maximum number of reciprocal cells 2x 2x 6

    FEWALD:  cpu time    0.0040: real time    0.0016


--------------------------------------- Iteration      1(   1)  ---------------------------------------


vdW kernel read from vdw_kernel.bindat
  0.0000  0.2424  0.5071  0.7962  1.1119  1.4567  1.8333  2.2446  2.6937  3.1842
  3.7199  4.3049  4.9438  5.6415  6.4036  7.2358  8.1446  9.1372 10.2212 11.4050
 12.6979 14.1099 15.6519 17.3360 19.1751 21.1837 23.3773 25.7729 28.3892 31.2465
 34.3669 37.7748 41.4965 45.5611 50.0000

    POTLOK:  cpu time   40.2440: real time   60.7806
    SETDIJ:  cpu time    0.0440: real time    0.0837
     EDDAV:  cpu time   21.0880: real time   31.3650
 BZINTS: Fermi energy:  5.201641; 63.974326 electrons
         Band energy:  -7.206286;  BLOECHL correction: -0.052487
       DOS:  cpu time    0.0080: real time    0.0098
    --------------------------------------------
      LOOP:  cpu time   61.3840: real time   92.2391

 eigenvalue-minimisations  :   960
 total energy-change (2. order) : 0.3719898E+03  (-0.1975352E+04)
 number of electron      64.0000000 magnetization       7.3200000
 augmentation part       64.0000000 magnetization       7.3200000

 Free energy of the ion-electron system (eV)
  ---------------------------------------------------
  alpha Z        PSCENC =        18.74779820
  Ewald energy   TEWEN  =      8065.03639907
  -Hartree energ DENC   =    -11433.89828023
  -exchange      EXHF   =         0.00000000
  -V(xc)+E(xc)   XCENC  =      -131.69314055
  PAW double counting   =      2444.04415745    -2302.88780480
  entropy T*S    EENTRO =         0.00000000
  eigenvalues    EBANDS =        -7.20628621
  atomic energy  EATOM  =      3719.84694474
  Solvation  Ediel_sol  =         0.00000000
  ---------------------------------------------------
  free energy    TOTEN  =       371.98978767 eV

  energy without entropy =      371.98978767  energy(sigma->0) =      371.98978767


--------------------------------------------------------------------------------------------------------




--------------------------------------- Iteration      1(   2)  ---------------------------------------


     EDDAV:  cpu time   26.2120: real time   39.0642
 BZINTS: Fermi energy: -1.271831; 64.000000 electrons
         Band energy:-376.383244;  BLOECHL correction:  0.000000
       DOS:  cpu time    0.0080: real time    0.0079
    --------------------------------------------
      LOOP:  cpu time   26.2200: real time   39.0721

 eigenvalue-minimisations  :  1320
 total energy-change (2. order) :-0.3691770E+03  (-0.3569936E+03)
 number of electron      64.0000000 magnetization       7.3200000
 augmentation part       64.0000000 magnetization       7.3200000

 Free energy of the ion-electron system (eV)
  ---------------------------------------------------
  alpha Z        PSCENC =        18.74779820
  Ewald energy   TEWEN  =      8065.03639907
  -Hartree energ DENC   =    -11433.89828023
  -exchange      EXHF   =         0.00000000
  -V(xc)+E(xc)   XCENC  =      -131.69314055
  PAW double counting   =      2444.04415745    -2302.88780480
  entropy T*S    EENTRO =         0.00000000
  eigenvalues    EBANDS =      -376.38324384
  atomic energy  EATOM  =      3719.84694474
  Solvation  Ediel_sol  =         0.00000000
  ---------------------------------------------------
  free energy    TOTEN  =         2.81283004 eV

  energy without entropy =        2.81283004  energy(sigma->0) =        2.81283004


--------------------------------------------------------------------------------------------------------




--------------------------------------- Iteration      1(   3)  ---------------------------------------


     EDDAV:  cpu time   26.6920: real time   39.2905
 BZINTS: Fermi energy: -1.948320; 64.000000 electrons
         Band energy:-411.993309;  BLOECHL correction: -0.012884
       DOS:  cpu time    0.0080: real time    0.0194
    --------------------------------------------
      LOOP:  cpu time   26.7000: real time   39.3100

 eigenvalue-minimisations  :  1344
 total energy-change (2. order) :-0.3561007E+02  (-0.3523697E+02)
 number of electron      64.0000000 magnetization       7.3200000
 augmentation part       64.0000000 magnetization       7.3200000

 Free energy of the ion-electron system (eV)
  ---------------------------------------------------
  alpha Z        PSCENC =        18.74779820
  Ewald energy   TEWEN  =      8065.03639907
  -Hartree energ DENC   =    -11433.89828023
  -exchange      EXHF   =         0.00000000
  -V(xc)+E(xc)   XCENC  =      -131.69314055
  PAW double counting   =      2444.04415745    -2302.88780480
  entropy T*S    EENTRO =         0.00000000
  eigenvalues    EBANDS =      -411.99330921
  atomic energy  EATOM  =      3719.84694474
  Solvation  Ediel_sol  =         0.00000000
  ---------------------------------------------------
  free energy    TOTEN  =       -32.79723532 eV

  energy without entropy =      -32.79723532  energy(sigma->0) =      -32.79723532


--------------------------------------------------------------------------------------------------------




--------------------------------------- Iteration      1(   4)  ---------------------------------------


     EDDAV:  cpu time   27.1920: real time   40.5440
 BZINTS: Fermi energy: -1.953899; 64.000000 electrons
         Band energy:-413.071832;  BLOECHL correction: -0.013169
       DOS:  cpu time    0.0080: real time    0.0149
    --------------------------------------------
      LOOP:  cpu time   27.2000: real time   40.5589

 eigenvalue-minimisations  :  1416
 total energy-change (2. order) :-0.1078523E+01  (-0.1077787E+01)
 number of electron      64.0000000 magnetization       7.3200000
 augmentation part       64.0000000 magnetization       7.3200000

 Free energy of the ion-electron system (eV)
  ---------------------------------------------------
  alpha Z        PSCENC =        18.74779820
  Ewald energy   TEWEN  =      8065.03639907
  -Hartree energ DENC   =    -11433.89828023
  -exchange      EXHF   =         0.00000000
  -V(xc)+E(xc)   XCENC  =      -131.69314055
  PAW double counting   =      2444.04415745    -2302.88780480
  entropy T*S    EENTRO =         0.00000000
  eigenvalues    EBANDS =      -413.07183180
  atomic energy  EATOM  =      3719.84694474
  Solvation  Ediel_sol  =         0.00000000
  ---------------------------------------------------
  free energy    TOTEN  =       -33.87575791 eV

  energy without entropy =      -33.87575791  energy(sigma->0) =      -33.87575791


--------------------------------------------------------------------------------------------------------




--------------------------------------- Iteration      1(   5)  ---------------------------------------


     EDDAV:  cpu time   31.1120: real time   45.5910
 BZINTS: Fermi energy: -1.953948; 64.000000 electrons
         Band energy:-413.087639;  BLOECHL correction: -0.013181
       DOS:  cpu time    0.0080: real time    0.0247
    CHARGE:  cpu time    1.5680: real time    2.4572
    MIXING:  cpu time    0.0240: real time    0.0503
    --------------------------------------------
      LOOP:  cpu time   32.7120: real time   48.1232

 eigenvalue-minimisations  :  1560
 total energy-change (2. order) :-0.1580705E-01  (-0.1580003E-01)
 number of electron      63.9999998 magnetization       6.7495963
 augmentation part        2.5086693 magnetization       5.9391345

 Broyden mixing:
  rms(total) = 0.15980E+01    rms(broyden)= 0.15971E+01
  rms(prec ) = 0.17050E+01
  weight for this iteration     100.00

 Free energy of the ion-electron system (eV)
  ---------------------------------------------------
  alpha Z        PSCENC =        18.74779820
  Ewald energy   TEWEN  =      8065.03639907
  -Hartree energ DENC   =    -11433.89828023
  -exchange      EXHF   =         0.00000000
  -V(xc)+E(xc)   XCENC  =      -131.69314055
  PAW double counting   =      2444.04415745    -2302.88780480
  entropy T*S    EENTRO =         0.00000000
  eigenvalues    EBANDS =      -413.08763885
  atomic energy  EATOM  =      3719.84694474
  Solvation  Ediel_sol  =         0.00000000
  ---------------------------------------------------
  free energy    TOTEN  =       -33.89156496 eV

  energy without entropy =      -33.89156496  energy(sigma->0) =      -33.89156496


--------------------------------------------------------------------------------------------------------




--------------------------------------- Iteration      1(   6)  ---------------------------------------


    POTLOK:  cpu time   42.2360: real time   59.6739
    SETDIJ:  cpu time    0.0520: real time    0.0526
     EDDAV:  cpu time   22.5080: real time   34.6581
 BZINTS: Fermi energy: -2.988614; 64.000000 electrons
         Band energy:-526.923362;  BLOECHL correction: -0.063804
       DOS:  cpu time    0.0040: real time    0.0084
    CHARGE:  cpu time    1.6480: real time    2.4746
    MIXING:  cpu time    0.0280: real time    0.0553
    --------------------------------------------
      LOOP:  cpu time   66.4760: real time   96.9229

 eigenvalue-minimisations  :  1128
 total energy-change (2. order) :-0.1211327E+02  (-0.1357291E+02)
 number of electron      63.9999998 magnetization       6.5394044
 augmentation part        7.4599496 magnetization       5.0263350

 Broyden mixing:
  rms(total) = 0.25093E+01    rms(broyden)= 0.25089E+01
  rms(prec ) = 0.27096E+01
  weight for this iteration     100.00

 eigenvalues of (default mixing * dielectric matrix)
  average eigenvalue GAMMA=   0.3494
  0.3494

 Free energy of the ion-electron system (eV)
  ---------------------------------------------------
  alpha Z        PSCENC =        18.74779820
  Ewald energy   TEWEN  =      8065.03639907
  -Hartree energ DENC   =    -11344.59749013
  -exchange      EXHF   =         0.00000000
  -V(xc)+E(xc)   XCENC  =      -134.70861442
  PAW double counting   =      2330.42747126    -2173.83398039
  entropy T*S    EENTRO =         0.00000000
  eigenvalues    EBANDS =      -526.92336198
  atomic energy  EATOM  =      3719.84694474
  Solvation  Ediel_sol  =         0.00000000
  ---------------------------------------------------
  free energy    TOTEN  =       -46.00483366 eV

  energy without entropy =      -46.00483366  energy(sigma->0) =      -46.00483366


--------------------------------------------------------------------------------------------------------




--------------------------------------- Iteration      1(   7)  ---------------------------------------


    POTLOK:  cpu time   39.3480: real time   59.5655
    SETDIJ:  cpu time    0.0280: real time    0.0521
     EDDAV:  cpu time   23.5120: real time   35.1811
 BZINTS: Fermi energy: -2.585564; 64.000000 electrons
         Band energy:-438.869131;  BLOECHL correction: -0.023146
       DOS:  cpu time    0.0160: real time    0.0351
    CHARGE:  cpu time    1.5240: real time    2.4318
    MIXING:  cpu time    0.0520: real time    0.0513
    --------------------------------------------
      LOOP:  cpu time   64.4800: real time   97.3169

 eigenvalue-minimisations  :  1152
 total energy-change (2. order) : 0.1382886E+02  (-0.2531646E+01)
 number of electron      63.9999998 magnetization       6.0743672
 augmentation part        5.3419793 magnetization       4.5454864

 Broyden mixing:
  rms(total) = 0.67834E+00    rms(broyden)= 0.67823E+00
  rms(prec ) = 0.74409E+00
  weight for this iteration     100.00

 eigenvalues of (default mixing * dielectric matrix)
  average eigenvalue GAMMA=   0.6293
  0.7294  0.5291

 Free energy of the ion-electron system (eV)
  ---------------------------------------------------
  alpha Z        PSCENC =        18.74779820
  Ewald energy   TEWEN  =      8065.03639907
  -Hartree energ DENC   =    -11405.96974814
  -exchange      EXHF   =         0.00000000
  -V(xc)+E(xc)   XCENC  =      -132.77673668
  PAW double counting   =      2440.63069010    -2298.82219029
  entropy T*S    EENTRO =         0.00000000
  eigenvalues    EBANDS =      -438.86913062
  atomic energy  EATOM  =      3719.84694474
  Solvation  Ediel_sol  =         0.00000000
  ---------------------------------------------------
  free energy    TOTEN  =       -32.17597362 eV

  energy without entropy =      -32.17597362  energy(sigma->0) =      -32.17597362


--------------------------------------------------------------------------------------------------------




--------------------------------------- Iteration      1(   8)  ---------------------------------------


    POTLOK:  cpu time   38.1000: real time   59.0731
    SETDIJ:  cpu time    0.0320: real time    0.0890
     EDDAV:  cpu time   26.5760: real time   40.7408
 BZINTS: Fermi energy: -2.012889; 64.000000 electrons
         Band energy:-410.666940;  BLOECHL correction: -0.008536
       DOS:  cpu time    0.0120: real time    0.0379
    CHARGE:  cpu time    1.5040: real time    2.3921
    MIXING:  cpu time    0.0320: real time    0.0619
    --------------------------------------------
      LOOP:  cpu time   66.2560: real time  102.3948

 eigenvalue-minimisations  :  1392
 total energy-change (2. order) :-0.2308389E+00  (-0.7437399E+00)
 number of electron      63.9999998 magnetization       5.5153869
 augmentation part        3.4039735 magnetization       4.3925509

 Broyden mixing:
  rms(total) = 0.85137E+00    rms(broyden)= 0.85092E+00
  rms(prec ) = 0.91326E+00
  weight for this iteration     100.00

 eigenvalues of (default mixing * dielectric matrix)
  average eigenvalue GAMMA=   0.7355
  1.1596  0.5235  0.5235

 Free energy of the ion-electron system (eV)
  ---------------------------------------------------
  alpha Z        PSCENC =        18.74779820
  Ewald energy   TEWEN  =      8065.03639907
  -Hartree energ DENC   =    -11431.92995063
  -exchange      EXHF   =         0.00000000
  -V(xc)+E(xc)   XCENC  =      -132.03312491
  PAW double counting   =      2502.74054630    -2364.14848561
  entropy T*S    EENTRO =         0.00000000
  eigenvalues    EBANDS =      -410.66693965
  atomic energy  EATOM  =      3719.84694474
  Solvation  Ediel_sol  =         0.00000000
  ---------------------------------------------------
  free energy    TOTEN  =       -32.40681249 eV

  energy without entropy =      -32.40681249  energy(sigma->0) =      -32.40681249


--------------------------------------------------------------------------------------------------------




--------------------------------------- Iteration      1(   9)  ---------------------------------------


    POTLOK:  cpu time   39.3040: real time   59.1962
    SETDIJ:  cpu time    0.0320: real time    0.0680
     EDDAV:  cpu time   20.1880: real time   31.6863
 BZINTS: Fermi energy: -2.518014; 64.000000 electrons
         Band energy:-431.715217;  BLOECHL correction: -0.019584
       DOS:  cpu time    0.0120: real time    0.0174
    CHARGE:  cpu time    1.4760: real time    2.5014
    MIXING:  cpu time    0.0240: real time    0.0645
    --------------------------------------------
      LOOP:  cpu time   61.0360: real time   93.5338

 eigenvalue-minimisations  :  1008
 total energy-change (2. order) : 0.6779056E-01  (-0.5412642E+00)
 number of electron      63.9999998 magnetization       4.6844952
 augmentation part        5.1527167 magnetization       3.2881245

 Broyden mixing:
  rms(total) = 0.56174E+00    rms(broyden)= 0.56145E+00
  rms(prec ) = 0.60956E+00
  weight for this iteration     100.00

 eigenvalues of (default mixing * dielectric matrix)
  average eigenvalue GAMMA=   1.0081
  2.2196  0.8839  0.4645  0.4645

 Free energy of the ion-electron system (eV)
  ---------------------------------------------------
  alpha Z        PSCENC =        18.74779820
  Ewald energy   TEWEN  =      8065.03639907
  -Hartree energ DENC   =    -11411.79485464
  -exchange      EXHF   =         0.00000000
  -V(xc)+E(xc)   XCENC  =      -132.58497048
  PAW double counting   =      2481.90661942    -2341.78174140
  entropy T*S    EENTRO =         0.00000000
  eigenvalues    EBANDS =      -431.71521683
  atomic energy  EATOM  =      3719.84694474
  Solvation  Ediel_sol  =         0.00000000
  ---------------------------------------------------
  free energy    TOTEN  =       -32.33902193 eV

  energy without entropy =      -32.33902193  energy(sigma->0) =      -32.33902193


--------------------------------------------------------------------------------------------------------




--------------------------------------- Iteration      1(  10)  ---------------------------------------


    POTLOK:  cpu time   39.4920: real time   59.6895
    SETDIJ:  cpu time    0.0280: real time    0.0801
     EDDAV:  cpu time   23.6120: real time   36.0931
 BZINTS: Fermi energy: -2.267996; 64.023806 electrons
         Band energy:-417.992276;  BLOECHL correction: -0.009223
       DOS:  cpu time    0.0080: real time    0.0064
    CHARGE:  cpu time    1.5240: real time    2.4902
    MIXING:  cpu time    0.0360: real time    0.0635
    --------------------------------------------
      LOOP:  cpu time   64.7000: real time   98.4227

 eigenvalue-minimisations  :  1176
 total energy-change (2. order) : 0.1386442E+00  (-0.9476661E-01)
 number of electron      64.0238062 magnetization       4.2478911
 augmentation part        4.4413768 magnetization       3.0099346

 Broyden mixing:
  rms(total) = 0.16762E+00    rms(broyden)= 0.16743E+00
  rms(prec ) = 0.17036E+00
  weight for this iteration     100.00

 eigenvalues of (default mixing * dielectric matrix)
  average eigenvalue GAMMA=   1.0457
  2.5629  1.1307  0.4648  0.4648  0.6050

 Free energy of the ion-electron system (eV)
  ---------------------------------------------------
  alpha Z        PSCENC =        18.74779820
  Ewald energy   TEWEN  =      8065.03639907
  -Hartree energ DENC   =    -11424.56206109
  -exchange      EXHF   =         0.00000000
  -V(xc)+E(xc)   XCENC  =      -132.19996633
  PAW double counting   =      2515.19790623    -2376.27512233
  entropy T*S    EENTRO =         0.00000000
  eigenvalues    EBANDS =      -417.99227625
  atomic energy  EATOM  =      3719.84694474
  Solvation  Ediel_sol  =         0.00000000
  ---------------------------------------------------
  free energy    TOTEN  =       -32.20037776 eV

  energy without entropy =      -32.20037776  energy(sigma->0) =      -32.20037776


--------------------------------------------------------------------------------------------------------




--------------------------------------- Iteration      1(  11)  ---------------------------------------


    POTLOK:  cpu time   38.8000: real time   58.5876
    SETDIJ:  cpu time    0.0280: real time    0.0615
     EDDAV:  cpu time   29.5160: real time   44.9710
 BZINTS: Fermi energy: -2.229169; 64.000000 electrons
         Band energy:-416.274750;  BLOECHL correction: -0.011692
       DOS:  cpu time    0.0080: real time    0.0199
    CHARGE:  cpu time    1.7040: real time    2.3617
    MIXING:  cpu time    0.0240: real time    0.0602
    --------------------------------------------
      LOOP:  cpu time   70.0800: real time  106.0618

 eigenvalue-minimisations  :  1560
 total energy-change (2. order) :-0.4536474E-01  (-0.5613785E-01)
 number of electron      63.9999998 magnetization       3.6503138
 augmentation part        4.3855369 magnetization       2.5094255

 Broyden mixing:
  rms(total) = 0.32055E+00    rms(broyden)= 0.32047E+00
  rms(prec ) = 0.34673E+00
  weight for this iteration     100.00

 eigenvalues of (default mixing * dielectric matrix)
  average eigenvalue GAMMA=   1.0194
  2.9437  1.3661  0.7059  0.4683  0.4683  0.1641

 Free energy of the ion-electron system (eV)
  ---------------------------------------------------
  alpha Z        PSCENC =        18.74779820
  Ewald energy   TEWEN  =      8065.03639907
  -Hartree energ DENC   =    -11426.49112442
  -exchange      EXHF   =         0.00000000
  -V(xc)+E(xc)   XCENC  =      -132.09220676
  PAW double counting   =      2516.46380747    -2377.48261126
  entropy T*S    EENTRO =         0.00000000
  eigenvalues    EBANDS =      -416.27474954
  atomic energy  EATOM  =      3719.84694474
  Solvation  Ediel_sol  =         0.00000000
  ---------------------------------------------------
  free energy    TOTEN  =       -32.24574250 eV

  energy without entropy =      -32.24574250  energy(sigma->0) =      -32.24574250


--------------------------------------------------------------------------------------------------------




--------------------------------------- Iteration      1(  12)  ---------------------------------------


    POTLOK:  cpu time   39.9640: real time   59.2472
    SETDIJ:  cpu time    0.0560: real time    0.0859
     EDDAV:  cpu time   20.4320: real time   32.0112
 BZINTS: Fermi energy: -2.211237; 63.999417 electrons
         Band energy:-414.323074;  BLOECHL correction: -0.008341
       DOS:  cpu time    0.0080: real time    0.0058
    CHARGE:  cpu time    1.7440: real time    2.5205
    MIXING:  cpu time    0.0640: real time    0.0635
    --------------------------------------------
      LOOP:  cpu time   62.2680: real time   93.9341

 eigenvalue-minimisations  :  1008
 total energy-change (2. order) :-0.8302913E-01  (-0.5072352E-01)
 number of electron      63.9994167 magnetization       2.8208874
 augmentation part        4.3939590 magnetization       1.7016267

 Broyden mixing:
  rms(total) = 0.11321E+00    rms(broyden)= 0.11307E+00
  rms(prec ) = 0.11588E+00
  weight for this iteration     100.00

 eigenvalues of (default mixing * dielectric matrix)
  average eigenvalue GAMMA=   1.2303
  4.0166  1.8766  1.0008  0.4667  0.4667  0.6347  0.1503

 Free energy of the ion-electron system (eV)
  ---------------------------------------------------
  alpha Z        PSCENC =        18.74779820
  Ewald energy   TEWEN  =      8065.03639907
  -Hartree energ DENC   =    -11428.69330808
  -exchange      EXHF   =         0.00000000
  -V(xc)+E(xc)   XCENC  =      -132.12263823
  PAW double counting   =      2516.27431469    -2377.09520790
  entropy T*S    EENTRO =         0.00000000
  eigenvalues    EBANDS =      -414.32307412
  atomic energy  EATOM  =      3719.84694474
  Solvation  Ediel_sol  =         0.00000000
  ---------------------------------------------------
  free energy    TOTEN  =       -32.32877163 eV

  energy without entropy =      -32.32877163  energy(sigma->0) =      -32.32877163


--------------------------------------------------------------------------------------------------------




--------------------------------------- Iteration      1(  13)  ---------------------------------------


    POTLOK:  cpu time   37.6480: real time   57.8515
    SETDIJ:  cpu time    0.0400: real time    0.0713
     EDDAV:  cpu time   21.3800: real time   32.8292
 BZINTS: Fermi energy: -2.153490; 64.000000 electrons
         Band energy:-411.369041;  BLOECHL correction: -0.008553
       DOS:  cpu time    0.0120: real time    0.0238
    CHARGE:  cpu time    1.4680: real time    2.4064
    MIXING:  cpu time    0.0280: real time    0.0612
    --------------------------------------------
      LOOP:  cpu time   60.5760: real time   93.2435

 eigenvalue-minimisations  :  1056
 total energy-change (2. order) :-0.7752654E-01  (-0.1518870E-01)
 number of electron      63.9999998 magnetization       2.1602583
 augmentation part        4.2934830 magnetization       1.0960887

 Broyden mixing:
  rms(total) = 0.12072E+00    rms(broyden)= 0.12070E+00
  rms(prec ) = 0.13043E+00
  weight for this iteration     100.00

 eigenvalues of (default mixing * dielectric matrix)
  average eigenvalue GAMMA=   1.5544
  6.3038  2.3693  1.1920  0.4678  0.4678  0.8484  0.6359  0.1499

 Free energy of the ion-electron system (eV)
  ---------------------------------------------------
  alpha Z        PSCENC =        18.74779820
  Ewald energy   TEWEN  =      8065.03639907
  -Hartree energ DENC   =    -11431.91961391
  -exchange      EXHF   =         0.00000000
  -V(xc)+E(xc)   XCENC  =      -132.13080744
  PAW double counting   =      2512.55240604    -2373.17038342
  entropy T*S    EENTRO =         0.00000000
  eigenvalues    EBANDS =      -411.36904146
  atomic energy  EATOM  =      3719.84694474
  Solvation  Ediel_sol  =         0.00000000
  ---------------------------------------------------
  free energy    TOTEN  =       -32.40629817 eV

  energy without entropy =      -32.40629817  energy(sigma->0) =      -32.40629817


--------------------------------------------------------------------------------------------------------




--------------------------------------- Iteration      1(  14)  ---------------------------------------


    POTLOK:  cpu time   38.7000: real time   58.2576
    SETDIJ:  cpu time    0.0560: real time    0.0706
     EDDAV:  cpu time   19.9600: real time   30.5971
 BZINTS: Fermi energy: -2.186872; 64.000000 electrons
         Band energy:-412.887652;  BLOECHL correction: -0.015441
       DOS:  cpu time    0.0040: real time    0.0052
    CHARGE:  cpu time    1.5960: real time    2.4680
    MIXING:  cpu time    0.0440: real time    0.0599
    --------------------------------------------
      LOOP:  cpu time   60.3600: real time   91.4585

 eigenvalue-minimisations  :   960
 total energy-change (2. order) :-0.5434975E-01  (-0.6358528E-02)
 number of electron      63.9999998 magnetization       1.9613777
 augmentation part        4.4829862 magnetization       0.9115247

 Broyden mixing:
  rms(total) = 0.54321E-01    rms(broyden)= 0.54263E-01
  rms(prec ) = 0.56281E-01
  weight for this iteration     100.00

 eigenvalues of (default mixing * dielectric matrix)
  average eigenvalue GAMMA=   1.7403
  8.2179  2.5631  1.5920  0.9059  0.4679  0.4679  0.6878  0.6102  0.1500

 Free energy of the ion-electron system (eV)
  ---------------------------------------------------
  alpha Z        PSCENC =        18.74779820
  Ewald energy   TEWEN  =      8065.03639907
  -Hartree energ DENC   =    -11430.64245841
  -exchange      EXHF   =         0.00000000
  -V(xc)+E(xc)   XCENC  =      -132.27223251
  PAW double counting   =      2502.58619740    -2362.87564444
  entropy T*S    EENTRO =         0.00000000
  eigenvalues    EBANDS =      -412.88765197
  atomic energy  EATOM  =      3719.84694474
  Solvation  Ediel_sol  =         0.00000000
  ---------------------------------------------------
  free energy    TOTEN  =       -32.46064792 eV

  energy without entropy =      -32.46064792  energy(sigma->0) =      -32.46064792


--------------------------------------------------------------------------------------------------------




--------------------------------------- Iteration      1(  15)  ---------------------------------------


    POTLOK:  cpu time   40.7080: real time   60.7874
    SETDIJ:  cpu time    0.0640: real time    0.0619
     EDDAV:  cpu time   19.8240: real time   30.4847
 BZINTS: Fermi energy: -2.152687; 64.000000 electrons
         Band energy:-411.446334;  BLOECHL correction: -0.016957
       DOS:  cpu time    0.0120: real time    0.0189
    CHARGE:  cpu time    1.5240: real time    2.4602
    MIXING:  cpu time    0.0720: real time    0.0740
    --------------------------------------------
      LOOP:  cpu time   62.2040: real time   93.8870

 eigenvalue-minimisations  :   960
 total energy-change (2. order) :-0.3778664E-02  (-0.1564829E-02)
 number of electron      63.9999998 magnetization       1.8601149
 augmentation part        4.4055974 magnetization       0.8324508

 Broyden mixing:
  rms(total) = 0.29566E-01    rms(broyden)= 0.29558E-01
  rms(prec ) = 0.32227E-01
  weight for this iteration     100.00

 eigenvalues of (default mixing * dielectric matrix)
  average eigenvalue GAMMA=   1.8227
  9.5566  2.6009  1.7977  0.9386  0.9386  0.4680  0.4680  0.6961  0.6124  0.1500

 Free energy of the ion-electron system (eV)
  ---------------------------------------------------
  alpha Z        PSCENC =        18.74779820
  Ewald energy   TEWEN  =      8065.03639907
  -Hartree energ DENC   =    -11431.84733707
  -exchange      EXHF   =         0.00000000
  -V(xc)+E(xc)   XCENC  =      -132.28608529
  PAW double counting   =      2504.82188837    -2365.33770019
  entropy T*S    EENTRO =         0.00000000
  eigenvalues    EBANDS =      -411.44633441
  atomic energy  EATOM  =      3719.84694474
  Solvation  Ediel_sol  =         0.00000000
  ---------------------------------------------------
  free energy    TOTEN  =       -32.46442659 eV

  energy without entropy =      -32.46442659  energy(sigma->0) =      -32.46442659


--------------------------------------------------------------------------------------------------------




--------------------------------------- Iteration      1(  16)  ---------------------------------------


    POTLOK:  cpu time   38.3800: real time   60.1115
    SETDIJ:  cpu time    0.0840: real time    0.0828
     EDDAV:  cpu time   20.5040: real time   31.5419
 BZINTS: Fermi energy: -2.163120; 64.000000 electrons
         Band energy:-411.945491;  BLOECHL correction: -0.018841
       DOS:  cpu time    0.0080: real time    0.0053
    CHARGE:  cpu time    1.4840: real time    2.5419
    MIXING:  cpu time    0.0240: real time    0.0579
    --------------------------------------------
      LOOP:  cpu time   60.4840: real time   94.3413

 eigenvalue-minimisations  :   984
 total energy-change (2. order) :-0.8688821E-03  (-0.5011848E-03)
 number of electron      63.9999998 magnetization       1.8302214
 augmentation part        4.4526198 magnetization       0.8090035

 Broyden mixing:
  rms(total) = 0.12634E-01    rms(broyden)= 0.12608E-01
  rms(prec ) = 0.13685E-01
  weight for this iteration     100.00

 eigenvalues of (default mixing * dielectric matrix)
  average eigenvalue GAMMA=   1.8034
  9.8768  2.5817  2.1167  1.0745  1.0745  0.4680  0.4680  0.8027  0.6477  0.5769
  0.1500

 Free energy of the ion-electron system (eV)
  ---------------------------------------------------
  alpha Z        PSCENC =        18.74779820
  Ewald energy   TEWEN  =      8065.03639907
  -Hartree energ DENC   =    -11431.27814093
  -exchange      EXHF   =         0.00000000
  -V(xc)+E(xc)   XCENC  =      -132.31953035
  PAW double counting   =      2504.81396850    -2365.36724349
  entropy T*S    EENTRO =         0.00000000
  eigenvalues    EBANDS =      -411.94549120
  atomic energy  EATOM  =      3719.84694474
  Solvation  Ediel_sol  =         0.00000000
  ---------------------------------------------------
  free energy    TOTEN  =       -32.46529547 eV

  energy without entropy =      -32.46529547  energy(sigma->0) =      -32.46529547


--------------------------------------------------------------------------------------------------------




--------------------------------------- Iteration      1(  17)  ---------------------------------------


    POTLOK:  cpu time   38.6600: real time   58.4310
    SETDIJ:  cpu time    0.0600: real time    0.0794
     EDDAV:  cpu time   22.7520: real time   33.6728
 BZINTS: Fermi energy: -2.157631; 64.000000 electrons
         Band energy:-411.763034;  BLOECHL correction: -0.019386
       DOS:  cpu time    0.0040: real time    0.0044
    --------------------------------------------
      LOOP:  cpu time   61.4760: real time   92.1876

 eigenvalue-minimisations  :  1104
 total energy-change (2. order) :-0.5034960E-04  (-0.8284816E-04)
 number of electron      63.9999998 magnetization       1.8302214
 augmentation part        4.4526198 magnetization       0.8090035

 Free energy of the ion-electron system (eV)
  ---------------------------------------------------
  alpha Z        PSCENC =        18.74779820
  Ewald energy   TEWEN  =      8065.03639907
  -Hartree energ DENC   =    -11431.41280149
  -exchange      EXHF   =         0.00000000
  -V(xc)+E(xc)   XCENC  =      -132.32547418
  PAW double counting   =      2505.81635876    -2366.41153676
  entropy T*S    EENTRO =         0.00000000
  eigenvalues    EBANDS =      -411.76303416
  atomic energy  EATOM  =      3719.84694474
  Solvation  Ediel_sol  =         0.00000000
  ---------------------------------------------------
  free energy    TOTEN  =       -32.46534582 eV

  energy without entropy =      -32.46534582  energy(sigma->0) =      -32.46534582


--------------------------------------------------------------------------------------------------------




 average (electrostatic) potential at core
  the test charge radii are     0.9791  0.9892  1.1631  1.1897
  (the norm of the test charge is              1.0000)
       1 -49.2311       2 -49.2298       3 -92.3505       4 -39.1526       5 -96.7787
       6 -96.7787       7 -96.7787       8 -96.7646       9 -96.7646      10 -96.7645



 E-fermi :  -2.1576     XC(G=0):  -3.6309     alpha+bet : -2.9486


 spin component 1

 k-point     1 :       0.0000    0.0000    0.0000
  band No.  band energies     occupation 
      1     -14.7339      1.00000
      2     -13.9018      1.00000
      3     -12.9064      1.00000
      4     -12.9063      1.00000
      5     -12.8250      1.00000
      6     -12.8250      1.00000
      7     -10.8032      1.00000
      8      -8.6450      1.00000
      9      -6.8173      1.00000
     10      -6.6055      1.00000
     11      -6.5956      1.00000
     12      -6.5956      1.00000
     13      -6.1999      1.00000
     14      -6.1999      1.00000
     15      -5.5240      1.00000
     16      -4.8892      1.00000
     17      -4.8892      1.00000
     18      -4.6846      1.00000
     19      -4.6846      1.00000
     20      -4.2451      1.00000
     21      -3.9074      1.00000
     22      -3.9074      1.00000
     23      -3.7891      1.00000
     24      -3.7498      1.00000
     25      -3.7310      1.00000
     26      -3.7310      1.00000
     27      -3.6709      1.00000
     28      -3.6709      1.00000
     29      -3.3534      1.00000
     30      -2.4834      1.00000
     31      -2.4834      1.00000
     32      -2.2007      1.00000
     33      -2.2007      1.00000
     34      -1.4732      0.00000
     35      -1.4732      0.00000
     36      -0.7950      0.00000
     37      -0.5831      0.00000
     38       0.8167      0.00000
     39       0.8167      0.00000
     40       0.8487      0.00000
     41       1.4833      0.00000
     42       1.8794      0.00000
     43       1.9885      0.00000
     44       2.0309      0.00000
     45       2.0309      0.00000
     46       2.2781      0.00000
     47       2.8896      0.00000
     48       2.8896      0.00000

 k-point     2 :       0.2000    0.0000    0.0000
  band No.  band energies     occupation 
      1     -14.6128      1.00000
      2     -13.8049      1.00000
      3     -13.1320      1.00000
      4     -13.0078      1.00000
      5     -12.9123      1.00000
      6     -12.8768      1.00000
      7     -10.6520      1.00000
      8      -8.6937      1.00000
      9      -6.9274      1.00000
     10      -6.6231      1.00000
     11      -6.5184      1.00000
     12      -6.2008      1.00000
     13      -5.8092      1.00000
     14      -5.6853      1.00000
     15      -5.3064      1.00000
     16      -4.9772      1.00000
     17      -4.9304      1.00000
     18      -4.8432      1.00000
     19      -4.4896      1.00000
     20      -4.2950      1.00000
     21      -4.1835      1.00000
     22      -4.0838      1.00000
     23      -3.8448      1.00000
     24      -3.8422      1.00000
     25      -3.7710      1.00000
     26      -3.6551      1.00000
     27      -3.6377      1.00000
     28      -3.5949      1.00000
     29      -3.4749      1.00000
     30      -3.1879      1.00000
     31      -2.8308      1.00000
     32      -2.1909      1.00000
     33      -2.1759      0.93604
     34      -2.0336      0.00000
     35      -1.6947      0.00000
     36      -0.3023      0.00000
     37      -0.1284      0.00000
     38       0.7765      0.00000
     39       0.8350      0.00000
     40       1.0847      0.00000
     41       1.5792      0.00000
     42       1.6468      0.00000
     43       1.9417      0.00000
     44       2.0537      0.00000
     45       2.1125      0.00000
     46       2.4245      0.00000
     47       2.7489      0.00000
     48       2.7858      0.00000

 k-point     3 :       0.4000    0.0000    0.0000
  band No.  band energies     occupation 
      1     -14.2877      1.00000
      2     -13.6523      1.00000
      3     -13.5331      1.00000
      4     -13.1659      1.00000
      5     -13.0715      1.00000
      6     -13.0091      1.00000
      7     -10.4316      1.00000
      8      -8.7160      1.00000
      9      -6.7861      1.00000
     10      -6.4619      1.00000
     11      -6.1552      1.00000
     12      -5.6236      1.00000
     13      -5.2873      1.00000
     14      -5.2730      1.00000
     15      -5.1649      1.00000
     16      -5.1304      1.00000
     17      -5.0291      1.00000
     18      -5.0091      1.00000
     19      -4.6056      1.00000
     20      -4.5082      1.00000
     21      -4.4903      1.00000
     22      -4.0810      1.00000
     23      -3.9335      1.00000
     24      -3.9030      1.00000
     25      -3.8656      1.00000
     26      -3.8066      1.00000
     27      -3.6830      1.00000
     28      -3.4718      1.00000
     29      -3.4291      1.00000
     30      -3.3941      1.00000
     31      -3.3138      1.00000
     32      -2.3551      1.00000
     33      -2.2560      1.07799
     34      -2.0960      0.00000
     35      -1.9166      0.00000
     36      -0.6895      0.00000
     37      -0.4348      0.00000
     38       0.6790      0.00000
     39       1.0131      0.00000
     40       1.1720      0.00000
     41       1.4355      0.00000
     42       1.6643      0.00000
     43       1.8249      0.00000
     44       2.1347      0.00000
     45       2.4562      0.00000
     46       2.6771      0.00000
     47       2.8301      0.00000
     48       2.8895      0.00000

 k-point     4 :       0.4000    0.2000    0.0000
  band No.  band energies     occupation 
      1     -14.3856      1.00000
      2     -13.6323      1.00000
      3     -13.3764      1.00000
      4     -13.2738      1.00000
      5     -13.0384      1.00000
      6     -12.9553      1.00000
      7     -10.4511      1.00000
      8      -8.6920      1.00000
      9      -6.9224      1.00000
     10      -6.4411      1.00000
     11      -6.3227      1.00000
     12      -5.8054      1.00000
     13      -5.2572      1.00000
     14      -5.1785      1.00000
     15      -5.1620      1.00000
     16      -5.1284      1.00000
     17      -5.0528      1.00000
     18      -4.9451      1.00000
     19      -4.6957      1.00000
     20      -4.5650      1.00000
     21      -4.4837      1.00000
     22      -4.0578      1.00000
     23      -3.8655      1.00000
     24      -3.8589      1.00000
     25      -3.8415      1.00000
     26      -3.7643      1.00000
     27      -3.6598      1.00000
     28      -3.4910      1.00000
     29      -3.4823      1.00000
     30      -3.3589      1.00000
     31      -3.0126      1.00000
     32      -2.6522      1.00000
     33      -2.1274      0.55282
     34      -2.0063      0.00000
     35      -1.7031      0.00000
     36      -0.6452      0.00000
     37      -0.3821      0.00000
     38       0.5186      0.00000
     39       0.6953      0.00000
     40       1.3093      0.00000
     41       1.4914      0.00000
     42       1.5810      0.00000
     43       1.8096      0.00000
     44       2.0322      0.00000
     45       2.3703      0.00000
     46       2.6768      0.00000
     47       2.7427      0.00000
     48       2.8944      0.00000

 k-point     5 :      -0.4000    0.2000    0.0000
  band No.  band energies     occupation 
      1     -14.1017      1.00000
      2     -13.7260      1.00000
      3     -13.4262      1.00000
      4     -13.3537      1.00000
      5     -13.2096      1.00000
      6     -13.0380      1.00000
      7     -10.3181      1.00000
      8      -8.6560      1.00000
      9      -6.7089      1.00000
     10      -6.2466      1.00000
     11      -6.2337      1.00000
     12      -5.8051      1.00000
     13      -5.5290      1.00000
     14      -5.3689      1.00000
     15      -5.1461      1.00000
     16      -4.9441      1.00000
     17      -4.8782      1.00000
     18      -4.8195      1.00000
     19      -4.7402      1.00000
     20      -4.7058      1.00000
     21      -4.3842      1.00000
     22      -4.1192      1.00000
     23      -3.9078      1.00000
     24      -3.8425      1.00000
     25      -3.8280      1.00000
     26      -3.6281      1.00000
     27      -3.6132      1.00000
     28      -3.4984      1.00000
     29      -3.4108      1.00000
     30      -3.3944      1.00000
     31      -3.1854      1.00000
     32      -2.3371      1.00000
     33      -2.3058      1.03843
     34      -2.1371      0.00000
     35      -1.7048      0.00000
     36      -1.1638      0.00000
     37      -0.5817      0.00000
     38       0.1303      0.00000
     39       0.4492      0.00000
     40       1.0956      0.00000
     41       1.2709      0.00000
     42       1.4489      0.00000
     43       2.0481      0.00000
     44       2.4766      0.00000
     45       2.6319      0.00000
     46       2.6735      0.00000
     47       2.7118      0.00000
     48       3.0747      0.00000

 spin component 2

 k-point     1 :       0.0000    0.0000    0.0000
  band No.  band energies     occupation 
      1     -14.6746      1.00000
      2     -13.8335      1.00000
      3     -12.8350      1.00000
      4     -12.8350      1.00000
      5     -12.7505      1.00000
      6     -12.7505      1.00000
      7     -10.7814      1.00000
      8      -8.6020      1.00000
      9      -6.7581      1.00000
     10      -6.5459      1.00000
     11      -6.5185      1.00000
     12      -6.5185      1.00000
     13      -6.1297      1.00000
     14      -6.1296      1.00000
     15      -5.4594      1.00000
     16      -4.4288      1.00000
     17      -4.4287      1.00000
     18      -4.2357      1.00000
     19      -4.2357      1.00000
     20      -4.0630      1.00000
     21      -3.6783      1.00000
     22      -3.6783      1.00000
     23      -3.6710      1.00000
     24      -3.4721      1.00000
     25      -3.4437      1.00000
     26      -3.4437      1.00000
     27      -3.4112      1.00000
     28      -3.4112      1.00000
     29      -3.1921      1.00000
     30      -2.3754      1.00000
     31      -2.3754      1.00000
     32      -1.8767      0.00000
     33      -1.8767      0.00000
     34      -1.1891      0.00000
     35      -1.1891      0.00000
     36      -0.7297      0.00000
     37      -0.5054      0.00000
     38       0.8648      0.00000
     39       0.8649      0.00000
     40       0.9370      0.00000
     41       1.5387      0.00000
     42       1.9344      0.00000
     43       2.0285      0.00000
     44       2.0859      0.00000
     45       2.0859      0.00000
     46       2.3327      0.00000
     47       2.9452      0.00000
     48       2.9453      0.00000

 k-point     2 :       0.2000    0.0000    0.0000
  band No.  band energies     occupation 
      1     -14.5535      1.00000
      2     -13.7362      1.00000
[...]
     34      -1.1255      0.00000
     35      -0.7216      0.00000
     36      -0.6532      0.00000
     37       0.4644      0.00000
     38       0.8700      0.00000
     39       1.0975      0.00000
     40       1.6716      0.00000
     41       1.8811      0.00000
     42       2.2159      0.00000
     43       2.5670      0.00000
     44       2.6366      0.00000
     45       2.8253      0.00000
     46       3.2820      0.00000
     47       3.4576      0.00000
     48       3.8057      0.00000

 k-point     5 :      -0.4000    0.2000    0.0000
  band No.  band energies     occupation 
      1     -13.7888      1.00000
      2     -13.7442      1.00000
      3     -13.2770      1.00000
      4     -12.7675      1.00000
      5     -12.7662      1.00000
      6     -12.5674      1.00000
      7      -9.9423      1.00000
      8      -8.1638      1.00000
      9      -6.5774      1.00000
     10      -6.0620      1.00000
     11      -5.9671      1.00000
     12      -5.6188      1.00000
     13      -5.4148      1.00000
     14      -5.2730      1.00000
     15      -5.0184      1.00000
     16      -4.7910      1.00000
     17      -4.5442      1.00000
     18      -4.4920      1.00000
     19      -4.4334      1.00000
     20      -4.2487      1.00000
     21      -4.1523      1.00000
     22      -3.9373      1.00000
     23      -3.6528      1.00000
     24      -3.4819      1.00000
     25      -3.4145      1.00000
     26      -3.2650      1.00000
     27      -3.1946      1.00000
     28      -2.9444      1.00000
     29      -2.9270      1.00000
     30      -2.7716      1.00000
     31      -2.4516      1.00000
     32      -1.9778      1.00000
     33      -1.4547      0.34366
     34      -1.4300      0.00000
     35      -0.9260      0.00000
     36      -0.7455      0.00000
     37       0.3451      0.00000
     38       0.5749      0.00000
     39       0.6202      0.00000
     40       1.4945      0.00000
     41       1.6957      0.00000
     42       2.0958      0.00000
     43       2.6952      0.00000
     44       2.9335      0.00000
     45       3.0745      0.00000
     46       3.2107      0.00000
     47       3.3068      0.00000
     48       3.7150      0.00000


--------------------------------------------------------------------------------------------------------


 soft charge-density along one line, spin component           1
         0         1         2         3         4         5         6         7         8         9
 total charge-density along one line

 soft charge-density along one line, spin component           2
         0         1         2         3         4         5         6         7         8         9
 total charge-density along one line

 pseudopotential strength for first ion, spin component:           1
 -9.900  -0.048   0.000  -0.018   0.000   1.117   0.021  -0.000
 -0.048  -9.973  -0.000   0.000  -0.018   0.021   1.148   0.000
  0.000  -0.000  -9.892   0.000   0.000  -0.000   0.000   1.113
 -0.018   0.000   0.000  -9.973   0.048   0.008  -0.000  -0.000
  0.000  -0.018   0.000   0.048  -9.900  -0.000   0.008  -0.000
  1.117   0.021  -0.000   0.008  -0.000   0.850  -0.009   0.000
  0.021   1.148   0.000  -0.000   0.008  -0.009   0.836   0.000
 -0.000   0.000   1.113  -0.000  -0.000   0.000   0.000   0.852
  0.008  -0.000  -0.000   1.148  -0.021  -0.003   0.000   0.000
 -0.000   0.008  -0.000  -0.021   1.117   0.000  -0.003   0.000
  0.000  -0.000   0.004  -0.000   0.000  -0.000  -0.000  -0.001
  0.000   0.000  -0.000   0.000  -0.000   0.000  -0.000   0.000
  0.001   0.007   0.000  -0.000   0.000  -0.001  -0.002  -0.000
 -0.000  -0.000   0.007  -0.000  -0.000  -0.000   0.000  -0.002
  0.000  -0.000   0.000   0.007  -0.001   0.001  -0.000  -0.000
 -0.000  -0.003  -0.000   0.000  -0.001   0.000   0.001   0.000
  0.000   0.000  -0.003   0.000   0.000  -0.000  -0.000   0.001
 -0.001   0.000  -0.000  -0.003   0.000   0.000  -0.000   0.000
 pseudopotential strength for first ion, spin component:           2
 -9.912  -0.052   0.000  -0.020   0.000   1.122   0.022  -0.000
 -0.052  -9.987  -0.000   0.000  -0.020   0.022   1.153   0.000
  0.000  -0.000  -9.900   0.000   0.000  -0.000   0.000   1.116
 -0.020   0.000   0.000  -9.987   0.052   0.009  -0.000  -0.000
  0.000  -0.020   0.000   0.052  -9.912  -0.000   0.009  -0.000
  1.122   0.022  -0.000   0.009  -0.000   0.848  -0.010   0.000
  0.022   1.153   0.000  -0.000   0.009  -0.010   0.834  -0.000
 -0.000   0.000   1.116  -0.000  -0.000   0.000  -0.000   0.851
  0.009  -0.000  -0.000   1.153  -0.022  -0.004   0.000   0.000
 -0.000   0.009  -0.000  -0.022   1.122   0.000  -0.004   0.000
  0.000  -0.000   0.004  -0.000   0.000  -0.000  -0.000  -0.001
  0.000   0.000  -0.000   0.000  -0.000  -0.000  -0.000   0.000
  0.001   0.007   0.000  -0.000   0.000  -0.001  -0.002  -0.000
 -0.000  -0.000   0.007  -0.000  -0.000  -0.000   0.000  -0.002
  0.000  -0.000   0.000   0.007  -0.001   0.001  -0.000  -0.000
 -0.000  -0.003  -0.000   0.000  -0.001   0.000   0.001   0.000
  0.000   0.000  -0.003   0.000   0.000  -0.000  -0.000   0.001
 -0.001   0.000  -0.000  -0.003   0.000   0.000  -0.000   0.000
 total augmentation occupancy for first ion, spin component:           1
  1.837  -0.131   0.000  -0.048  -0.000   0.049   0.085   0.000   0.034  -0.000  -0.000   0.000   0.013   0.000   0.005   0.000
 -0.131   1.707  -0.000  -0.000  -0.048   0.084   0.133   0.000   0.000   0.033  -0.000  -0.000   0.021   0.000   0.001  -0.000
  0.000  -0.000   1.942  -0.000  -0.000   0.000   0.000  -0.024   0.000  -0.000  -0.004   0.000   0.000   0.004   0.000   0.000
 -0.048  -0.000  -0.000   1.707   0.131   0.033  -0.000   0.000   0.133  -0.084   0.000  -0.000  -0.001  -0.000   0.021   0.000
 -0.000  -0.048  -0.000   0.131   1.837   0.000   0.034  -0.000  -0.085   0.049   0.000  -0.000   0.005  -0.000  -0.013  -0.001
  0.049   0.084   0.000   0.033   0.000   0.064   0.027   0.000   0.004  -0.000   0.000  -0.000  -0.017   0.000   0.026   0.001
  0.085   0.133   0.000  -0.000   0.034   0.027   0.090   0.000  -0.000   0.004   0.000   0.000   0.006  -0.000  -0.002  -0.001
  0.000   0.000  -0.024   0.000  -0.000   0.000   0.000   0.050   0.000  -0.000   0.009  -0.006  -0.000   0.017   0.000   0.000
  0.034   0.000   0.000   0.133  -0.085   0.004  -0.000   0.000   0.090  -0.027   0.000   0.000   0.002   0.000   0.006  -0.000
 -0.000   0.033  -0.000  -0.084   0.049  -0.000   0.004  -0.000  -0.027   0.064  -0.000   0.000   0.026  -0.000   0.017  -0.003
 -0.000  -0.000  -0.004   0.000   0.000   0.000   0.000   0.009   0.000  -0.000   1.076  -0.288   0.000   0.025   0.000   0.000
  0.000  -0.000   0.000  -0.000  -0.000  -0.000   0.000  -0.006   0.000   0.000  -0.288   0.135   0.000  -0.012   0.000  -0.000
  0.013   0.021   0.000  -0.001   0.005  -0.017   0.006  -0.000   0.002   0.026   0.000   0.000   0.204  -0.000  -0.000  -0.013
  0.000  -0.000   0.004   0.000  -0.000   0.000  -0.000   0.017   0.000  -0.000   0.025  -0.012  -0.000   0.208   0.000   0.000
  0.005   0.001   0.000   0.021  -0.013   0.026  -0.002   0.000   0.006   0.017   0.000   0.000  -0.000   0.000   0.204  -0.000
  0.000  -0.000   0.000   0.000  -0.001   0.001  -0.001   0.000  -0.000  -0.003   0.000  -0.000  -0.013   0.000  -0.000   0.001
  0.000   0.000   0.000  -0.000  -0.000  -0.000   0.000  -0.001   0.000   0.000  -0.003   0.002   0.000  -0.014   0.000  -0.000
 -0.001  -0.000  -0.000  -0.000  -0.000  -0.003   0.000  -0.000  -0.001  -0.001   0.000  -0.000   0.000   0.000  -0.013  -0.000
 total augmentation occupancy for first ion, spin component:           2
 -0.002  -0.002  -0.000  -0.001   0.000   0.002   0.001   0.000   0.001  -0.000   0.000   0.000   0.000   0.000  -0.000   0.000
 -0.002  -0.003  -0.000   0.000  -0.001   0.001   0.002   0.000  -0.000   0.001   0.000   0.000   0.000  -0.000  -0.000  -0.000
 -0.000  -0.000  -0.000  -0.000   0.000   0.000   0.000   0.001   0.000  -0.000   0.000   0.000   0.000   0.000   0.000   0.000
 -0.001   0.000  -0.000  -0.003   0.002   0.001   0.000   0.000   0.002  -0.001  -0.000  -0.000   0.000   0.000   0.000   0.000
  0.000  -0.001   0.000   0.002  -0.002   0.000   0.001  -0.000  -0.001   0.002  -0.000  -0.000  -0.000  -0.000  -0.000  -0.000
  0.002   0.001   0.000   0.001   0.000  -0.001  -0.000  -0.000  -0.000   0.000  -0.000  -0.000  -0.000   0.000   0.000   0.000
  0.001   0.002   0.000   0.000   0.001  -0.000  -0.001  -0.000   0.000  -0.000   0.000   0.000   0.000   0.000   0.000   0.000
  0.000   0.000   0.001   0.000  -0.000  -0.000  -0.000  -0.000  -0.000   0.000  -0.000  -0.000  -0.000   0.000  -0.000   0.000
  0.001  -0.000   0.000   0.002  -0.001  -0.000   0.000  -0.000  -0.001   0.000   0.000   0.000  -0.000  -0.000   0.000  -0.000
 -0.000   0.001  -0.000  -0.001   0.002   0.000  -0.000   0.000   0.000  -0.001   0.000   0.000   0.000  -0.000   0.000   0.000
  0.000   0.000   0.000  -0.000  -0.000  -0.000   0.000  -0.000   0.000   0.000   0.000  -0.000   0.000   0.000  -0.000   0.000
  0.000   0.000   0.000  -0.000  -0.000  -0.000   0.000  -0.000   0.000   0.000  -0.000   0.000   0.000  -0.000  -0.000   0.000
  0.000   0.000   0.000   0.000  -0.000  -0.000   0.000  -0.000  -0.000   0.000   0.000   0.000   0.000   0.000  -0.000  -0.000
  0.000   0.000   0.000   0.000  -0.000   0.000   0.000   0.000   0.000  -0.000   0.000  -0.000   0.000   0.000   0.000   0.000
 -0.000  -0.000   0.000   0.000  -0.000   0.000   0.000  -0.000   0.000   0.000  -0.000  -0.000  -0.000   0.000   0.000  -0.000
  0.000  -0.000   0.000   0.000  -0.000   0.000   0.000   0.000  -0.000   0.000   0.000   0.000  -0.000   0.000  -0.000   0.000
  0.000   0.000   0.000   0.000  -0.000  -0.000  -0.000  -0.000  -0.000   0.000  -0.000   0.000   0.000  -0.000  -0.000  -0.000
 -0.000  -0.000  -0.000  -0.000  -0.000   0.000   0.000   0.000   0.000  -0.000  -0.000  -0.000   0.000   0.000  -0.000  -0.000


------------------------ aborting loop because EDIFF is reached ----------------------------------------





 total charge     

# of ion       s       p       d       tot
------------------------------------------
    1        0.415   0.466   8.386   9.266
    2        0.415   0.465   8.387   9.267
    3        0.798   0.800   0.000   1.598
    4        1.287   0.933   0.046   2.266
    5        1.413   1.890   0.046   3.348
    6        1.409   1.873   0.045   3.327
    7        1.411   1.883   0.046   3.339
    8        1.398   1.929   0.042   3.368
    9        1.391   1.942   0.042   3.376
   10        1.395   1.929   0.042   3.366
--------------------------------------------------
tot         11.331  14.110  17.082  42.523



 magnetization (x)

# of ion       s       p       d       tot
------------------------------------------
    1        0.000   0.000  -0.014  -0.013
    2        0.000   0.000  -0.015  -0.015
    3       -0.000   0.000   0.000  -0.000
    4       -0.000  -0.001  -0.000  -0.001
    5       -0.000  -0.001  -0.000  -0.001
    6       -0.001  -0.005  -0.000  -0.006
    7       -0.000   0.001  -0.000   0.001
    8       -0.000  -0.003  -0.000  -0.003
    9       -0.000  -0.002  -0.000  -0.002
   10       -0.000  -0.001  -0.000  -0.002
--------------------------------------------------
tot         -0.003  -0.011  -0.029  -0.042

    CHARGE:  cpu time    1.4240: real time    2.4494
    FORLOC:  cpu time    0.0360: real time    0.0843
    FORNL :  cpu time    5.1360: real time    7.0942
    STRESS:  cpu time   13.5240: real time   20.9960
    FORCOR:  cpu time   38.8040: real time   59.8261
    FORHAR:  cpu time    0.2560: real time    0.2990
    MIXING:  cpu time    0.0280: real time    0.0523
    OFIELD:  cpu time    0.0000: real time    0.0000

  FORCE on cell =-STRESS in cart. coord.  units (eV):
  Direction    XX          YY          ZZ          XY          YZ          ZX
  --------------------------------------------------------------------------------------
  Alpha Z    20.95825    20.95825    20.95825
  Ewald    9501.05148  9501.04978-11482.70177    -0.00249    -0.00056    -0.00102
  Hartree 10235.33881 10235.34005 -9567.34085    -0.00055     0.00008     0.00014
  E(xc)    -280.71298  -280.71305  -279.92625     0.00008     0.00000     0.00003
  Local  -20587.99438-20587.99464 20180.77005     0.00277     0.00038     0.00071
  n-local   652.39745   651.54733   657.04653    -0.27135     1.17738     1.38560
  augment   -60.01504   -60.01487   -64.06935    -0.00001     0.00004     0.00006
  Kinetic   523.54841   514.15743   534.81432    -5.30982     0.24054     0.13413
  Fock        0.00000     0.00000     0.00000     0.00000     0.00000     0.00000
  -------------------------------------------------------------------------------------
  Total      -0.54886    -0.54886    -0.44906     0.00000    -0.00000     0.00000
  in kB      -1.01467    -1.01467    -0.83018     0.00000    -0.00000     0.00000
  external pressure =       -0.95 kB  Pullay stress =        0.00 kB


 VOLUME and BASIS-vectors are now :
 -----------------------------------------------------------------------------
  energy-cutoff  :      520.00
  volume of cell :      866.65
      direct lattice vectors                 reciprocal lattice vectors
     6.793555177  0.000002665 -0.000000000     0.147198367 -0.084984933 -0.000000000
     3.396774808  5.883392351 -0.000000000    -0.000000067  0.169970005  0.000000000
    -0.000000000 -0.000000000 21.683044624     0.000000000  0.000000000  0.046118985

  length of vectors
     6.793555177  6.793554640 21.683044624     0.169969991  0.169970005  0.046118985


 FORCES acting on ions
    electron-ion (+dipol)            ewald-force                    non-local-force                 convergence-correction
 -----------------------------------------------------------------------------------------------
   0.743E-04 0.102E-04 0.607E+02   0.662E-03 0.407E-03 -.617E+02   0.690E-17 0.908E-17 0.966E+00   -.314E-06 0.687E-06 -.101E-01
   -.121E-03 -.504E-04 0.650E+02   -.770E-03 -.466E-03 -.660E+02   0.690E-17 -.145E-17 0.105E+01   0.164E-06 -.890E-07 -.101E-01
   -.309E-04 -.775E-05 0.115E+03   -.870E-04 -.473E-04 -.111E+03   -.137E-16 0.191E-16 -.378E+01   -.209E-07 -.133E-07 0.333E-03
   0.721E-04 -.389E-04 -.276E+03   0.146E-03 0.820E-04 0.278E+03   0.531E-19 0.902E-17 -.151E+01   0.128E-07 0.564E-08 -.135E-01
   -.287E+02 -.602E-01 -.420E+03   0.279E+02 0.375E-01 0.424E+03   0.814E+00 0.157E-01 -.411E+01   -.352E-02 0.136E-01 -.290E-01
   0.143E+02 0.249E+02 -.420E+03   -.139E+02 -.242E+02 0.424E+03   -.393E+00 -.713E+00 -.411E+01   0.135E-01 -.373E-02 -.290E-01
   0.144E+02 -.248E+02 -.420E+03   -.140E+02 0.241E+02 0.424E+03   -.421E+00 0.697E+00 -.411E+01   -.999E-02 -.984E-02 -.290E-01
   0.424E+02 -.458E-01 0.432E+03   -.399E+02 0.477E-01 -.438E+03   -.255E+01 -.203E-01 0.536E+01   0.552E-02 0.121E-01 0.205E-01
   -.212E+02 -.367E+02 0.432E+03   0.200E+02 0.345E+02 -.438E+03   0.126E+01 0.222E+01 0.536E+01   0.776E-02 -.109E-01 0.205E-01
   -.211E+02 0.367E+02 0.432E+03   0.199E+02 -.345E+02 -.438E+03   0.129E+01 -.220E+01 0.536E+01   -.133E-01 -.129E-02 0.205E-01
 -----------------------------------------------------------------------------------------------
   -.158E-03 -.198E-04 -.425E+00   0.000E+00 0.142E-13 -.171E-12   -.444E-15 0.000E+00 0.472E+00   -.999E-07 0.631E-06 -.587E-01


 POSITION                                       TOTAL-FORCE (eV/Angst)
 -----------------------------------------------------------------------------------
      3.39677      1.96113     10.67866         0.000000      0.000000     -0.010111
      6.79356      3.92227     10.67064         0.000000     -0.000000      0.007779
     -0.00000     -0.00000     10.09004         0.000000     -0.000000      0.017532
     -0.00000     -0.00000     12.57629         0.000000     -0.000000      0.008199
      3.94750     -0.00283     12.28113         0.021252      0.007027     -0.016530
      1.42057      2.46618     12.28113        -0.004540     -0.021918     -0.016530
      4.82227      3.42006     12.28113        -0.016712      0.014891     -0.016530
      2.41113      0.00277      9.18540        -0.030732     -0.006716      0.008731
      2.19361      3.79390      9.18540         0.009550      0.029972      0.008731
      5.58558      2.08672      9.18540         0.021182     -0.023257      0.008731
 -----------------------------------------------------------------------------------
    total drift:                               -0.000158     -0.000019     -0.011741


--------------------------------------------------------------------------------------------------------



  FREE ENERGIE OF THE ION-ELECTRON SYSTEM (eV)
  ---------------------------------------------------
  free  energy   TOTEN  =       -33.13077585 eV

  energy  without entropy=      -33.13077585  energy(sigma->0) =      -33.13077585

 d Force =-0.3296911E-04[-0.353E-04,-0.307E-04]  d Energy = 0.5844822E-04-0.914E-04
 d Force =-0.1269213E+00[-0.127E+00,-0.127E+00]  d Ewald  = 0.6371837E+00-0.764E+00


--------------------------------------------------------------------------------------------------------


    POTLOK:  cpu time   41.0480: real time   60.6524


--------------------------------------------------------------------------------------------------------




--------------------------------------------------------------------------------------------------------


  
 reached required accuracy - stopping structural energy minimisation
     LOOP+:  cpu time  340.4680: real time  520.5625
    4ORBIT:  cpu time    0.0000: real time    0.0000



 total charge     

# of ion       s       p       d       tot
------------------------------------------
    1        0.415   0.466   8.386   9.266
    2        0.415   0.465   8.387   9.267
    3        0.798   0.800   0.000   1.598
    4        1.287   0.933   0.046   2.266
    5        1.413   1.890   0.046   3.348
    6        1.409   1.873   0.045   3.327
    7        1.411   1.883   0.046   3.339
    8        1.398   1.929   0.042   3.368
    9        1.391   1.942   0.042   3.376
   10        1.395   1.929   0.042   3.366
--------------------------------------------------
tot         11.331  14.110  17.082  42.523



 magnetization (x)

# of ion       s       p       d       tot
------------------------------------------
    1        0.000   0.000  -0.014  -0.013
    2        0.000   0.000  -0.015  -0.015
    3       -0.000   0.000   0.000  -0.000
    4       -0.000  -0.001  -0.000  -0.001
    5       -0.000  -0.001  -0.000  -0.001
    6       -0.001  -0.005  -0.000  -0.006
    7       -0.000   0.001  -0.000   0.001
    8       -0.000  -0.003  -0.000  -0.003
    9       -0.000  -0.002  -0.000  -0.002
   10       -0.000  -0.001  -0.000  -0.002
--------------------------------------------------
tot         -0.003  -0.011  -0.029  -0.042

 BZINTS: Fermi energy: -1.448301; 64.000000 electrons
         Band energy:-395.909999;  BLOECHL correction: -0.011434

 total amount of memory used by VASP MPI-rank0   117160. kBytes
=======================================================================

   base      :      30000. kBytes
   nonlr-proj:       9050. kBytes
   fftplans  :       8558. kBytes
   grid      :      60832. kBytes
   one-center:        311. kBytes
   wavefun   :       8409. kBytes

  
  
 General timing and accounting informations for this job:
 ========================================================
  
                  Total CPU time used (sec):    27815.844
                            User time (sec):    25278.756
                          System time (sec):     2537.088
                         Elapsed time (sec):    42013.778
  
                   Maximum memory used (kb):      341852.
                   Average memory used (kb):           0.
  
                          Minor page faults:     23595827
                          Major page faults:            5
                 Voluntary context switches:         1319
