PROCAR lm decomposed
# of k-points:    5         # of bands:   48         # of ions:   10

 k-point     1 :    0.00000000 0.00000000 0.00000000     weight = 0.04000000

band     1 # energy  -14.66158503 # occ.  1.00000000

ion      s     py     pz     px    dxy    dyz    dz2    dxz  x2-y2    tot
    1  0.022  0.000  0.000  0.000  0.000  0.000  0.000  0.000  0.000  0.023
    2  0.023  0.000  0.000  0.000  0.000  0.000  0.000  0.000  0.000  0.023
    3  0.031  0.000  0.000  0.000  0.000  0.000  0.000  0.000  0.000  0.031
    4  0.025  0.000  0.001  0.000  0.000  0.000  0.000  0.000  0.000  0.027
    5  0.095  0.000  0.001  0.000  0.000  0.000  0.000  0.000  0.000  0.096
    6  0.095  0.000  0.001  0.000  0.000  0.000  0.000  0.000  0.000  0.096
    7  0.095  0.000  0.001  0.000  0.000  0.000  0.000  0.000  0.000  0.096
    8  0.073  0.000  0.001  0.000  0.000  0.000  0.000  0.000  0.000  0.074
    9  0.073  0.000  0.001  0.000  0.000  0.000  0.000  0.000  0.000  0.074
   10  0.073  0.000  0.001  0.000  0.000  0.000  0.000  0.000  0.000  0.074
tot    0.605  0.000  0.008  0.000  0.000  0.000  0.000  0.000  0.000  0.614

band     2 # energy  -13.44396971 # occ.  1.00000000

ion      s     py     pz     px    dxy    dyz    dz2    dxz  x2-y2    tot
    1  0.000  0.000  0.008  0.000  0.000  0.000  0.000  0.000  0.000  0.008
    2  0.000  0.000  0.008  0.000  0.000  0.000  0.000  0.000  0.000  0.008
    3  0.025  0.000  0.003  0.000  0.000  0.000  0.000  0.000  0.000  0.028
    4  0.016  0.000  0.000  0.000  0.000  0.000  0.000  0.000  0.000  0.016
    5  0.092  0.000  0.000  0.000  0.000  0.000  0.000  0.000  0.000  0.093
    6  0.092  0.000  0.000  0.000  0.000  0.000  0.000  0.000  0.000  0.093
    7  0.092  0.000  0.000  0.000  0.000  0.000  0.000  0.000  0.000  0.093
    8  0.107  0.000  0.000  0.001  0.000  0.000  0.000  0.000  0.000  0.107
    9  0.107  0.000  0.000  0.000  0.000  0.000  0.000  0.000  0.000  0.107
   10  0.107  0.000  0.000  0.000  0.000  0.000  0.000  0.000  0.000  0.107
tot    0.637  0.001  0.019  0.001  0.000  0.000  0.001  0.000  0.000  0.660

band     3 # energy  -12.68596026 # occ.  1.00000000

ion      s     py     pz     px    dxy    dyz    dz2    dxz  x2-y2    tot
    1  0.000  0.008  0.000  0.001  0.002  0.000  0.000  0.001  0.001  0.013
    2  0.000  0.006  0.000  0.004  0.000  0.000  0.000  0.001  0.002  0.013
    3  0.000  0.001  0.000  0.004  0.000  0.000  0.000  0.000  0.000  0.005
    4  0.000  0.000  0.000  0.001  0.000  0.000  0.000  0.000  0.000  0.001
    5  0.116  0.000  0.001  0.000  0.000  0.000  0.000  0.000  0.000  0.117
    6  0.120  0.000  0.001  0.000  0.000  0.000  0.000  0.000  0.000  0.121
    7  0.000  0.000  0.000  0.000  0.000  0.000  0.000  0.000  0.000  0.000
    8  0.217  0.000  0.001  0.000  0.000  0.000  0.000  0.000  0.000  0.219
    9  0.224  0.000  0.002  0.000  0.000  0.000  0.000  0.000  0.000  0.226
   10  0.000  0.000  0.000  0.000  0.000  0.000  0.000  0.000  0.000  0.000
tot    0.678  0.015  0.005  0.010  0.002  0.001  0.000  0.002  0.004  0.716

band     4 # energy  -12.68592539 # occ.  1.00000000

ion      s     py     pz     px    dxy    dyz    dz2    dxz  x2-y2    tot
    1  0.000  0.001  0.000  0.008  0.001  0.001  0.000  0.000  0.002  0.013
    2  0.000  0.004  0.000  0.006  0.002  0.001  0.000  0.000  0.000  0.013
    3  0.000  0.004  0.000  0.001  0.000  0.000  0.000  0.000  0.000  0.005
    4  0.000  0.001  0.000  0.000  0.000  0.000  0.000  0.000  0.000  0.001
    5  0.041  0.000  0.000  0.000  0.000  0.000  0.000  0.000  0.000  0.042
    6  0.038  0.000  0.000  0.000  0.000  0.000  0.000  0.000  0.000  0.038
    7  0.158  0.000  0.001  0.000  0.000  0.000  0.000  0.000  0.000  0.159
    8  0.077  0.000  0.001  0.000  0.000  0.000  0.000  0.000  0.000  0.078
    9  0.070  0.000  0.000  0.000  0.000  0.000  0.000  0.000  0.000  0.071
   10  0.295  0.000  0.002  0.000  0.000  0.000  0.000  0.000  0.000  0.297
tot    0.678  0.010  0.005  0.015  0.004  0.002  0.000  0.001  0.002  0.716

band     5 # energy  -12.29306933 # occ.  1.00000000

ion      s     py     pz     px    dxy    dyz    dz2    dxz  x2-y2    tot
    1  0.000  0.000  0.000  0.002  0.002  0.008  0.000  0.000  0.001  0.012
    2  0.000  0.001  0.000  0.001  0.002  0.008  0.000  0.000  0.000  0.012
    3  0.000  0.000  0.000  0.006  0.000  0.000  0.000  0.000  0.000  0.006
    4  0.000  0.000  0.000  0.004  0.000  0.000  0.000  0.000  0.001  0.005
    5  0.288  0.000  0.000  0.001  0.000  0.000  0.000  0.000  0.000  0.289
    6  0.142  0.000  0.000  0.000  0.000  0.000  0.000  0.000  0.000  0.143
    7  0.025  0.000  0.000  0.000  0.000  0.000  0.000  0.000  0.000  0.025
    8  0.149  0.000  0.000  0.001  0.000  0.000  0.000  0.000  0.000  0.150
    9  0.074  0.001  0.000  0.000  0.000  0.000  0.000  0.000  0.000  0.074
   10  0.013  0.000  0.000  0.000  0.000  0.000  0.000  0.000  0.000  0.013
tot    0.691  0.003  0.001  0.015  0.004  0.015  0.000  0.001  0.001  0.731

band     6 # energy  -12.29303112 # occ.  1.00000000

ion      s     py     pz     px    dxy    dyz    dz2    dxz  x2-y2    tot
    1  0.000  0.002  0.000  0.000  0.001  0.000  0.000  0.008  0.002  0.012
    2  0.000  0.001  0.000  0.001  0.000  0.000  0.000  0.008  0.002  0.012
    3  0.000  0.006  0.000  0.000  0.000  0.000  0.000  0.000  0.000  0.006
    4  0.000  0.004  0.000  0.000  0.001  0.000  0.000  0.000  0.000  0.005
    5  0.016  0.000  0.000  0.000  0.000  0.000  0.000  0.000  0.000  0.016
    6  0.161  0.000  0.000  0.000  0.000  0.000  0.000  0.000  0.000  0.162
    7  0.278  0.001  0.000  0.000  0.000  0.000  0.000  0.000  0.000  0.279
    8  0.008  0.000  0.000  0.000  0.000  0.000  0.000  0.000  0.000  0.008
    9  0.084  0.000  0.000  0.000  0.000  0.000  0.000  0.000  0.000  0.084
   10  0.144  0.001  0.000  0.000  0.000  0.000  0.000  0.000  0.000  0.145
tot    0.691  0.015  0.001  0.003  0.001  0.001  0.000  0.015  0.004  0.731

band     7 # energy  -10.24679008 # occ.  1.00000000

ion      s     py     pz     px    dxy    dyz    dz2    dxz  x2-y2    tot
    1  0.011  0.000  0.000  0.000  0.000  0.000  0.000  0.000  0.000  0.012
    2  0.012  0.000  0.000  0.000  0.000  0.000  0.000  0.000  0.000  0.012
    3  0.136  0.000  0.007  0.000  0.000  0.000  0.000  0.000  0.000  0.142
    4  0.309  0.000  0.012  0.000  0.000  0.000  0.001  0.000  0.000  0.322
    5  0.012  0.000  0.001  0.008  0.000  0.000  0.000  0.000  0.001  0.021
    6  0.012  0.006  0.001  0.002  0.001  0.000  0.000  0.000  0.000  0.021
    7  0.012  0.006  0.001  0.002  0.001  0.000  0.000  0.000  0.000  0.021
    8  0.010  0.000  0.000  0.008  0.000  0.000  0.000  0.000  0.000  0.019
    9  0.010  0.006  0.000  0.002  0.000  0.000  0.000  0.000  0.000  0.019
   10  0.010  0.006  0.000  0.002  0.000  0.000  0.000  0.000  0.000  0.019
tot    0.532  0.024  0.020  0.024  0.002  0.001  0.001  0.001  0.002  0.606

band     8 # energy   -8.08215621 # occ.  1.00000000

ion      s     py     pz     px    dxy    dyz    dz2    dxz  x2-y2    tot
    1  0.001  0.000  0.005  0.000  0.000  0.000  0.000  0.000  0.000  0.006
    2  0.000  0.000  0.005  0.000  0.000  0.000  0.000  0.000  0.000  0.006
    3  0.168  0.000  0.012  0.000  0.000  0.000  0.000  0.000  0.000  0.180
    4  0.216  0.000  0.003  0.000  0.000  0.000  0.001  0.000  0.000  0.220
    5  0.005  0.000  0.001  0.005  0.000  0.000  0.000  0.000  0.000  0.011
    6  0.005  0.004  0.001  0.001  0.000  0.000  0.000  0.000  0.000  0.011
    7  0.005  0.003  0.001  0.001  0.000  0.000  0.000  0.000  0.000  0.011
    8  0.015  0.000  0.002  0.030  0.000  0.000  0.000  0.000  0.001  0.050
    9  0.015  0.023  0.002  0.007  0.001  0.000  0.000  0.000  0.000  0.050
   10  0.015  0.023  0.002  0.008  0.001  0.000  0.000  0.000  0.000  0.050
tot    0.445  0.053  0.034  0.053  0.003  0.001  0.001  0.001  0.003  0.592

band     9 # energy   -7.33704342 # occ.  1.00000000

ion      s     py     pz     px    dxy    dyz    dz2    dxz  x2-y2    tot
    1  0.089  0.000  0.004  0.000  0.000  0.000  0.009  0.000  0.000  0.102
    2  0.088  0.000  0.004  0.000  0.000  0.000  0.010  0.000  0.000  0.102
    3  0.000  0.000  0.000  0.000  0.000  0.000  0.000  0.000  0.000  0.000
    4  0.000  0.000  0.000  0.000  0.000  0.000  0.000  0.000  0.000  0.000
    5  0.000  0.085  0.000  0.000  0.000  0.001  0.000  0.000  0.000  0.086
    6  0.000  0.021  0.000  0.064  0.000  0.000  0.000  0.001  0.000  0.086
    7  0.000  0.021  0.000  0.064  0.000  0.000  0.000  0.001  0.000  0.086
    8  0.000  0.019  0.000  0.000  0.000  0.000  0.000  0.000  0.000  0.020
    9  0.000  0.005  0.000  0.014  0.000  0.000  0.000  0.000  0.000  0.020
   10  0.000  0.005  0.000  0.014  0.000  0.000  0.000  0.000  0.000  0.020
tot    0.177  0.156  0.008  0.156  0.001  0.002  0.019  0.002  0.001  0.522

band    10 # energy   -6.46327053 # occ.  1.00000000

ion      s     py     pz     px    dxy    dyz    dz2    dxz  x2-y2    tot
    1  0.000  0.003  0.000  0.003  0.005  0.035  0.000  0.003  0.000  0.049
    2  0.000  0.001  0.000  0.004  0.001  0.010  0.000  0.029  0.004  0.049
    3  0.000  0.010  0.000  0.016  0.000  0.000  0.000  0.000  0.000  0.026
    4  0.000  0.017  0.000  0.028  0.000  0.000  0.000  0.000  0.000  0.046
    5  0.002  0.010  0.000  0.063  0.000  0.000  0.000  0.000  0.000  0.075
    6  0.002  0.081  0.000  0.009  0.000  0.000  0.000  0.000  0.000  0.093
    7  0.000  0.002  0.000  0.026  0.000  0.000  0.000  0.000  0.000  0.028
    8  0.006  0.005  0.008  0.017  0.000  0.000  0.000  0.000  0.000  0.037
    9  0.008  0.024  0.011  0.002  0.000  0.000  0.000  0.000  0.000  0.046
   10  0.000  0.001  0.000  0.012  0.000  0.000  0.000  0.000  0.000  0.014
tot    0.018  0.155  0.020  0.179  0.007  0.046  0.000  0.033  0.005  0.462

band    11 # energy   -6.46324751 # occ.  1.00000000

ion      s     py     pz     px    dxy    dyz    dz2    dxz  x2-y2    tot
    1  0.000  0.003  0.000  0.003  0.000  0.003  0.000  0.035  0.005  0.049
    2  0.000  0.004  0.000  0.001  0.004  0.029  0.000  0.010  0.001  0.049
    3  0.000  0.016  0.000  0.010  0.000  0.000  0.000  0.000  0.000  0.026
    4  0.000  0.028  0.000  0.017  0.000  0.000  0.000  0.000  0.000  0.046
    5  0.001  0.016  0.000  0.038  0.000  0.000  0.000  0.000  0.000  0.056
    6  0.000  0.001  0.000  0.036  0.000  0.000  0.000  0.000  0.000  0.037
    7  0.003  0.081  0.000  0.019  0.000  0.000  0.000  0.000  0.000  0.102
    8  0.004  0.008  0.005  0.011  0.000  0.000  0.000  0.000  0.000  0.028
    9  0.001  0.000  0.002  0.015  0.000  0.000  0.000  0.000  0.000  0.019
   10  0.009  0.023  0.013  0.005  0.000  0.000  0.000  0.000  0.000  0.050
tot    0.018  0.179  0.020  0.155  0.005  0.033  0.000  0.046  0.007  0.462

band    12 # energy   -6.40019347 # occ.  1.00000000

ion      s     py     pz     px    dxy    dyz    dz2    dxz  x2-y2    tot
    1  0.039  0.000  0.000  0.000  0.000  0.000  0.025  0.000  0.000  0.064
    2  0.040  0.000  0.000  0.000  0.000  0.000  0.025  0.000  0.000  0.065
    3  0.000  0.000  0.024  0.000  0.000  0.000  0.000  0.000  0.000  0.024
    4  0.000  0.000  0.015  0.000  0.000  0.000  0.001  0.000  0.000  0.016
    5  0.006  0.000  0.047  0.000  0.000  0.000  0.000  0.000  0.000  0.054
    6  0.006  0.000  0.047  0.000  0.000  0.000  0.000  0.000  0.000  0.054
    7  0.006  0.000  0.047  0.000  0.000  0.000  0.000  0.000  0.000  0.054
    8  0.005  0.000  0.034  0.010  0.000  0.000  0.000  0.000  0.000  0.050
    9  0.005  0.007  0.034  0.002  0.000  0.000  0.000  0.000  0.000  0.050
   10  0.005  0.007  0.034  0.002  0.000  0.000  0.000  0.000  0.000  0.050
tot    0.114  0.014  0.283  0.014  0.000  0.000  0.052  0.000  0.000  0.478

band    13 # energy   -5.98391253 # occ.  1.00000000

ion      s     py     pz     px    dxy    dyz    dz2    dxz  x2-y2    tot
    1  0.000  0.013  0.000  0.002  0.001  0.001  0.000  0.029  0.011  0.057
    2  0.000  0.014  0.000  0.001  0.001  0.015  0.000  0.015  0.011  0.057
    3  0.000  0.003  0.000  0.027  0.000  0.000  0.000  0.000  0.000  0.030
    4  0.000  0.002  0.000  0.015  0.000  0.000  0.000  0.000  0.000  0.017
    5  0.002  0.001  0.023  0.032  0.000  0.000  0.001  0.000  0.000  0.059
    6  0.002  0.024  0.014  0.000  0.000  0.000  0.000  0.000  0.000  0.040
    7  0.000  0.006  0.001  0.004  0.000  0.000  0.000  0.000  0.000  0.012
    8  0.000  0.004  0.004  0.086  0.000  0.000  0.000  0.001  0.000  0.096
    9  0.000  0.070  0.003  0.000  0.000  0.001  0.000  0.000  0.000  0.074
   10  0.000  0.023  0.000  0.018  0.000  0.000  0.000  0.000  0.000  0.042
tot    0.004  0.160  0.046  0.186  0.003  0.016  0.002  0.046  0.023  0.484

band    14 # energy   -5.98388610 # occ.  1.00000000

ion      s     py     pz     px    dxy    dyz    dz2    dxz  x2-y2    tot
    1  0.000  0.002  0.000  0.013  0.011  0.029  0.000  0.001  0.001  0.057
    2  0.000  0.001  0.000  0.014  0.011  0.015  0.000  0.015  0.001  0.057
    3  0.000  0.027  0.000  0.003  0.000  0.000  0.000  0.000  0.000  0.030
    4  0.000  0.015  0.000  0.002  0.000  0.000  0.000  0.000  0.000  0.017
    5  0.000  0.008  0.003  0.004  0.000  0.000  0.000  0.000  0.000  0.015
    6  0.001  0.005  0.011  0.016  0.000  0.000  0.000  0.000  0.000  0.034
    7  0.003  0.023  0.025  0.012  0.000  0.000  0.001  0.000  0.000  0.063
    8  0.000  0.035  0.000  0.009  0.000  0.000  0.000  0.000  0.000  0.045
    9  0.000  0.011  0.002  0.053  0.000  0.000  0.000  0.000  0.000  0.067
   10  0.000  0.059  0.005  0.035  0.000  0.001  0.000  0.000  0.000  0.099
tot    0.004  0.186  0.046  0.160  0.023  0.046  0.002  0.016  0.003  0.484

band    15 # energy   -5.30134192 # occ.  1.00000000

ion      s     py     pz     px    dxy    dyz    dz2    dxz  x2-y2    tot
    1  0.013  0.000  0.037  0.000  0.000  0.000  0.000  0.000  0.000  0.050
    2  0.013  0.000  0.037  0.000  0.000  0.000  0.000  0.000  0.000  0.051
    3  0.000  0.000  0.000  0.000  0.000  0.000  0.000  0.000  0.000  0.000
    4  0.000  0.000  0.000  0.000  0.000  0.000  0.000  0.000  0.000  0.000
    5  0.000  0.033  0.000  0.000  0.000  0.000  0.000  0.000  0.000  0.033
    6  0.000  0.008  0.000  0.024  0.000  0.000  0.000  0.000  0.000  0.033
    7  0.000  0.008  0.000  0.025  0.000  0.000  0.000  0.000  0.000  0.033
    8  0.000  0.093  0.000  0.000  0.001  0.000  0.000  0.000  0.000  0.094
    9  0.000  0.023  0.000  0.069  0.000  0.000  0.000  0.000  0.001  0.094
   10  0.000  0.023  0.000  0.070  0.000  0.000  0.000  0.000  0.001  0.094
tot    0.026  0.188  0.074  0.188  0.001  0.000  0.000  0.000  0.001  0.481

band    16 # energy   -4.74033096 # occ.  1.00000000

ion      s     py     pz     px    dxy    dyz    dz2    dxz  x2-y2    tot
    1  0.000  0.001  0.000  0.000  0.001  0.005  0.000  0.156  0.148  0.310
    2  0.000  0.001  0.000  0.000  0.001  0.005  0.000  0.156  0.148  0.311
    3  0.000  0.000  0.000  0.000  0.000  0.000  0.000  0.000  0.000  0.000
    4  0.000  0.000  0.000  0.000  0.000  0.000  0.000  0.000  0.000  0.001
    5  0.002  0.000  0.039  0.000  0.000  0.000  0.000  0.000  0.000  0.043
    6  0.001  0.004  0.010  0.017  0.000  0.000  0.000  0.001  0.000  0.033
    7  0.001  0.004  0.010  0.017  0.000  0.000  0.000  0.001  0.000  0.033
    8  0.002  0.000  0.017  0.004  0.000  0.000  0.000  0.000  0.000  0.023
    9  0.000  0.003  0.004  0.022  0.000  0.000  0.000  0.001  0.000  0.030
   10  0.000  0.003  0.004  0.022  0.000  0.000  0.000  0.001  0.000  0.030
tot    0.006  0.015  0.084  0.083  0.002  0.010  0.000  0.315  0.297  0.813

band    17 # energy   -4.74032122 # occ.  1.00000000

ion      s     py     pz     px    dxy    dyz    dz2    dxz  x2-y2    tot
    1  0.000  0.000  0.000  0.001  0.148  0.156  0.000  0.005  0.001  0.310
    2  0.000  0.000  0.000  0.001  0.148  0.156  0.000  0.005  0.001  0.311
    3  0.000  0.000  0.000  0.000  0.000  0.000  0.000  0.000  0.000  0.000
    4  0.000  0.000  0.000  0.000  0.000  0.000  0.000  0.000  0.000  0.001
    5  0.000  0.029  0.000  0.000  0.000  0.001  0.000  0.000  0.000  0.030
    6  0.002  0.003  0.030  0.004  0.000  0.000  0.000  0.000  0.000  0.040
    7  0.002  0.003  0.029  0.004  0.000  0.000  0.000  0.000  0.000  0.039
    8  0.000  0.031  0.000  0.000  0.000  0.001  0.000  0.000  0.000  0.032
    9  0.001  0.008  0.013  0.003  0.000  0.000  0.000  0.000  0.000  0.025
   10  0.001  0.008  0.012  0.003  0.000  0.000  0.000  0.000  0.000  0.025
tot    0.006  0.083  0.084  0.015  0.297  0.315  0.000  0.010  0.002  0.813

band    18 # energy   -4.27337830 # occ.  1.00000000

ion      s     py     pz     px    dxy    dyz    dz2    dxz  x2-y2    tot
    1  0.000  0.000  0.000  0.000  0.075  0.097  0.000  0.051  0.104  0.326
    2  0.000  0.000  0.000  0.000  0.090  0.041  0.000  0.106  0.088  0.325
    3  0.000  0.001  0.000  0.001  0.000  0.000  0.000  0.000  0.000  0.001
    4  0.000  0.000  0.000  0.000  0.000  0.000  0.000  0.000  0.000  0.001
    5  0.002  0.004  0.018  0.000  0.000  0.000  0.000  0.000  0.000  0.024
    6  0.003  0.000  0.036  0.001  0.000  0.000  0.000  0.000  0.000  0.041
    7  0.000  0.002  0.003  0.005  0.000  0.000  0.000  0.000  0.000  0.012
    8  0.003  0.002  0.023  0.001  0.000  0.000  0.000  0.000  0.000  0.029
    9  0.006  0.001  0.048  0.000  0.000  0.000  0.000  0.000  0.000  0.055
   10  0.001  0.000  0.004  0.003  0.000  0.000  0.000  0.000  0.000  0.008
tot    0.014  0.011  0.133  0.010  0.165  0.139  0.000  0.158  0.192  0.822

band    19 # energy   -4.27337044 # occ.  1.00000000

ion      s     py     pz     px    dxy    dyz    dz2    dxz  x2-y2    tot
    1  0.000  0.000  0.000  0.000  0.104  0.051  0.000  0.097  0.075  0.326
    2  0.000  0.000  0.000  0.000  0.088  0.106  0.000  0.041  0.090  0.325
    3  0.000  0.001  0.000  0.001  0.000  0.000  0.000  0.000  0.000  0.001
    4  0.000  0.000  0.000  0.000  0.000  0.000  0.000  0.000  0.000  0.001
    5  0.002  0.004  0.021  0.000  0.000  0.000  0.000  0.000  0.000  0.027
    6  0.000  0.002  0.002  0.006  0.000  0.000  0.000  0.000  0.000  0.010
    7  0.003  0.000  0.035  0.001  0.000  0.000  0.000  0.000  0.000  0.040
    8  0.003  0.002  0.027  0.001  0.000  0.000  0.000  0.000  0.000  0.033
    9  0.000  0.000  0.002  0.003  0.000  0.000  0.000  0.000  0.000  0.006
   10  0.006  0.001  0.046  0.000  0.000  0.000  0.000  0.000  0.000  0.053
tot    0.014  0.010  0.133  0.011  0.192  0.158  0.000  0.139  0.165  0.822

band    20 # energy   -3.86130783 # occ.  1.00000000

ion      s     py     pz     px    dxy    dyz    dz2    dxz  x2-y2    tot
    1  0.001  0.000  0.000  0.000  0.000  0.000  0.322  0.000  0.000  0.323
    2  0.001  0.000  0.000  0.000  0.000  0.000  0.321  0.000  0.000  0.323
    3  0.013  0.000  0.030  0.000  0.000  0.000  0.000  0.000  0.000  0.042
    4  0.004  0.000  0.046  0.000  0.000  0.000  0.002  0.000  0.000  0.052
    5  0.000  0.000  0.001  0.001  0.000  0.000  0.001  0.000  0.001  0.004
    6  0.000  0.001  0.001  0.000  0.000  0.000  0.001  0.000  0.000  0.004
    7  0.000  0.001  0.001  0.000  0.000  0.000  0.001  0.000  0.000  0.004
    8  0.001  0.000  0.003  0.007  0.000  0.000  0.000  0.000  0.000  0.011
    9  0.001  0.005  0.003  0.002  0.000  0.000  0.000  0.000  0.000  0.011
   10  0.001  0.006  0.003  0.002  0.000  0.000  0.000  0.000  0.000  0.011
tot    0.021  0.013  0.086  0.013  0.001  0.001  0.648  0.001  0.001  0.786

band    21 # energy   -3.58698859 # occ.  1.00000000

ion      s     py     pz     px    dxy    dyz    dz2    dxz  x2-y2    tot
    1  0.007  0.000  0.000  0.000  0.000  0.000  0.453  0.000  0.000  0.460
    2  0.007  0.000  0.000  0.000  0.000  0.000  0.452  0.000  0.000  0.459
    3  0.000  0.000  0.000  0.000  0.000  0.000  0.000  0.000  0.000  0.000
    4  0.000  0.000  0.000  0.000  0.000  0.000  0.000  0.000  0.000  0.000
    5  0.000  0.001  0.000  0.000  0.000  0.000  0.000  0.000  0.000  0.002
    6  0.000  0.000  0.000  0.001  0.000  0.000  0.000  0.000  0.000  0.002
    7  0.000  0.000  0.000  0.001  0.000  0.000  0.000  0.000  0.000  0.002
    8  0.000  0.000  0.000  0.000  0.000  0.001  0.000  0.000  0.000  0.001
    9  0.000  0.000  0.000  0.000  0.000  0.000  0.000  0.000  0.000  0.001
   10  0.000  0.000  0.000  0.000  0.000  0.000  0.000  0.000  0.000  0.001
tot    0.014  0.002  0.001  0.002  0.000  0.001  0.905  0.001  0.000  0.927

band    22 # energy   -3.54057571 # occ.  1.00000000

ion      s     py     pz     px    dxy    dyz    dz2    dxz  x2-y2    tot
    1  0.000  0.000  0.000  0.000  0.028  0.039  0.000  0.157  0.143  0.367
    2  0.000  0.000  0.000  0.001  0.002  0.008  0.000  0.201  0.174  0.386
    3  0.000  0.000  0.000  0.012  0.000  0.000  0.000  0.000  0.000  0.012
    4  0.000  0.000  0.000  0.015  0.000  0.000  0.000  0.000  0.000  0.015
    5  0.000  0.000  0.000  0.015  0.000  0.000  0.000  0.000  0.000  0.016
    6  0.000  0.001  0.000  0.002  0.000  0.000  0.000  0.000  0.001  0.005
    7  0.000  0.002  0.000  0.003  0.000  0.000  0.000  0.000  0.001  0.007
    8  0.001  0.000  0.013  0.009  0.000  0.000  0.000  0.000  0.001  0.024
    9  0.000  0.004  0.003  0.001  0.000  0.000  0.000  0.000  0.001  0.008
   10  0.000  0.005  0.004  0.000  0.000  0.000  0.000  0.000  0.001  0.010
tot    0.002  0.012  0.020  0.058  0.031  0.047  0.000  0.358  0.322  0.851

band    23 # energy   -3.54056983 # occ.  1.00000000

ion      s     py     pz     px    dxy    dyz    dz2    dxz  x2-y2    tot
    1  0.000  0.000  0.000  0.000  0.143  0.157  0.000  0.039  0.028  0.367
    2  0.000  0.001  0.000  0.000  0.174  0.201  0.000  0.008  0.002  0.386
    3  0.000  0.012  0.000  0.000  0.000  0.000  0.000  0.000  0.000  0.012
    4  0.000  0.015  0.000  0.000  0.000  0.000  0.000  0.000  0.000  0.015
    5  0.000  0.001  0.000  0.000  0.002  0.000  0.000  0.000  0.000  0.003
    6  0.000  0.010  0.000  0.002  0.001  0.000  0.000  0.000  0.000  0.014
    7  0.000  0.009  0.000  0.001  0.001  0.000  0.000  0.000  0.000  0.012
    8  0.000  0.003  0.000  0.000  0.001  0.000  0.000  0.000  0.000  0.004
    9  0.001  0.004  0.011  0.003  0.001  0.000  0.000  0.000  0.000  0.020
   10  0.001  0.002  0.009  0.005  0.001  0.000  0.000  0.000  0.000  0.018
tot    0.002  0.058  0.020  0.012  0.322  0.358  0.000  0.047  0.031  0.851

band    24 # energy   -3.44660378 # occ.  1.00000000

ion      s     py     pz     px    dxy    dyz    dz2    dxz  x2-y2    tot
    1  0.000  0.000  0.000  0.007  0.020  0.113  0.000  0.029  0.113  0.282
    2  0.000  0.006  0.000  0.001  0.095  0.011  0.000  0.113  0.032  0.257
    3  0.000  0.001  0.000  0.000  0.000  0.000  0.000  0.000  0.000  0.001
    4  0.000  0.010  0.000  0.006  0.000  0.000  0.000  0.000  0.000  0.016
    5  0.002  0.000  0.022  0.009  0.000  0.000  0.000  0.000  0.000  0.034
    6  0.006  0.018  0.054  0.005  0.000  0.000  0.000  0.000  0.000  0.083
    7  0.001  0.001  0.007  0.003  0.000  0.000  0.000  0.000  0.000  0.012
    8  0.000  0.008  0.009  0.003  0.000  0.000  0.000  0.000  0.000  0.020
    9  0.000  0.004  0.023  0.004  0.000  0.000  0.000  0.000  0.000  0.032
   10  0.000  0.007  0.004  0.006  0.000  0.000  0.000  0.000  0.000  0.018
tot    0.009  0.055  0.119  0.043  0.115  0.125  0.000  0.142  0.146  0.754

band    25 # energy   -3.44659782 # occ.  1.00000000

ion      s     py     pz     px    dxy    dyz    dz2    dxz  x2-y2    tot
    1  0.000  0.007  0.000  0.000  0.113  0.029  0.000  0.113  0.020  0.282
    2  0.000  0.001  0.000  0.006  0.032  0.113  0.000  0.011  0.095  0.257
    3  0.000  0.000  0.000  0.001  0.000  0.000  0.000  0.000  0.000  0.001
    4  0.000  0.006  0.000  0.010  0.000  0.000  0.000  0.000  0.000  0.016
    5  0.003  0.000  0.033  0.014  0.000  0.000  0.000  0.000  0.000  0.052
    6  0.000  0.000  0.001  0.001  0.000  0.000  0.000  0.000  0.000  0.003
    7  0.005  0.016  0.048  0.004  0.000  0.000  0.000  0.000  0.000  0.074
    8  0.000  0.006  0.015  0.005  0.000  0.000  0.000  0.000  0.000  0.026
    9  0.000  0.005  0.000  0.009  0.000  0.000  0.000  0.000  0.000  0.015
   10  0.000  0.002  0.020  0.006  0.000  0.000  0.000  0.000  0.000  0.029
tot    0.009  0.043  0.119  0.055  0.146  0.142  0.000  0.125  0.115  0.754

band    26 # energy   -3.33795463 # occ.  1.00000000

ion      s     py     pz     px    dxy    dyz    dz2    dxz  x2-y2    tot
    1  0.000  0.005  0.000  0.003  0.172  0.054  0.000  0.002  0.002  0.238
    2  0.000  0.004  0.000  0.004  0.011  0.007  0.000  0.053  0.165  0.243
    3  0.000  0.009  0.000  0.011  0.000  0.000  0.000  0.000  0.000  0.020
    4  0.000  0.000  0.000  0.000  0.000  0.000  0.000  0.000  0.000  0.000
    5  0.000  0.000  0.015  0.002  0.000  0.000  0.000  0.000  0.000  0.018
    6  0.000  0.002  0.025  0.002  0.000  0.000  0.000  0.000  0.000  0.029
    7  0.000  0.001  0.001  0.000  0.000  0.000  0.000  0.000  0.000  0.003
    8  0.003  0.003  0.048  0.009  0.000  0.000  0.000  0.000  0.000  0.064
    9  0.005  0.009  0.080  0.006  0.000  0.000  0.000  0.000  0.000  0.101
   10  0.000  0.004  0.004  0.003  0.000  0.000  0.000  0.000  0.000  0.011
tot    0.009  0.037  0.173  0.040  0.183  0.062  0.000  0.055  0.167  0.728

band    27 # energy   -3.33794964 # occ.  1.00000000

ion      s     py     pz     px    dxy    dyz    dz2    dxz  x2-y2    tot
    1  0.000  0.003  0.000  0.005  0.002  0.002  0.000  0.054  0.172  0.238
    2  0.000  0.004  0.000  0.004  0.165  0.053  0.000  0.007  0.011  0.243
    3  0.000  0.011  0.000  0.009  0.000  0.000  0.000  0.000  0.000  0.020
    4  0.000  0.000  0.000  0.000  0.000  0.000  0.000  0.000  0.000  0.000
    5  0.000  0.001  0.013  0.002  0.000  0.000  0.000  0.000  0.000  0.016
    6  0.000  0.001  0.002  0.000  0.000  0.000  0.000  0.000  0.000  0.004
    7  0.000  0.003  0.026  0.001  0.000  0.000  0.000  0.000  0.000  0.031
    8  0.003  0.003  0.040  0.007  0.000  0.000  0.000  0.000  0.000  0.054
    9  0.001  0.005  0.008  0.002  0.000  0.000  0.000  0.000  0.000  0.016
   10  0.006  0.010  0.084  0.006  0.000  0.000  0.000  0.000  0.000  0.106
tot    0.009  0.040  0.173  0.037  0.167  0.055  0.000  0.062  0.183  0.728

band    28 # energy   -3.02086071 # occ.  1.00000000

ion      s     py     pz     px    dxy    dyz    dz2    dxz  x2-y2    tot
    1  0.003  0.000  0.008  0.000  0.000  0.000  0.032  0.000  0.000  0.043
    2  0.003  0.000  0.008  0.000  0.000  0.000  0.035  0.000  0.000  0.046
    3  0.001  0.000  0.003  0.000  0.000  0.000  0.000  0.000  0.000  0.004
    4  0.002  0.000  0.035  0.000  0.000  0.000  0.000  0.000  0.000  0.037
    5  0.003  0.000  0.034  0.004  0.000  0.000  0.000  0.000  0.000  0.042
    6  0.003  0.003  0.034  0.001  0.000  0.000  0.000  0.000  0.000  0.042
    7  0.003  0.003  0.034  0.001  0.000  0.000  0.000  0.000  0.000  0.042
    8  0.000  0.000  0.077  0.000  0.000  0.000  0.000  0.000  0.000  0.077
    9  0.000  0.000  0.077  0.000  0.000  0.000  0.000  0.000  0.000  0.077
   10  0.000  0.000  0.077  0.000  0.000  0.000  0.000  0.000  0.000  0.077
tot    0.019  0.006  0.386  0.006  0.000  0.000  0.068  0.000  0.000  0.487

band    29 # energy   -2.73170115 # occ.  1.00000000

ion      s     py     pz     px    dxy    dyz    dz2    dxz  x2-y2    tot
    1  0.012  0.000  0.006  0.000  0.000  0.000  0.067  0.000  0.000  0.085
    2  0.012  0.000  0.006  0.000  0.000  0.000  0.065  0.000  0.000  0.083
    3  0.013  0.000  0.078  0.000  0.000  0.000  0.000  0.000  0.000  0.092
    4  0.043  0.000  0.087  0.000  0.000  0.000  0.002  0.000  0.000  0.132
    5  0.001  0.000  0.043  0.000  0.000  0.000  0.000  0.001  0.000  0.045
    6  0.001  0.000  0.043  0.000  0.000  0.001  0.000  0.000  0.000  0.045
    7  0.001  0.000  0.043  0.000  0.000  0.001  0.000  0.000  0.000  0.045
    8  0.001  0.000  0.000  0.017  0.000  0.000  0.000  0.001  0.000  0.019
    9  0.001  0.013  0.000  0.004  0.000  0.000  0.000  0.000  0.000  0.019
   10  0.001  0.013  0.000  0.004  0.000  0.000  0.000  0.000  0.000  0.019
tot    0.086  0.025  0.305  0.025  0.000  0.002  0.136  0.002  0.000  0.583

band    30 # energy   -1.89942353 # occ.  1.00000000

ion      s     py     pz     px    dxy    dyz    dz2    dxz  x2-y2    tot
    1  0.000  0.001  0.000  0.031  0.000  0.010  0.000  0.000  0.011  0.053
    2  0.000  0.005  0.000  0.027  0.003  0.008  0.000  0.002  0.008  0.053
    3  0.000  0.001  0.000  0.013  0.000  0.000  0.000  0.000  0.000  0.014
    4  0.000  0.003  0.000  0.032  0.000  0.000  0.000  0.000  0.001  0.036
    5  0.004  0.006  0.010  0.016  0.000  0.000  0.000  0.001  0.001  0.039
    6  0.000  0.013  0.001  0.066  0.000  0.001  0.000  0.001  0.000  0.081
    7  0.002  0.000  0.006  0.048  0.000  0.001  0.000  0.000  0.000  0.059
    8  0.002  0.007  0.030  0.064  0.000  0.000  0.000  0.000  0.002  0.104
    9  0.000  0.008  0.002  0.077  0.000  0.000  0.000  0.000  0.000  0.087
   10  0.001  0.004  0.017  0.073  0.000  0.000  0.000  0.000  0.001  0.097
tot    0.009  0.047  0.065  0.448  0.004  0.019  0.000  0.005  0.025  0.623

band    31 # energy   -1.89938985 # occ.  1.00000000

ion      s     py     pz     px    dxy    dyz    dz2    dxz  x2-y2    tot
    1  0.000  0.031  0.000  0.001  0.011  0.000  0.000  0.010  0.000  0.053
    2  0.000  0.027  0.000  0.005  0.008  0.002  0.000  0.008  0.003  0.053
    3  0.000  0.013  0.000  0.001  0.000  0.000  0.000  0.000  0.000  0.014
    4  0.000  0.032  0.000  0.003  0.001  0.000  0.000  0.000  0.000  0.036
    5  0.000  0.076  0.001  0.001  0.000  0.001  0.000  0.000  0.000  0.080
    6  0.004  0.021  0.011  0.000  0.001  0.000  0.000  0.000  0.000  0.038
    7  0.002  0.033  0.005  0.018  0.001  0.000  0.000  0.001  0.000  0.060
    8  0.000  0.079  0.003  0.005  0.000  0.000  0.000  0.000  0.000  0.088
    9  0.002  0.066  0.031  0.005  0.001  0.000  0.000  0.000  0.000  0.105