<?xml version="1.0" encoding="ISO-8859-1"?>
<modeling>
 <generator>
  <i name="program" type="string">vasp </i>
  <i name="version" type="string">5.4.4.18Apr17-6-g9f103f2a35  </i>
  <i name="subversion" type="string">(build May  1 2020 15:48:39) complex            parallel </i>
  <i name="platform" type="string">LinuxGNU </i>
  <i name="date" type="string">2020 06 14 </i>
  <i name="time" type="string">22:31:31 </i>
 </generator>
 <incar>
  <i type="int" name="ISTART">     1</i>
  <i type="string" name="PREC">accurate</i>
  <i type="string" name="ALGO"> Normal</i>
  <i type="int" name="ISPIN">     2</i>
  <i name="AMIN">      0.01000000</i>
  <i type="int" name="NELM">   400</i>
  <i type="int" name="IBRION">     2</i>
  <i name="EDIFF">      0.00010000</i>
  <i type="int" name="NSW">    99</i>
  <i type="int" name="ISIF">     3</i>
  <i name="ENCUT">    520.00000000</i>
  <v name="MAGMOM">      1.26000000      1.26000000      0.60000000      0.60000000      0.60000000      0.60000000      0.60000000      0.60000000      0.60000000      0.60000000</v>
  <i type="string" name="LREAL"> Auto</i>
  <i type="int" name="ISMEAR">    -5</i>
  <i name="SIGMA">      0.05000000</i>
  <i type="logical" name="LWAVE"> F  </i>
  <i type="int" name="LORBIT">    11</i>
  <v type="int" name="KPOINT_BSE">    -1     0     0     0</v>
  <i type="int" name="NELM">   400</i>
  <i type="string" name="GGA"> Bo</i>
  <i name="PARAM1">      0.18333333</i>
  <i name="PARAM2">      0.22000000</i>
  <i type="logical" name="LUSE_VDW"> T  </i>
  <i name="AGGAC">      0.00000000</i>
 </incar>
 <structure name="primitive_cell" >
  <crystal>
   <varray name="basis" >
    <v>       6.90777700      -0.00000000       0.00000000 </v>
    <v>       3.45388800       5.98231000       0.00000000 </v>
    <v>       0.00000000       0.00000000      23.44458800 </v>
   </varray>
   <i name="volume">    968.83501932 </i>
   <varray name="rec_basis" >
    <v>       0.14476437      -0.08357974       0.00000000 </v>
    <v>       0.00000000       0.16715951      -0.00000000 </v>
    <v>      -0.00000000       0.00000000       0.04265377 </v>
   </varray>
  </crystal>
  <varray name="positions" >
   <v>       0.33333300       0.33333300       0.49992500 </v>
   <v>       0.00042000       0.37322400      -0.42624800 </v>
   <v>      -0.37364300       0.00042000      -0.42624800 </v>
   <v>       0.37322400      -0.37364300      -0.42624800 </v>
   <v>       0.37364300      -0.00042000       0.42624800 </v>
   <v>      -0.37322400       0.37364300       0.42624800 </v>
   <v>      -0.00042000      -0.37322400       0.42624800 </v>
   <v>      -0.33333300      -0.33333300      -0.49992500 </v>
   <v>       0.00000000       0.00000000       0.44821600 </v>
   <v>       0.00000000       0.00000000      -0.44821600 </v>
  </varray>
 </structure>
 <varray name="primitive_index" >
  <v type="int" >        1 </v>
  <v type="int" >        6 </v>
  <v type="int" >        5 </v>
  <v type="int" >        7 </v>
  <v type="int" >        8 </v>
  <v type="int" >       10 </v>
  <v type="int" >        9 </v>
  <v type="int" >        2 </v>
  <v type="int" >        3 </v>
  <v type="int" >        4 </v>
 </varray>
 <kpoints>
  <generation param="Gamma">
   <v type="int" name="divisions">       5        5        1 </v>
   <v name="usershift">      0.00000000       0.00000000       0.00000000 </v>
   <v name="genvec1">      0.20000000       0.00000000       0.00000000 </v>
   <v name="genvec2">      0.00000000       0.20000000       0.00000000 </v>
   <v name="genvec3">      0.00000000       0.00000000       1.00000000 </v>
   <v name="shift">      0.00000000       0.00000000       0.00000000 </v>
  </generation>
  <varray name="kpointlist" >
   <v>       0.00000000       0.00000000       0.00000000 </v>
   <v>       0.20000000       0.00000000       0.00000000 </v>
   <v>       0.40000000       0.00000000       0.00000000 </v>
   <v>       0.40000000       0.20000000       0.00000000 </v>
   <v>      -0.40000000       0.20000000       0.00000000 </v>
  </varray>
  <varray name="weights" >
   <v>       0.04000000 </v>
   <v>       0.24000000 </v>
   <v>       0.24000000 </v>
   <v>       0.24000000 </v>
   <v>       0.24000000 </v>
  </varray>
  <varray name="tetrahedronlist"  type="int" >
   <v type="int" >        6        1        1        2        2 </v>
   <v type="int" >       12        1        2        2        2 </v>
   <v type="int" >       12        2        2        3        4 </v>
   <v type="int" >       12        2        2        2        4 </v>
   <v type="int" >       12        2        3        3        4 </v>
   <v type="int" >       12        2        3        4        4 </v>
   <v type="int" >        6        2        2        4        4 </v>
   <v type="int" >       12        3        3        3        5 </v>
   <v type="int" >       12        3        3        4        5 </v>
   <v type="int" >       12        3        4        4        5 </v>
   <v type="int" >        6        3        3        5        5 </v>
   <v type="int" >       12        3        4        5        5 </v>
   <v type="int" >        6        4        4        5        5 </v>
   <v type="int" >       12        4        5        5        5 </v>
   <v type="int" >        6        5        5        5        5 </v>
  </varray>
  <i name="volumeweight">      0.00666667 </i>
 </kpoints>
 <parameters>
  <separator name="general" >
   <i type="string" name="SYSTEM">unknown system</i>
   <i type="logical" name="LCOMPAT"> F  </i>
  </separator>
  <separator name="electronic" >
   <i type="string" name="PREC">accura</i>
   <i name="ENMAX">    520.00000000</i>
   <i name="ENAUG">    544.56500000</i>
   <i name="EDIFF">      0.00010000</i>
   <i type="int" name="IALGO">    38</i>
   <i type="int" name="IWAVPR">    11</i>
   <i type="int" name="NBANDS">    48</i>
   <i name="NELECT">     64.00000000</i>
   <i type="int" name="TURBO">     0</i>
   <i type="int" name="IRESTART">     0</i>
   <i type="int" name="NREBOOT">     0</i>
   <i type="int" name="NMIN">     0</i>
   <i name="EREF">      0.00000000</i>
   <separator name="electronic smearing" >
    <i type="int" name="ISMEAR">    -5</i>
    <i name="SIGMA">      0.05000000</i>
    <i name="KSPACING">      0.50000000</i>
    <i type="logical" name="KGAMMA"> T  </i>
   </separator>
   <separator name="electronic projectors" >
    <i type="logical" name="LREAL"> T  </i>
    <v name="ROPT">     -0.00025000     -0.00025000     -0.00025000     -0.00025000</v>
    <i type="int" name="LMAXPAW">  -100</i>
    <i type="int" name="LMAXMIX">     2</i>
    <i type="logical" name="NLSPLINE"> F  </i>
   </separator>
   <separator name="electronic startup" >
    <i type="int" name="ISTART">     0</i>
    <i type="int" name="ICHARG">     2</i>
    <i type="int" name="INIWAV">     1</i>
   </separator>
   <separator name="electronic spin" >
    <i type="int" name="ISPIN">     2</i>
    <i type="logical" name="LNONCOLLINEAR"> F  </i>
    <v name="MAGMOM">      1.26000000      1.26000000      0.60000000      0.60000000      0.60000000      0.60000000      0.60000000      0.60000000      0.60000000      0.60000000</v>
    <i name="NUPDOWN">     -1.00000000</i>
    <i type="logical" name="LSORBIT"> F  </i>
    <v name="SAXIS">      0.00000000      0.00000000      1.00000000</v>
    <i type="logical" name="LSPIRAL"> F  </i>
    <v name="QSPIRAL">      0.00000000      0.00000000      0.00000000</v>
    <i type="logical" name="LZEROZ"> F  </i>
   </separator>
   <separator name="electronic exchange-correlation" >
    <i type="logical" name="LASPH"> F  </i>
    <i type="logical" name="LMETAGGA"> F  </i>
   </separator>
   <separator name="electronic convergence" >
    <i type="int" name="NELM">   400</i>
    <i type="int" name="NELMDL">     0</i>
    <i type="int" name="NELMIN">     2</i>
    <i name="ENINI">    520.00000000</i>
    <separator name="electronic convergence detail" >
     <i type="logical" name="LDIAG"> T  </i>
     <i type="logical" name="LSUBROT"> F  </i>
     <i name="WEIMIN">      0.00100000</i>
     <i name="EBREAK">      0.00000052</i>
     <i name="DEPER">      0.30000000</i>
     <i type="int" name="NRMM">     4</i>
     <i name="TIME">      0.40000000</i>
    </separator>
   </separator>
   <separator name="electronic mixer" >
    <i name="AMIX">      0.40000000</i>
    <i name="BMIX">      1.00000000</i>
    <i name="AMIN">      0.01000000</i>
    <i name="AMIX_MAG">      1.60000000</i>
    <i name="BMIX_MAG">      1.00000000</i>
    <separator name="electronic mixer details" >
     <i type="int" name="IMIX">     4</i>
     <i type="logical" name="MIXFIRST"> F  </i>
     <i type="int" name="MAXMIX">   -45</i>
     <i name="WC">    100.00000000</i>
     <i type="int" name="INIMIX">     1</i>
     <i type="int" name="MIXPRE">     1</i>
     <i type="int" name="MREMOVE">     5</i>
    </separator>
   </separator>
   <separator name="electronic dipolcorrection" >
    <i type="logical" name="LDIPOL"> F  </i>
    <i type="logical" name="LMONO"> F  </i>
    <i type="int" name="IDIPOL">     0</i>
    <i name="EPSILON">      1.00000000</i>
    <v name="DIPOL">   -100.00000000   -100.00000000   -100.00000000</v>
    <i name="EFIELD">      0.00000000</i>
   </separator>
  </separator>
  <separator name="grids" >
   <i type="int" name="NGX">    54</i>
   <i type="int" name="NGY">    54</i>
   <i type="int" name="NGZ">   180</i>
   <i type="int" name="NGXF">   108</i>
   <i type="int" name="NGYF">   108</i>
   <i type="int" name="NGZF">   360</i>
   <i type="logical" name="ADDGRID"> F  </i>
  </separator>
  <separator name="ionic" >
   <i type="int" name="NSW">    99</i>
   <i type="int" name="IBRION">     2</i>
   <i type="int" name="MDALGO">     0</i>
   <i type="int" name="ISIF">     3</i>
   <i name="PSTRESS">      0.00000000</i>
   <i name="EDIFFG">      0.00100000</i>
   <i type="int" name="NFREE">     1</i>
   <i name="POTIM">      0.50000000</i>
   <i name="SMASS">     -3.00000000</i>
   <i name="SCALEE">      1.00000000</i>
  </separator>
  <separator name="ionic md" >
   <i name="TEBEG">      0.00010000</i>
   <i name="TEEND">      0.00010000</i>
   <i type="int" name="NBLOCK">     1</i>
   <i type="int" name="KBLOCK">    99</i>
   <i type="int" name="NPACO">   256</i>
   <i name="APACO">     16.00000000</i>
  </separator>
  <separator name="symmetry" >
   <i type="int" name="ISYM">     2</i>
   <i name="SYMPREC">      0.00001000</i>
  </separator>
  <separator name="dos" >
   <i type="int" name="LORBIT">    11</i>
   <v name="RWIGS">     -1.00000000     -1.00000000     -1.00000000     -1.00000000</v>
   <i type="int" name="NEDOS">   301</i>
   <i name="EMIN">     10.00000000</i>
   <i name="EMAX">    -10.00000000</i>
   <i name="EFERMI">      0.00000000</i>
  </separator>
  <separator name="writing" >
   <i type="int" name="NWRITE">     2</i>
   <i type="logical" name="LWAVE"> F  </i>
   <i type="logical" name="LDOWNSAMPLE"> F  </i>
   <i type="logical" name="LCHARG"> T  </i>
   <i type="logical" name="LPARD"> F  </i>
   <i type="logical" name="LVTOT"> F  </i>
   <i type="logical" name="LVHAR"> F  </i>
   <i type="logical" name="LELF"> F  </i>
   <i type="logical" name="LOPTICS"> F  </i>
   <v name="STM">      0.00000000      0.00000000      0.00000000      0.00000000      0.00000000      0.00000000      0.00000000</v>
  </separator>
  <separator name="performance" >
   <i type="int" name="NPAR">    24</i>
   <i type="int" name="NSIM">     4</i>
   <i type="int" name="NBLK">    -1</i>
   <i type="logical" name="LPLANE"> T  </i>
   <i type="logical" name="LSCALAPACK"> T  </i>
   <i type="logical" name="LSCAAWARE"> F  </i>
   <i type="logical" name="LSCALU"> F  </i>
   <i type="logical" name="LASYNC"> F  </i>
   <i type="logical" name="LORBITALREAL"> F  </i>
  </separator>
  <separator name="miscellaneous" >
   <i type="int" name="IDIOT">     3</i>
   <i type="int" name="ISPECIAL">     0</i>
   <i type="logical" name="LMUSIC"> F  </i>
   <v name="POMASS">     58.69000000     28.08500000     72.61000000    127.60000000</v>
   <v name="DARWINR">      0.00000000      0.00000000      0.00000000      0.00000000</v>
   <v name="DARWINV">      1.00000000      1.00000000      1.00000000      1.00000000</v>
   <i type="logical" name="LCORR"> T  </i>
  </separator>
  <i type="logical" name="GGA_COMPAT"> T  </i>
  <i type="logical" name="LBERRY"> F  </i>
  <i type="int" name="ICORELEVEL">     0</i>
  <i type="logical" name="LDAU"> F  </i>
  <i type="int" name="I_CONSTRAINED_M">     0</i>
  <separator name="electronic exchange-correlation" >
   <i type="string" name="GGA">BO</i>
   <i type="int" name="VOSKOWN">     0</i>
   <i type="logical" name="LHFCALC"> F  </i>
   <i type="string" name="PRECFOCK"></i>
   <i type="logical" name="LSYMGRAD"> F  </i>
   <i type="logical" name="LHFONE"> F  </i>
   <i type="logical" name="LRHFCALC"> F  </i>
   <i type="logical" name="LTHOMAS"> F  </i>
   <i type="logical" name="LMODELHF"> F  </i>
   <i name="ENCUT4O">     -1.00000000</i>
   <i type="int" name="EXXOEP">     0</i>
   <i type="int" name="FOURORBIT">     0</i>
   <i name="AEXX">      0.00000000</i>
   <i name="HFALPHA">      0.00000000</i>
   <i name="MCALPHA">      0.00000000</i>
   <i name="ALDAX">      1.00000000</i>
   <i name="AGGAX">      1.00000000</i>
   <i name="ALDAC">      1.00000000</i>
   <i name="AGGAC">      0.00000000</i>
   <i type="int" name="NKREDX">     1</i>
   <i type="int" name="NKREDY">     1</i>
   <i type="int" name="NKREDZ">     1</i>
   <i type="logical" name="SHIFTRED"> F  </i>
   <i type="logical" name="ODDONLY"> F  </i>
   <i type="logical" name="EVENONLY"> F  </i>
   <i type="int" name="LMAXFOCK">     0</i>
   <i type="int" name="NMAXFOCKAE">     0</i>
   <i type="logical" name="LFOCKAEDFT"> F  </i>
   <i name="HFSCREEN">      0.00000000</i>
   <i name="HFSCREENC">      0.00000000</i>
   <i type="int" name="NBANDSGWLOW">     0</i>
  </separator>
  <separator name="vdW DFT" >
   <i type="logical" name="LUSE_VDW"> T  </i>
   <i name="Zab_VDW">     -0.84910000</i>
   <i name="PARAM1">      0.18333333</i>
   <i name="PARAM2">      0.22000000</i>
   <i name="PARAM3">      0.00000000</i>
  </separator>
  <separator name="model GW" >
   <i type="int" name="MODEL_GW">     0</i>
   <i name="MODEL_EPS0">     58.13010116</i>
   <i name="MODEL_ALPHA">      1.00000000</i>
  </separator>
  <separator name="linear response parameters" >
   <i type="logical" name="LEPSILON"> F  </i>
   <i type="logical" name="LRPA"> F  </i>
   <i type="logical" name="LNABLA"> F  </i>
   <i type="logical" name="LVEL"> F  </i>
   <i type="int" name="KINTER">     0</i>
   <i name="CSHIFT">      0.10000000</i>
   <i name="OMEGAMAX">     -1.00000000</i>
   <i name="DEG_THRESHOLD">      0.00200000</i>
   <i name="RTIME">     -0.10000000</i>
   <i name="WPLASMAI">      0.00000000</i>
   <v name="DFIELD">      0.00000000      0.00000000      0.00000000</v>
   <v name="WPLASMA">      0.00000000      0.00000000      0.00000000      0.00000000      0.00000000      0.00000000      0.00000000      0.00000000      0.00000000</v>
  </separator>
  <separator name="orbital magnetization" >
   <i type="logical" name="NUCIND"> F  </i>
   <v name="MAGPOS">      0.00000000      0.00000000      0.00000000</v>
   <i type="logical" name="LNICSALL"> T  </i>
   <i type="logical" name="ORBITALMAG"> F  </i>
   <i type="logical" name="LMAGBLOCH"> F  </i>
   <i type="logical" name="LCHIMAG"> F  </i>
   <i type="logical" name="LGAUGE"> T  </i>
   <i type="int" name="MAGATOM">     0</i>
   <v name="MAGDIPOL">      0.00000000      0.00000000      0.00000000</v>
   <v name="AVECCONST">      0.00000000      0.00000000      0.00000000</v>
  </separator>
  <separator name="response functions" >
   <i type="logical" name="LADDER"> F  </i>
   <i type="logical" name="LRPAFORCE"> F  </i>
   <i type="logical" name="LFXC"> F  </i>
   <i type="logical" name="LHARTREE"> T  </i>
   <i type="int" name="IBSE">     0</i>
   <v type="int" name="KPOINT">    -1     0     0     0</v>
   <i type="logical" name="LTCTE"> F  </i>
   <i type="logical" name="LTETE"> F  </i>
   <i type="logical" name="LTRIPLET"> F  </i>
   <i type="logical" name="LFXCEPS"> F  </i>
   <i type="logical" name="LFXHEG"> F  </i>
   <i type="int" name="NATURALO">     2</i>
   <i type="logical" name="L2ORDER"> F  </i>
   <i type="logical" name="LMP2LT"> F  </i>
   <i type="logical" name="LUSEW"> F  </i>
   <i name="ENCUTGW">     -2.00000000</i>
   <i name="ENCUTGWSOFT">     -2.00000000</i>
   <i name="ENCUTLF">     -1.00000000</i>
   <i type="int" name="LMAXMP2">    -1</i>
   <i name="SCISSOR">      0.00000000</i>
   <i type="int" name="NOMEGA">     0</i>
   <i type="int" name="NOMEGAR">     0</i>
   <i type="int" name="NBANDSGW">    -1</i>
   <i type="int" name="NBANDSO">    -1</i>
   <i type="int" name="NBANDSV">    -1</i>
   <i type="int" name="NELM">   400</i>
   <i type="int" name="NELMHF">     1</i>
   <i type="int" name="DIM">     3</i>
   <i type="int" name="ANTIRES">     0</i>
   <i name="OMEGAMAX">    -30.00000000</i>
   <i name="OMEGAMIN">    -30.00000000</i>
   <i name="OMEGATL">   -200.00000000</i>
   <i type="int" name="OMEGAGRID">   140</i>
   <i name="CSHIFT">     -0.10000000</i>
   <i type="logical" name="SELFENERGY"> F  </i>
   <i type="logical" name="LSPECTRAL"> F  </i>
   <i type="logical" name="LSPECTRALGW"> F  </i>
   <i type="logical" name="LSINGLES"> F  </i>
   <i type="logical" name="LFERMIGW"> F  </i>
   <i type="logical" name="ODDONLYGW"> F  </i>
   <i type="logical" name="EVENONLYGW"> F  </i>
   <i type="int" name="NKREDLFX">     1</i>
   <i type="int" name="NKREDLFY">     1</i>
   <i type="int" name="NKREDLFZ">     1</i>
   <i type="int" name="MAXMEM">  2800</i>
   <i type="int" name="TELESCOPE">     0</i>
   <i type="int" name="TAUPAR">     1</i>
   <i type="int" name="OMEGAPAR">    -1</i>
   <i name="LAMBDA">      1.00000000</i>
  </separator>
  <separator name="External order field" >
   <i name="OFIELD_KAPPA">      0.00000000</i>
   <v name="OFIELD_K">      0.00000000      0.00000000      0.00000000</v>
   <i name="OFIELD_Q6_NEAR">      0.00000000</i>
   <i name="OFIELD_Q6_FAR">      0.00000000</i>
   <i name="OFIELD_A">      0.00000000</i>
  </separator>
 </parameters>
 <atominfo>
  <atoms>      10 </atoms>
  <types>       4 </types>
  <array name="atoms" >
   <dimension dim="1">ion</dimension>
   <field type="string">element</field>
   <field type="int">atomtype</field>
   <set>
    <rc><c>Ni</c><c>   1</c></rc>
    <rc><c>Ni</c><c>   1</c></rc>
    <rc><c>Si</c><c>   2</c></rc>
    <rc><c>Ge</c><c>   3</c></rc>
    <rc><c>Te</c><c>   4</c></rc>
    <rc><c>Te</c><c>   4</c></rc>
    <rc><c>Te</c><c>   4</c></rc>
    <rc><c>Te</c><c>   4</c></rc>
    <rc><c>Te</c><c>   4</c></rc>
    <rc><c>Te</c><c>   4</c></rc>
   </set>
  </array>
  <array name="atomtypes" >
   <dimension dim="1">type</dimension>
   <field type="int">atomspertype</field>
   <field type="string">element</field>
   <field>mass</field>
   <field>valence</field>
   <field type="string">pseudopotential</field>
   <set>
    <rc><c>   2</c><c>Ni</c><c>     58.69000000</c><c>     10.00000000</c><c> PAW_PBE Ni 06Sep2000                   </c></rc>
    <rc><c>   1</c><c>Si</c><c>     28.08500000</c><c>      4.00000000</c><c> PAW_PBE Si 05Jan2001                   </c></rc>
    <rc><c>   1</c><c>Ge</c><c>     72.61000000</c><c>      4.00000000</c><c> PAW_PBE Ge 05Jan2001                   </c></rc>
    <rc><c>   6</c><c>Te</c><c>    127.60000000</c><c>      6.00000000</c><c> PAW_PBE Te 08Apr2002                   </c></rc>
   </set>
  </array>
 </atominfo>
 <structure name="initialpos" >
  <crystal>
   <varray name="basis" >
    <v>       6.90777700      -0.00000000       0.00000000 </v>
    <v>       3.45388800       5.98231000       0.00000000 </v>
    <v>       0.00000000       0.00000000      23.44458800 </v>
   </varray>
   <i name="volume">    968.83501932 </i>
   <varray name="rec_basis" >
    <v>       0.14476437      -0.08357974       0.00000000 </v>
    <v>       0.00000000       0.16715951      -0.00000000 </v>
    <v>      -0.00000000       0.00000000       0.04265377 </v>
   </varray>
  </crystal>
  <varray name="positions" >
   <v>       0.33333300       0.33333300       0.49992500 </v>
   <v>       0.66666700       0.66666700       0.50007500 </v>
   <v>       0.00000000       0.00000000       0.44821600 </v>
   <v>       0.00000000       0.00000000       0.55178400 </v>
   <v>       0.62635700       0.00042000       0.57375200 </v>
   <v>       0.00042000       0.37322400       0.57375200 </v>
   <v>       0.37322400       0.62635700       0.57375200 </v>
   <v>       0.37364300       0.99958000       0.42624800 </v>
   <v>       0.99958000       0.62677600       0.42624800 </v>
   <v>       0.62677600       0.37364300       0.42624800 </v>
  </varray>
 </structure>
 <calculation>
  <scstep>
   <time name="dav">   21.09   31.37</time>
   <time name="total">   61.38   92.24</time>
   <energy>
    <i name="alphaZ">     18.74779820 </i>
    <i name="ewald">   8065.03639907 </i>
    <i name="hartreedc"> -11433.89828023 </i>
    <i name="XCdc">   -131.69314055 </i>
    <i name="pawpsdc">   2444.04415745 </i>
    <i name="pawaedc">  -2302.88780480 </i>
    <i name="eentropy">      0.00000000 </i>
    <i name="bandstr">     -7.20628621 </i>
    <i name="atom">   3719.84694474 </i>
    <i name="e_fr_energy">    371.98978767 </i>
    <i name="e_wo_entrp">    371.98978767 </i>
    <i name="e_0_energy">    371.98978767 </i>
   </energy>
  </scstep>
  <scstep>
   <time name="dav">   26.21   39.06</time>
   <time name="total">   26.22   39.07</time>
   <energy>
    <i name="e_fr_energy">      2.81283004 </i>
    <i name="e_wo_entrp">      2.81283004 </i>
    <i name="e_0_energy">      2.81283004 </i>
   </energy>
  </scstep>
  <scstep>
   <time name="dav">   26.69   39.29</time>
   <time name="total">   26.70   39.31</time>
   <energy>
    <i name="e_fr_energy">    -32.79723532 </i>
    <i name="e_wo_entrp">    -32.79723532 </i>
    <i name="e_0_energy">    -32.79723532 </i>
   </energy>
  </scstep>
  <scstep>
   <time name="dav">   27.19   40.54</time>
   <time name="total">   27.20   40.56</time>
   <energy>
    <i name="e_fr_energy">    -33.87575791 </i>
    <i name="e_wo_entrp">    -33.87575791 </i>
    <i name="e_0_energy">    -33.87575791 </i>
   </energy>
  </scstep>
  <scstep>
   <time name="dav">   31.11   45.59</time>
   <time name="total">   32.71   48.12</time>
   <energy>
    <i name="e_fr_energy">    -33.89156496 </i>
    <i name="e_wo_entrp">    -33.89156496 </i>
    <i name="e_0_energy">    -33.89156496 </i>
   </energy>
  </scstep>
  <scstep>
   <time name="dav">   22.51   34.66</time>
   <time name="total">   66.48   96.92</time>
   <energy>
    <i name="e_fr_energy">    -46.00483366 </i>
    <i name="e_wo_entrp">    -46.00483366 </i>
    <i name="e_0_energy">    -46.00483366 </i>
   </energy>
  </scstep>
  <scstep>
   <time name="dav">   23.51   35.18</time>
   <time name="total">   64.48   97.32</time>
   <energy>
    <i name="e_fr_energy">    -32.17597362 </i>
    <i name="e_wo_entrp">    -32.17597362 </i>
    <i name="e_0_energy">    -32.17597362 </i>
   </energy>
  </scstep>
  <scstep>
   <time name="dav">   26.58   40.74</time>
   <time name="total">   66.26  102.39</time>
   <energy>
    <i name="e_fr_energy">    -32.40681249 </i>
    <i name="e_wo_entrp">    -32.40681249 </i>
    <i name="e_0_energy">    -32.40681249 </i>
   </energy>
  </scstep>
  <scstep>
   <time name="dav">   20.19   31.69</time>
   <time name="total">   61.04   93.53</time>
   <energy>
    <i name="e_fr_energy">    -32.33902193 </i>
    <i name="e_wo_entrp">    -32.33902193 </i>
    <i name="e_0_energy">    -32.33902193 </i>
   </energy>
  </scstep>
  <scstep>
   <time name="dav">   23.61   36.09</time>
   <time name="total">   64.70   98.42</time>
   <energy>
    <i name="e_fr_energy">    -32.20037776 </i>
    <i name="e_wo_entrp">    -32.20037776 </i>
    <i name="e_0_energy">    -32.20037776 </i>
   </energy>
  </scstep>
  <scstep>
   <time name="dav">   29.52   44.97</time>
   <time name="total">   70.08  106.06</time>
   <energy>
    <i name="e_fr_energy">    -32.24574250 </i>
    <i name="e_wo_entrp">    -32.24574250 </i>
    <i name="e_0_energy">    -32.24574250 </i>
   </energy>
  </scstep>
  <scstep>
   <time name="dav">   20.43   32.01</time>
   <time name="total">   62.27   93.93</time>
   <energy>
    <i name="e_fr_energy">    -32.32877163 </i>
    <i name="e_wo_entrp">    -32.32877163 </i>
    <i name="e_0_energy">    -32.32877163 </i>
   </energy>
  </scstep>
  <scstep>
   <time name="dav">   21.38   32.83</time>
   <time name="total">   60.58   93.24</time>
   <energy>
    <i name="e_fr_energy">    -32.40629817 </i>
    <i name="e_wo_entrp">    -32.40629817 </i>
    <i name="e_0_energy">    -32.40629817 </i>
   </energy>
  </scstep>
  <scstep>
   <time name="dav">   19.96   30.60</time>
   <time name="total">   60.36   91.46</time>
   <energy>
    <i name="e_fr_energy">    -32.46064792 </i>
    <i name="e_wo_entrp">    -32.46064792 </i>
    <i name="e_0_energy">    -32.46064792 </i>
   </energy>
  </scstep>
  <scstep>
   <time name="dav">   19.82   30.48</time>
   <time name="total">   62.20   93.89</time>
   <energy>
    <i name="e_fr_energy">    -32.46442659 </i>
    <i name="e_wo_entrp">    -32.46442659 </i>
    <i name="e_0_energy">    -32.46442659 </i>
   </energy>
  </scstep>
  <scstep>
   <time name="dav">   20.50   31.54</time>
   <time name="total">   60.48   94.34</time>
   <energy>
    <i name="e_fr_energy">    -32.46529547 </i>
    <i name="e_wo_entrp">    -32.46529547 </i>
    <i name="e_0_energy">    -32.46529547 </i>
   </energy>
  </scstep>
  <scstep>
   <time name="dav">   22.75   33.67</time>
   <time name="total">   61.48   92.19</time>
   <energy>
    <i name="alphaZ">     18.74779820 </i>
    <i name="ewald">   8065.03639907 </i>
    <i name="hartreedc"> -11431.41280149 </i>
    <i name="XCdc">   -132.32547418 </i>
    <i name="pawpsdc">   2505.81635876 </i>
    <i name="pawaedc">  -2366.41153676 </i>
    <i name="eentropy">      0.00000000 </i>
    <i name="bandstr">   -411.76303416 </i>
    <i name="atom">   3719.84694474 </i>
    <i name="e_fr_energy">    -32.46534582 </i>
    <i name="e_wo_entrp">    -32.46534582 </i>
    <i name="e_0_energy">    -32.46534582 </i>
   </energy>
  </scstep>
  <structure>
   <crystal>
    <varray name="basis" >
     <v>       6.90777700      -0.00000000       0.00000000 </v>
     <v>       3.45388800       5.98231000       0.00000000 </v>
     <v>       0.00000000       0.00000000      23.44458800 </v>
    </varray>
    <i name="volume">    968.83501932 </i>
    <varray name="rec_basis" >
     <v>       0.14476437      -0.08357974       0.00000000 </v>
     <v>       0.00000000       0.16715951      -0.00000000 </v>
     <v>      -0.00000000       0.00000000       0.04265377 </v>
    </varray>
   </crystal>
   <varray name="positions" >
    <v>       0.33333300       0.33333300       0.49992500 </v>
    <v>       0.66666700       0.66666700       0.50007500 </v>
    <v>       0.00000000       0.00000000       0.44821600 </v>
    <v>       0.00000000       0.00000000       0.55178400 </v>
    <v>       0.62635700       0.00042000       0.57375200 </v>
    <v>       0.00042000       0.37322400       0.57375200 </v>
    <v>       0.37322400       0.62635700       0.57375200 </v>
    <v>       0.37364300       0.99958000       0.42624800 </v>
    <v>       0.99958000       0.62677600       0.42624800 </v>
    <v>       0.62677600       0.37364300       0.42624800 </v>
   </varray>
  </structure>
  <varray name="forces" >
   <v>      -0.00000000       0.00000000       0.02614323 </v>
   <v>      -0.00000000       0.00000000       0.01943432 </v>
   <v>      -0.00000000       0.00000000      -0.08407069 </v>
   <v>      -0.00000000       0.00000000      -0.26790059 </v>
   <v>      -0.43950392      -0.00646006      -0.55388905 </v>
   <v>       0.21415736       0.38385156      -0.55388905 </v>
   <v>       0.22534656      -0.37739151      -0.55388905 </v>
   <v>      -0.19367499       0.00656902       0.65602030 </v>
   <v>       0.10252642       0.16444294       0.65602030 </v>
   <v>       0.09114857      -0.17101196       0.65602030 </v>
  </varray>
  <varray name="stress" >
   <v>     -11.38842860       0.00000142       0.00000000 </v>
   <v>       0.00000048     -11.38842721       0.00000000 </v>
   <v>       0.00000000       0.00000000     -10.13452793 </v>
  </varray>
  <energy>
   <i name="e_fr_energy">    -32.46534582 </i>
   <i name="e_wo_entrp">    -32.46534582 </i>
   <i name="e_0_energy">      0.00000000 </i>
  </energy>
  <time name="totalsc"> 1050.99 1587.81</time>
 </calculation>
 <calculation>
  <scstep>
   <time name="dav">   23.53   34.46</time>
   <time name="total">   65.62   97.81</time>
   <energy>
    <i name="alphaZ">     20.66953761 </i>
    <i name="ewald">   8468.95231992 </i>
    <i name="hartreedc"> -11942.24987525 </i>
    <i name="XCdc">   -127.77507874 </i>
    <i name="pawpsdc">   2506.83009606 </i>
    <i name="pawaedc">  -2367.44039371 </i>
    <i name="eentropy">      0.00000000 </i>
    <i name="bandstr">   -319.28236059 </i>
    <i name="atom">   3719.84694474 </i>
    <i name="e_fr_energy">    -40.44880996 </i>
    <i name="e_wo_entrp">    -40.44880996 </i>
    <i name="e_0_energy">    -40.44880996 </i>
   </energy>
  </scstep>
  <scstep>
   <time name="dav">   20.17   31.00</time>
   <time name="total">   62.84   94.00</time>
   <energy>
    <i name="e_fr_energy">    -72.19032405 </i>
    <i name="e_wo_entrp">    -72.19032405 </i>
    <i name="e_0_energy">    -72.19032405 </i>
   </energy>
  </scstep>
  <scstep>
   <time name="dav">   21.97   32.91</time>
   <time name="total">   63.10   94.83</time>
   <energy>
    <i name="e_fr_energy">    -35.29214650 </i>
    <i name="e_wo_entrp">    -35.29214650 </i>
    <i name="e_0_energy">    -35.29214650 </i>
   </energy>
  </scstep>
  <scstep>
   <time name="dav">   28.59   41.49</time>
   <time name="total">   71.43  104.62</time>
   <energy>
    <i name="e_fr_energy">    -34.23580016 </i>
    <i name="e_wo_entrp">    -34.23580016 </i>
    <i name="e_0_energy">    -34.23580016 </i>
   </energy>
  </scstep>
  <scstep>
   <time name="dav">   23.60   34.65</time>
   <time name="total">   63.49   96.20</time>
   <energy>
    <i name="e_fr_energy">    -33.26227447 </i>
    <i name="e_wo_entrp">    -33.26227447 </i>
    <i name="e_0_energy">    -33.26227447 </i>
   </energy>
  </scstep>
  <scstep>
   <time name="dav">   22.84   37.30</time>
   <time name="total">   64.64   98.65</time>
   <energy>
    <i name="e_fr_energy">    -33.03673829 </i>
    <i name="e_wo_entrp">    -33.03673829 </i>
    <i name="e_0_energy">    -33.03673829 </i>
   </energy>
  </scstep>
  <scstep>
   <time name="dav">   22.00   33.21</time>
   <time name="total">   63.23   95.49</time>
   <energy>
    <i name="e_fr_energy">    -32.87401559 </i>
    <i name="e_wo_entrp">    -32.87401559 </i>
    <i name="e_0_energy">    -32.87401559 </i>
   </energy>
  </scstep>
  <scstep>
   <time name="dav">   23.06   34.61</time>
   <time name="total">   62.58   95.98</time>
   <energy>
    <i name="e_fr_energy">    -32.82886786 </i>
    <i name="e_wo_entrp">    -32.82886786 </i>
    <i name="e_0_energy">    -32.82886786 </i>
   </energy>
  </scstep>
  <scstep>
   <time name="dav">   25.56   38.71</time>
   <time name="total">   66.48   99.68</time>
   <energy>
    <i name="e_fr_energy">    -32.84014431 </i>
    <i name="e_wo_entrp">    -32.84014431 </i>
    <i name="e_0_energy">    -32.84014431 </i>
   </energy>
  </scstep>
  <scstep>
   <time name="dav">   21.84   33.69</time>
   <time name="total">   63.56   95.21</time>
   <energy>
    <i name="e_fr_energy">    -32.82904934 </i>
    <i name="e_wo_entrp">    -32.82904934 </i>
    <i name="e_0_energy">    -32.82904934 </i>
   </energy>
  </scstep>
  <scstep>
   <time name="dav">   24.95   38.46</time>
   <time name="total">   67.49  100.78</time>
   <energy>
    <i name="e_fr_energy">    -32.83154419 </i>
    <i name="e_wo_entrp">    -32.83154419 </i>
    <i name="e_0_energy">    -32.83154419 </i>
   </energy>
  </scstep>
  <scstep>
   <time name="dav">   21.70   33.60</time>
   <time name="total">   64.67   96.78</time>
   <energy>
    <i name="e_fr_energy">    -32.83170396 </i>
    <i name="e_wo_entrp">    -32.83170396 </i>
    <i name="e_0_energy">    -32.83170396 </i>
   </energy>
  </scstep>
  <scstep>
   <time name="dav">   25.41   38.78</time>
   <time name="total">   65.20  101.37</time>
   <energy>
    <i name="e_fr_energy">    -32.83194278 </i>
    <i name="e_wo_entrp">    -32.83194278 </i>
    <i name="e_0_energy">    -32.83194278 </i>
   </energy>
  </scstep>
  <scstep>
   <time name="dav">   22.19   32.94</time>
   <time name="total">   64.39   95.37</time>
   <energy>
    <i name="e_fr_energy">    -32.83232292 </i>
    <i name="e_wo_entrp">    -32.83232292 </i>
    <i name="e_0_energy">    -32.83232292 </i>
   </energy>
  </scstep>
  <scstep>
   <time name="dav">   20.82   33.15</time>
   <time name="total">   60.87   95.22</time>
   <energy>
    <i name="e_fr_energy">    -32.83296546 </i>
    <i name="e_wo_entrp">    -32.83296546 </i>
    <i name="e_0_energy">    -32.83296546 </i>
   </energy>
  </scstep>
  <scstep>
   <time name="dav">   23.61   35.34</time>
   <time name="total">   62.60   94.25</time>
   <energy>
    <i name="alphaZ">     20.66953761 </i>
    <i name="ewald">   8468.95231992 </i>
    <i name="hartreedc"> -11852.57101974 </i>
    <i name="XCdc">   -130.31634681 </i>
    <i name="pawpsdc">   2562.34389353 </i>
    <i name="pawaedc">  -2423.99822422 </i>
    <i name="eentropy">      0.00000000 </i>
    <i name="bandstr">   -397.76007796 </i>
    <i name="atom">   3719.84694474 </i>
    <i name="e_fr_energy">    -32.83297294 </i>
    <i name="e_wo_entrp">    -32.83297294 </i>
    <i name="e_0_energy">    -32.83297294 </i>
   </energy>
  </scstep>
  <structure>
   <crystal>
    <varray name="basis" >
     <v>       6.67828236       0.00000003       0.00000000 </v>
     <v>       3.33914070       5.78356186       0.00000000 </v>
     <v>       0.00000000       0.00000000      22.75145501 </v>
    </varray>
    <i name="volume">    878.75809199 </i>
    <varray name="rec_basis" >
     <v>       0.14973910      -0.08645190      -0.00000000 </v>
     <v>      -0.00000000       0.17290383       0.00000000 </v>
     <v>      -0.00000000       0.00000000       0.04395323 </v>
    </varray>
   </crystal>
   <varray name="positions" >
    <v>       0.33333300       0.33333300       0.49997880 </v>
    <v>       0.66666700       0.66666700       0.50011499 </v>
    <v>      -0.00000000       0.00000000       0.44804301 </v>
    <v>      -0.00000000       0.00000000       0.55123273 </v>
    <v>       0.62331363       0.00036790       0.57261225 </v>
    <v>       0.00036790       0.37631946       0.57261225 </v>
    <v>       0.37631946       0.62331363       0.57261225 </v>
    <v>       0.37226392       0.99963297       0.42759791 </v>
    <v>       0.99963297       0.62810210       0.42759791 </v>
    <v>       0.62810210       0.37226392       0.42759791 </v>
   </varray>
  </structure>
  <varray name="forces" >
   <v>       0.00000000       0.00000000       0.02229981 </v>
   <v>       0.00000000       0.00000000       0.02497416 </v>
   <v>       0.00000000       0.00000000      -0.38787052 </v>
   <v>       0.00000000       0.00000000       0.19770312 </v>
   <v>      -0.69305300      -0.00599738       0.02829538 </v>
   <v>       0.34133257       0.60320016       0.02829538 </v>
   <v>       0.35172043      -0.59720278       0.02829538 </v>
   <v>       0.21133205       0.00854145       0.01933577 </v>
   <v>      -0.09826890      -0.18728964       0.01933577 </v>
   <v>      -0.11306315       0.17874819       0.01933577 </v>
  </varray>
  <varray name="stress" >
   <v>       4.12282948      -0.00000164      -0.00000000 </v>
   <v>       0.00000100       4.12282901       0.00000000 </v>
   <v>      -0.00000000      -0.00000000      -0.47874977 </v>
  </varray>
  <energy>
   <i name="e_fr_energy">    -32.83297294 </i>
   <i name="e_wo_entrp">    -32.83297294 </i>
   <i name="e_0_energy">      0.00000000 </i>
  </energy>
  <time name="totalsc"> 1134.22 1712.64</time>
 </calculation>
 <calculation>
  <scstep>
   <time name="dav">   22.16   33.93</time>
   <time name="total">   63.36   96.12</time>
   <energy>
    <i name="alphaZ">     20.46365873 </i>
    <i name="ewald">   8426.43500551 </i>
    <i name="hartreedc"> -11797.75180218 </i>
    <i name="XCdc">   -130.79197809 </i>
    <i name="pawpsdc">   2562.08159677 </i>
    <i name="pawaedc">  -2423.74681527 </i>
    <i name="eentropy">      0.00000000 </i>
    <i name="bandstr">   -409.46626384 </i>
    <i name="atom">   3719.84694474 </i>
    <i name="e_fr_energy">    -32.92965363 </i>
    <i name="e_wo_entrp">    -32.92965363 </i>
    <i name="e_0_energy">    -32.92965363 </i>
   </energy>
  </scstep>
  <scstep>
   <time name="dav">   22.14   32.23</time>
   <time name="total">   63.06   94.73</time>
   <energy>
    <i name="e_fr_energy">    -33.41700265 </i>
    <i name="e_wo_entrp">    -33.41700265 </i>
    <i name="e_0_energy">    -33.41700265 </i>
   </energy>
  </scstep>
  <scstep>
   <time name="dav">   21.85   31.95</time>
   <time name="total">   62.77   93.63</time>
   <energy>
    <i name="e_fr_energy">    -32.85696541 </i>
    <i name="e_wo_entrp">    -32.85696541 </i>
    <i name="e_0_energy">    -32.85696541 </i>
   </energy>
  </scstep>
  <scstep>
   <time name="dav">   24.24   37.59</time>
   <time name="total">   66.25  100.11</time>
   <energy>
    <i name="e_fr_energy">    -32.85841462 </i>
    <i name="e_wo_entrp">    -32.85841462 </i>
    <i name="e_0_energy">    -32.85841462 </i>
   </energy>
  </scstep>
  <scstep>
   <time name="dav">   21.58   33.61</time>
   <time name="total">   62.71   96.42</time>
   <energy>
    <i name="e_fr_energy">    -32.84559150 </i>
    <i name="e_wo_entrp">    -32.84559150 </i>
    <i name="e_0_energy">    -32.84559150 </i>
   </energy>
  </scstep>
  <scstep>
   <time name="dav">   23.75   35.06</time>
   <time name="total">   64.01   96.96</time>
   <energy>
    <i name="e_fr_energy">    -32.84553312 </i>
    <i name="e_wo_entrp">    -32.84553312 </i>
    <i name="e_0_energy">    -32.84553312 </i>
   </energy>
  </scstep>
  <scstep>
   <time name="dav">   23.36   35.89</time>
   <time name="total">   65.02   97.87</time>
   <energy>
    <i name="e_fr_energy">    -32.84513576 </i>
    <i name="e_wo_entrp">    -32.84513576 </i>
    <i name="e_0_energy">    -32.84513576 </i>
   </energy>
  </scstep>
  <scstep>
   <time name="dav">   17.64   26.36</time>
   <time name="total">   57.13   85.89</time>
   <energy>
    <i name="alphaZ">     20.46365873 </i>
    <i name="ewald">   8426.43500551 </i>
    <i name="hartreedc"> -11805.64634034 </i>
    <i name="XCdc">   -130.55915222 </i>
    <i name="pawpsdc">   2555.97295471 </i>
    <i name="pawaedc">  -2417.50174218 </i>
    <i name="eentropy">      0.00000000 </i>
    <i name="bandstr">   -401.85638841 </i>
    <i name="atom">   3719.84694474 </i>
    <i name="e_fr_energy">    -32.84505945 </i>
    <i name="e_wo_entrp">    -32.84505945 </i>
    <i name="e_0_energy">    -32.84505945 </i>
   </energy>
  </scstep>
  <structure>
   <crystal>
    <varray name="basis" >
     <v>       6.70148123       0.00000003       0.00000000 </v>
     <v>       3.35074014       5.80365266       0.00000000 </v>
     <v>       0.00000000       0.00000000      22.82152157 </v>
    </varray>
    <i name="volume">    887.59901970 </i>
    <varray name="rec_basis" >
     <v>       0.14922074      -0.08615263      -0.00000000 </v>
     <v>      -0.00000000       0.17230528       0.00000000 </v>
     <v>      -0.00000000       0.00000000       0.04381829 </v>
    </varray>
   </crystal>
   <varray name="positions" >
    <v>       0.33333300       0.33333300       0.49997319 </v>
    <v>       0.66666700       0.66666700       0.50011082 </v>
    <v>      -0.00000000       0.00000000       0.44806103 </v>
    <v>      -0.00000000       0.00000000       0.55129016 </v>
    <v>       0.62363185       0.00037335       0.57273097 </v>
    <v>       0.00037335       0.37599580       0.57273097 </v>
    <v>       0.37599580       0.62363185       0.57273097 </v>
    <v>       0.37240812       0.99962744       0.42745730 </v>
    <v>       0.99962744       0.62796345       0.42745730 </v>
    <v>       0.62796345       0.37240812       0.42745730 </v>
   </varray>
  </structure>
  <varray name="forces" >
   <v>       0.00000000       0.00000000       0.02499515 </v>
   <v>       0.00000000       0.00000000       0.02529813 </v>
   <v>       0.00000000       0.00000000      -0.35463713 </v>
   <v>       0.00000000       0.00000000       0.14535330 </v>
   <v>      -0.67256185      -0.00748151      -0.04691447 </v>
   <v>       0.32980170       0.58619637      -0.04691447 </v>
   <v>       0.34276015      -0.57871486      -0.04691447 </v>
   <v>       0.16530916       0.00684167       0.09991132 </v>
   <v>      -0.07672950      -0.14658276       0.09991132 </v>
   <v>      -0.08857965       0.13974109       0.09991132 </v>
  </varray>
  <varray name="stress" >
   <v>       3.06741015      -0.00000146      -0.00000000 </v>
   <v>       0.00000098       3.06740980       0.00000000 </v>
   <v>      -0.00000000       0.00000000      -0.47440026 </v>
  </varray>
  <energy>
   <i name="e_fr_energy">    -32.84505945 </i>
   <i name="e_wo_entrp">    -32.84505945 </i>
   <i name="e_0_energy">      0.00000000 </i>
  </energy>
  <time name="totalsc">  605.48  915.63</time>
 </calculation>
 <calculation>
  <scstep>
   <time name="dav">   23.26   34.61</time>
   <time name="total">   64.45   96.91</time>
   <energy>
    <i name="alphaZ">     20.34649428 </i>
    <i name="ewald">   8402.15000495 </i>
    <i name="hartreedc"> -11775.21661345 </i>
    <i name="XCdc">   -130.82382687 </i>
    <i name="pawpsdc">   2555.72083713 </i>
    <i name="pawaedc">  -2417.24778656 </i>
    <i name="eentropy">      0.00000000 </i>
    <i name="bandstr">   -407.64825552 </i>
    <i name="atom">   3719.84694474 </i>
    <i name="e_fr_energy">    -32.87220130 </i>
    <i name="e_wo_entrp">    -32.87220130 </i>
    <i name="e_0_energy">    -32.87220130 </i>
   </energy>
  </scstep>
  <scstep>
   <time name="dav">   22.03   32.96</time>
   <time name="total">   62.68   94.23</time>
   <energy>
    <i name="e_fr_energy">    -33.04483918 </i>
    <i name="e_wo_entrp">    -33.04483918 </i>
    <i name="e_0_energy">    -33.04483918 </i>
   </energy>
  </scstep>
  <scstep>
   <time name="dav">   21.45   33.22</time>
   <time name="total">   62.44   95.29</time>
   <energy>
    <i name="e_fr_energy">    -32.84882704 </i>
    <i name="e_wo_entrp">    -32.84882704 </i>
    <i name="e_0_energy">    -32.84882704 </i>
   </energy>
  </scstep>
  <scstep>
   <time name="dav">   24.27   37.80</time>
   <time name="total">   66.36   98.97</time>
   <energy>
    <i name="e_fr_energy">    -32.85285348 </i>
    <i name="e_wo_entrp">    -32.85285348 </i>
    <i name="e_0_energy">    -32.85285348 </i>
   </energy>
  </scstep>
  <scstep>
   <time name="dav">   21.69   31.88</time>
   <time name="total">   63.70   94.04</time>
   <energy>
    <i name="e_fr_energy">    -32.84637518 </i>
    <i name="e_wo_entrp">    -32.84637518 </i>
    <i name="e_0_energy">    -32.84637518 </i>
   </energy>
  </scstep>
  <scstep>
   <time name="dav">   22.46   32.34</time>
   <time name="total">   64.65   95.49</time>
   <energy>
    <i name="e_fr_energy">    -32.84684885 </i>
    <i name="e_wo_entrp">    -32.84684885 </i>
    <i name="e_0_energy">    -32.84684885 </i>
   </energy>
  </scstep>
  <scstep>
   <time name="dav">   18.46   28.66</time>
   <time name="total">   60.44   91.24</time>
   <energy>
    <i name="e_fr_energy">    -32.84671890 </i>
    <i name="e_wo_entrp">    -32.84671890 </i>
    <i name="e_0_energy">    -32.84671890 </i>
   </energy>
  </scstep>
  <scstep>
   <time name="dav">   22.76   32.08</time>
   <time name="total">   64.73   94.04</time>
   <energy>
    <i name="e_fr_energy">    -32.84687623 </i>
    <i name="e_wo_entrp">    -32.84687623 </i>
    <i name="e_0_energy">    -32.84687623 </i>
   </energy>
  </scstep>
  <scstep>
   <time name="dav">   19.55   30.19</time>
   <time name="total">   60.40   93.27</time>
   <energy>
    <i name="e_fr_energy">    -32.84698593 </i>
    <i name="e_wo_entrp">    -32.84698593 </i>
    <i name="e_0_energy">    -32.84698593 </i>
   </energy>
  </scstep>
  <scstep>
   <time name="dav">   20.38   30.34</time>
   <time name="total">   59.79   89.19</time>
   <energy>
    <i name="alphaZ">     20.34649428 </i>
    <i name="ewald">   8402.15000495 </i>
    <i name="hartreedc"> -11780.16405304 </i>
    <i name="XCdc">   -130.68009772 </i>
    <i name="pawpsdc">   2551.98277082 </i>
    <i name="pawaedc">  -2413.44519712 </i>
    <i name="eentropy">      0.00000000 </i>
    <i name="bandstr">   -402.88392932 </i>
    <i name="atom">   3719.84694474 </i>
    <i name="e_fr_energy">    -32.84706241 </i>
    <i name="e_wo_entrp">    -32.84706241 </i>
    <i name="e_0_energy">    -32.84706241 </i>
   </energy>
  </scstep>
  <structure>
   <crystal>
    <varray name="basis" >
     <v>       6.71482308       0.00000002       0.00000000 </v>
     <v>       3.35741106       5.81520705       0.00000000 </v>
     <v>       0.00000000       0.00000000      22.86181742 </v>
    </varray>
    <i name="volume">    892.71022231 </i>
    <varray name="rec_basis" >
     <v>       0.14892425      -0.08598145      -0.00000000 </v>
     <v>      -0.00000000       0.17196292       0.00000000 </v>
     <v>      -0.00000000       0.00000000       0.04374105 </v>
    </varray>
   </crystal>
   <varray name="positions" >
    <v>       0.33333300       0.33333300       0.49996998 </v>
    <v>       0.66666700       0.66666700       0.50010844 </v>
    <v>      -0.00000000       0.00000000       0.44807136 </v>
    <v>      -0.00000000       0.00000000       0.55132308 </v>
    <v>       0.62381422       0.00037647       0.57279904 </v>
    <v>       0.00037647       0.37581030       0.57279904 </v>
    <v>       0.37581030       0.62381422       0.57279904 </v>
    <v>       0.37249076       0.99962426       0.42737668 </v>
    <v>       0.99962426       0.62788398       0.42737668 </v>
    <v>       0.62788398       0.37249076       0.42737668 </v>
   </varray>
  </structure>
  <varray name="forces" >
   <v>       0.00000000       0.00000000       0.02697012 </v>
   <v>       0.00000000       0.00000000       0.02599262 </v>
   <v>       0.00000000       0.00000000      -0.33211369 </v>
   <v>       0.00000000       0.00000000       0.11341599 </v>
   <v>      -0.65866134      -0.00822352      -0.08638585 </v>
   <v>       0.32220884       0.57452918      -0.08638585 </v>
   <v>       0.33645249      -0.56630565      -0.08638585 </v>
   <v>       0.13822920       0.00757770       0.14163084 </v>
   <v>      -0.06255211      -0.12349885       0.14163084 </v>
   <v>      -0.07567709       0.11592115       0.14163084 </v>
  </varray>
  <varray name="stress" >
   <v>       1.97947446       0.00000057       0.00000000 </v>
   <v>      -0.00000088       1.97947423       0.00000000 </v>
   <v>       0.00000000       0.00000000      -1.21088915 </v>
  </varray>
  <energy>
   <i name="e_fr_energy">    -32.84706241 </i>
   <i name="e_wo_entrp">    -32.84706241 </i>
   <i name="e_0_energy">      0.00000000 </i>
  </energy>
  <time name="totalsc">  732.19 1097.00</time>
 </calculation>
 <calculation>
  <scstep>
   <time name="dav">   21.78   33.77</time>
   <time name="total">   63.39   96.75</time>
   <energy>
    <i name="alphaZ">     20.40567260 </i>
    <i name="ewald">   8311.74645744 </i>
    <i name="hartreedc"> -11699.28594575 </i>
    <i name="XCdc">   -130.51389547 </i>
    <i name="pawpsdc">   2551.97541317 </i>
    <i name="pawaedc">  -2413.44314844 </i>
    <i name="eentropy">      0.00000000 </i>
    <i name="bandstr">   -393.65929483 </i>
    <i name="atom">   3719.84694474 </i>
    <i name="e_fr_energy">    -32.92779656 </i>
    <i name="e_wo_entrp">    -32.92779656 </i>
    <i name="e_0_energy">    -32.92779656 </i>
   </energy>
  </scstep>
  <scstep>
   <time name="dav">   22.18   34.50</time>
   <time name="total">   62.25   95.65</time>
   <energy>
    <i name="e_fr_energy">    -32.99085956 </i>
    <i name="e_wo_entrp">    -32.99085956 </i>
    <i name="e_0_energy">    -32.99085956 </i>
   </energy>
  </scstep>
  <scstep>
   <time name="dav">   24.64   36.27</time>
   <time name="total">   66.26   98.12</time>
   <energy>
    <i name="e_fr_energy">    -32.92136943 </i>
    <i name="e_wo_entrp">    -32.92136943 </i>
    <i name="e_0_energy">    -32.92136943 </i>
   </energy>
  </scstep>
  <scstep>
   <time name="dav">   25.82   39.34</time>
   <time name="total">   66.30  100.57</time>
   <energy>
    <i name="e_fr_energy">    -32.91957262 </i>
    <i name="e_wo_entrp">    -32.91957262 </i>
    <i name="e_0_energy">    -32.91957262 </i>
   </energy>
  </scstep>
  <scstep>
   <time name="dav">   21.98   34.07</time>
   <time name="total">   62.61   95.71</time>
   <energy>
    <i name="e_fr_energy">    -32.91862379 </i>
    <i name="e_wo_entrp">    -32.91862379 </i>
    <i name="e_0_energy">    -32.91862379 </i>
   </energy>
  </scstep>
  <scstep>
   <time name="dav">   22.98   35.73</time>
   <time name="total">   63.96   97.92</time>
   <energy>
    <i name="e_fr_energy">    -32.92669370 </i>
    <i name="e_wo_entrp">    -32.92669370 </i>
    <i name="e_0_energy">    -32.92669370 </i>
   </energy>
  </scstep>
  <scstep>
   <time name="dav">   22.97   34.19</time>
   <time name="total">   63.81   95.88</time>
   <energy>
    <i name="e_fr_energy">    -32.92710565 </i>
    <i name="e_wo_entrp">    -32.92710565 </i>
    <i name="e_0_energy">    -32.92710565 </i>
   </energy>
  </scstep>
  <scstep>
   <time name="dav">   19.99   30.96</time>
   <time name="total">   62.51   93.84</time>
   <energy>
    <i name="e_fr_energy">    -32.92777781 </i>
    <i name="e_wo_entrp">    -32.92777781 </i>
    <i name="e_0_energy">    -32.92777781 </i>
   </energy>
  </scstep>
  <scstep>
   <time name="dav">   22.02   32.22</time>
   <time name="total">   64.71   95.01</time>
   <energy>
    <i name="e_fr_energy">    -32.92871187 </i>
    <i name="e_wo_entrp">    -32.92871187 </i>
    <i name="e_0_energy">    -32.92871187 </i>
   </energy>
  </scstep>
  <scstep>
   <time name="dav">   21.15   32.44</time>
   <time name="total">   61.67   94.53</time>
   <energy>
    <i name="e_fr_energy">    -32.92956036 </i>
    <i name="e_wo_entrp">    -32.92956036 </i>
    <i name="e_0_energy">    -32.92956036 </i>
   </energy>
  </scstep>
  <scstep>
   <time name="dav">   21.39   32.55</time>
   <time name="total">   62.25   94.57</time>
   <energy>
    <i name="e_fr_energy">    -32.92912934 </i>
    <i name="e_wo_entrp">    -32.92912934 </i>
    <i name="e_0_energy">    -32.92912934 </i>
   </energy>
  </scstep>
  <scstep>
   <time name="dav">   17.92   27.56</time>
   <time name="total">   58.69   89.73</time>
   <energy>
    <i name="e_fr_energy">    -32.92942387 </i>
    <i name="e_wo_entrp">    -32.92942387 </i>
    <i name="e_0_energy">    -32.92942387 </i>
   </energy>
  </scstep>
  <scstep>
   <time name="dav">   18.83   27.63</time>
   <time name="total">   61.76   90.30</time>
   <energy>
    <i name="e_fr_energy">    -32.92893982 </i>
    <i name="e_wo_entrp">    -32.92893982 </i>
    <i name="e_0_energy">    -32.92893982 </i>
   </energy>
  </scstep>
  <scstep>
   <time name="dav">   19.12   28.96</time>
   <time name="total">   58.92   91.03</time>
   <energy>
    <i name="e_fr_energy">    -32.92978047 </i>
    <i name="e_wo_entrp">    -32.92978047 </i>
    <i name="e_0_energy">    -32.92978047 </i>
   </energy>
  </scstep>
  <scstep>
   <time name="dav">   18.85   29.17</time>
   <time name="total">   59.83   91.89</time>
   <energy>
    <i name="e_fr_energy">    -32.92921280 </i>
    <i name="e_wo_entrp">    -32.92921280 </i>
    <i name="e_0_energy">    -32.92921280 </i>
   </energy>
  </scstep>
  <scstep>
   <time name="dav">   18.05   26.86</time>
   <time name="total">   60.60   89.04</time>
   <energy>
    <i name="e_fr_energy">    -32.92945529 </i>
    <i name="e_wo_entrp">    -32.92945529 </i>
    <i name="e_0_energy">    -32.92945529 </i>
   </energy>
  </scstep>
  <scstep>
   <time name="dav">   17.37   26.27</time>
   <time name="total">   58.35   88.73</time>
   <energy>
    <i name="e_fr_energy">    -32.92982514 </i>
    <i name="e_wo_entrp">    -32.92982514 </i>
    <i name="e_0_energy">    -32.92982514 </i>
   </energy>
  </scstep>
  <scstep>
   <time name="dav">   21.28   30.91</time>
   <time name="total">   62.86   93.60</time>
   <energy>
    <i name="e_fr_energy">    -32.92742757 </i>
    <i name="e_wo_entrp">    -32.92742757 </i>
    <i name="e_0_energy">    -32.92742757 </i>
   </energy>
  </scstep>
  <scstep>
   <time name="dav">   20.20   30.35</time>
   <time name="total">   61.36   91.68</time>
   <energy>
    <i name="e_fr_energy">    -32.92625946 </i>
    <i name="e_wo_entrp">    -32.92625946 </i>
    <i name="e_0_energy">    -32.92625946 </i>
   </energy>
  </scstep>
  <scstep>
   <time name="dav">   20.16   30.56</time>
   <time name="total">   59.67   91.28</time>
   <energy>
    <i name="e_fr_energy">    -32.92598602 </i>
    <i name="e_wo_entrp">    -32.92598602 </i>
    <i name="e_0_energy">    -32.92598602 </i>
   </energy>
  </scstep>
  <scstep>
   <time name="dav">   18.45   28.21</time>
   <time name="total">   60.86   90.08</time>
   <energy>
    <i name="e_fr_energy">    -32.92664307 </i>
    <i name="e_wo_entrp">    -32.92664307 </i>
    <i name="e_0_energy">    -32.92664307 </i>
   </energy>
  </scstep>
  <scstep>
   <time name="dav">   21.08   33.67</time>
   <time name="total">   62.80   95.63</time>
   <energy>
    <i name="e_fr_energy">    -32.92775133 </i>
    <i name="e_wo_entrp">    -32.92775133 </i>
    <i name="e_0_energy">    -32.92775133 </i>
   </energy>
  </scstep>
  <scstep>
   <time name="dav">   17.36   26.15</time>
   <time name="total">   58.84   87.34</time>
   <energy>
    <i name="e_fr_energy">    -32.92869958 </i>
    <i name="e_wo_entrp">    -32.92869958 </i>
    <i name="e_0_energy">    -32.92869958 </i>
   </energy>
  </scstep>
  <scstep>
   <time name="dav">   17.54   27.95</time>
   <time name="total">   58.86   89.63</time>
   <energy>
    <i name="e_fr_energy">    -32.92981287 </i>
    <i name="e_wo_entrp">    -32.92981287 </i>
    <i name="e_0_energy">    -32.92981287 </i>
   </energy>
  </scstep>
  <scstep>
   <time name="dav">   21.13   31.17</time>
   <time name="total">   58.93   91.37</time>
   <energy>
    <i name="alphaZ">     20.40567260 </i>
    <i name="ewald">   8311.74645744 </i>
    <i name="hartreedc"> -11690.61324109 </i>
    <i name="XCdc">   -130.67700574 </i>
    <i name="pawpsdc">   2556.49409923 </i>
    <i name="pawaedc">  -2418.02768263 </i>
    <i name="eentropy">      0.00000000 </i>
    <i name="bandstr">   -402.10498784 </i>
    <i name="atom">   3719.84694474 </i>
    <i name="e_fr_energy">    -32.92974329 </i>
    <i name="e_wo_entrp">    -32.92974329 </i>
    <i name="e_0_energy">    -32.92974329 </i>
   </energy>
  </scstep>
  <structure>
   <crystal>
    <varray name="basis" >
     <v>       6.72610050       0.00000004       0.00000000 </v>
     <v>       3.36304976       5.82497358       0.00000000 </v>
     <v>       0.00000000       0.00000000      22.71913926 </v>
    </varray>
    <i name="volume">    890.12128081 </i>
    <varray name="rec_basis" >
     <v>       0.14867456      -0.08583729      -0.00000000 </v>
     <v>      -0.00000000       0.17167460       0.00000000 </v>
     <v>      -0.00000000      -0.00000000       0.04401575 </v>
    </varray>
   </crystal>
   <varray name="positions" >
    <v>       0.33333300       0.33333300       0.50003084 </v>
    <v>       0.66666700       0.66666700       0.50016582 </v>
    <v>       0.00000000       0.00000000       0.44737431 </v>
    <v>       0.00000000       0.00000000       0.55149571 </v>
    <v>       0.61893860       0.00030482       0.57250041 </v>
    <v>       0.00030482       0.38075757       0.57250041 </v>
    <v>       0.38075757       0.61893860       0.57250041 </v>
    <v>       0.37327355       0.99969082       0.42781070 </v>
    <v>       0.99969082       0.62703463       0.42781070 </v>
    <v>       0.62703463       0.37327355       0.42781070 </v>
   </varray>
  </structure>
  <varray name="forces" >
   <v>       0.00000000      -0.00000000       0.02245392 </v>
   <v>       0.00000000      -0.00000000       0.02172253 </v>
   <v>       0.00000000      -0.00000000      -0.32462906 </v>
   <v>       0.00000000      -0.00000000       0.30784127 </v>
   <v>      -0.39101846      -0.00646557      -0.08453978 </v>
   <v>       0.18990986       0.34186469      -0.08453978 </v>
   <v>       0.20110861      -0.33539912      -0.08453978 </v>
   <v>       0.10875287       0.00602326       0.07541022 </v>
   <v>      -0.04916013      -0.09719437       0.07541022 </v>
   <v>      -0.05959274       0.09117111       0.07541022 </v>
  </varray>
  <varray name="stress" >
   <v>       1.67854199      -0.00000123       0.00000000 </v>
   <v>       0.00000096       1.67854179       0.00000000 </v>
   <v>      -0.00000000       0.00000000       0.05507673 </v>
  </varray>
  <energy>
   <i name="e_fr_energy">    -32.92974329 </i>
   <i name="e_wo_entrp">    -32.92974329 </i>
   <i name="e_0_energy">      0.00000000 </i>
  </energy>
  <time name="totalsc"> 1644.30 2482.67</time>
 </calculation>
 <calculation>
  <scstep>
   <time name="dav">   23.90   37.49</time>
   <time name="total">   62.59   99.00</time>
   <energy>
    <i name="alphaZ">     20.42951955 </i>
    <i name="ewald">   8275.95382019 </i>
    <i name="hartreedc"> -11658.49581598 </i>
    <i name="XCdc">   -130.60687204 </i>
    <i name="pawpsdc">   2556.41975528 </i>
    <i name="pawaedc">  -2417.95925463 </i>
    <i name="eentropy">      0.00000000 </i>
    <i name="bandstr">   -398.52904022 </i>
    <i name="atom">   3719.84694474 </i>
    <i name="e_fr_energy">    -32.94094311 </i>
    <i name="e_wo_entrp">    -32.94094311 </i>
    <i name="e_0_energy">    -32.94094311 </i>
   </energy>
  </scstep>
  <scstep>
   <time name="dav">   23.73   35.62</time>
   <time name="total">   63.92   96.79</time>
   <energy>
    <i name="e_fr_energy">    -32.95741086 </i>
    <i name="e_wo_entrp">    -32.95741086 </i>
    <i name="e_0_energy">    -32.95741086 </i>
   </energy>
  </scstep>
  <scstep>
   <time name="dav">   21.89   33.98</time>
   <time name="total">   61.52   95.76</time>
   <energy>
    <i name="e_fr_energy">    -32.94613903 </i>
    <i name="e_wo_entrp">    -32.94613903 </i>
    <i name="e_0_energy">    -32.94613903 </i>
   </energy>
  </scstep>
  <scstep>
   <time name="dav">   25.93   39.89</time>
   <time name="total">   66.84  101.47</time>
   <energy>
    <i name="e_fr_energy">    -32.94602923 </i>
    <i name="e_wo_entrp">    -32.94602923 </i>
    <i name="e_0_energy">    -32.94602923 </i>
   </energy>
  </scstep>
  <scstep>
   <time name="dav">   17.64   26.25</time>
   <time name="total">   60.39   88.76</time>
   <energy>
    <i name="e_fr_energy">    -32.94616962 </i>
    <i name="e_wo_entrp">    -32.94616962 </i>
    <i name="e_0_energy">    -32.94616962 </i>
   </energy>
  </scstep>
  <scstep>
   <time name="dav">   23.46   35.26</time>
   <time name="total">   63.14   96.56</time>
   <energy>
    <i name="e_fr_energy">    -32.94435095 </i>
    <i name="e_wo_entrp">    -32.94435095 </i>
    <i name="e_0_energy">    -32.94435095 </i>
   </energy>
  </scstep>
  <scstep>
   <time name="dav">   20.86   32.29</time>
   <time name="total">   61.11   93.69</time>
   <energy>
    <i name="e_fr_energy">    -32.94455606 </i>
    <i name="e_wo_entrp">    -32.94455606 </i>
    <i name="e_0_energy">    -32.94455606 </i>
   </energy>
  </scstep>
  <scstep>
   <time name="dav">   21.90   32.75</time>
   <time name="total">   62.78   95.21</time>
   <energy>
    <i name="e_fr_energy">    -32.94337265 </i>
    <i name="e_wo_entrp">    -32.94337265 </i>
    <i name="e_0_energy">    -32.94337265 </i>
   </energy>
  </scstep>
  <scstep>
   <time name="dav">   25.09   38.62</time>
   <time name="total">   64.90   99.66</time>
   <energy>
    <i name="e_fr_energy">    -32.94175153 </i>
    <i name="e_wo_entrp">    -32.94175153 </i>
    <i name="e_0_energy">    -32.94175153 </i>
   </energy>
  </scstep>
  <scstep>
   <time name="dav">   25.15   37.10</time>
   <time name="total">   65.80   98.95</time>
   <energy>
    <i name="e_fr_energy">    -32.93516874 </i>
    <i name="e_wo_entrp">    -32.93516874 </i>
    <i name="e_0_energy">    -32.93516874 </i>
   </energy>
  </scstep>
  <scstep>
   <time name="dav">   26.57   40.63</time>
   <time name="total">   66.62  102.36</time>
   <energy>
    <i name="e_fr_energy">    -32.93511462 </i>
    <i name="e_wo_entrp">    -32.93511462 </i>
    <i name="e_0_energy">    -32.93511462 </i>
   </energy>
  </scstep>
  <scstep>
   <time name="dav">   23.28   34.49</time>
   <time name="total">   64.84   96.58</time>
   <energy>
    <i name="e_fr_energy">    -32.93595958 </i>
    <i name="e_wo_entrp">    -32.93595958 </i>
    <i name="e_0_energy">    -32.93595958 </i>
   </energy>
  </scstep>
  <scstep>
   <time name="dav">   20.77   31.73</time>
   <time name="total">   61.30   93.52</time>
   <energy>
    <i name="e_fr_energy">    -32.93558196 </i>
    <i name="e_wo_entrp">    -32.93558196 </i>
    <i name="e_0_energy">    -32.93558196 </i>
   </energy>
  </scstep>
  <scstep>
   <time name="dav">   18.77   28.67</time>
   <time name="total">   60.69   90.84</time>
   <energy>
    <i name="e_fr_energy">    -32.93581288 </i>
    <i name="e_wo_entrp">    -32.93581288 </i>
    <i name="e_0_energy">    -32.93581288 </i>
   </energy>
  </scstep>
  <scstep>
   <time name="dav">   17.84   27.94</time>
   <time name="total">   57.28   89.97</time>
   <energy>
    <i name="e_fr_energy">    -32.93566277 </i>
    <i name="e_wo_entrp">    -32.93566277 </i>
    <i name="e_0_energy">    -32.93566277 </i>
   </energy>
  </scstep>
  <scstep>
   <time name="dav">   18.57   27.21</time>
   <time name="total">   59.19   87.01</time>
   <energy>
    <i name="alphaZ">     20.42951955 </i>
    <i name="ewald">   8275.95382019 </i>
    <i name="hartreedc"> -11655.11706340 </i>
    <i name="XCdc">   -130.68573064 </i>
    <i name="pawpsdc">   2558.87528687 </i>
    <i name="pawaedc">  -2420.41784080 </i>
    <i name="eentropy">      0.00000000 </i>
    <i name="bandstr">   -401.82060338 </i>
    <i name="atom">   3719.84694474 </i>
    <i name="e_fr_energy">    -32.93566687 </i>
    <i name="e_wo_entrp">    -32.93566687 </i>
    <i name="e_0_energy">    -32.93566687 </i>
   </energy>
  </scstep>
  <structure>
   <crystal>
    <varray name="basis" >
     <v>       6.73058714       0.00000004       0.00000000 </v>
     <v>       3.36529307       5.82885913       0.00000000 </v>
     <v>       0.00000000       0.00000000      22.66237577 </v>
    </varray>
    <i name="volume">    889.08226110 </i>
    <varray name="rec_basis" >
     <v>       0.14857545      -0.08578007      -0.00000000 </v>
     <v>      -0.00000000       0.17156016       0.00000000 </v>
     <v>      -0.00000000      -0.00000000       0.04412600 </v>
    </varray>
   </crystal>
   <varray name="positions" >
    <v>       0.33333300       0.33333300       0.50005521 </v>
    <v>       0.66666700       0.66666700       0.50018880 </v>
    <v>       0.00000000       0.00000000       0.44709526 </v>
    <v>       0.00000000       0.00000000       0.55156482 </v>
    <v>       0.61700212       0.00027637       0.57238085 </v>
    <v>       0.00027637       0.38272251       0.57238085 </v>
    <v>       0.38272251       0.61700212       0.57238085 </v>
    <v>       0.37358446       0.99971725       0.42798445 </v>
    <v>       0.99971725       0.62669729       0.42798445 </v>
    <v>       0.62669729       0.37358446       0.42798445 </v>
   </varray>
  </structure>
  <varray name="forces" >
   <v>      -0.00000000       0.00000000       0.01804986 </v>
   <v>      -0.00000000       0.00000000       0.01620666 </v>
   <v>      -0.00000000       0.00000000      -0.39562938 </v>
   <v>      -0.00000000       0.00000000       0.46173073 </v>
   <v>      -0.30538207      -0.00246455      -0.09947683 </v>
   <v>       0.15055665       0.26570089      -0.09947683 </v>
   <v>       0.15482542      -0.26323634      -0.09947683 </v>
   <v>       0.10896103       0.00598472       0.06602420 </v>
   <v>      -0.04929759      -0.09735537       0.06602420 </v>
   <v>      -0.05966344       0.09137066       0.06602420 </v>
  </varray>
  <varray name="stress" >
   <v>       1.42093111      -0.00000086       0.00000000 </v>
   <v>       0.00000064       1.42093095      -0.00000000 </v>
   <v>       0.00000000      -0.00000000       0.11774456 </v>
  </varray>
  <energy>
   <i name="e_fr_energy">    -32.93566687 </i>
   <i name="e_wo_entrp">    -32.93566687 </i>
   <i name="e_0_energy">      0.00000000 </i>
  </energy>
  <time name="totalsc"> 1105.38 1679.46</time>
 </calculation>
 <calculation>
  <scstep>
   <time name="dav">   20.37   32.53</time>
   <time name="total">   60.90   95.33</time>
   <energy>
    <i name="alphaZ">     20.47773771 </i>
    <i name="ewald">   8204.61624598 </i>
    <i name="hartreedc"> -11591.23631643 </i>
    <i name="XCdc">   -130.54874236 </i>
    <i name="pawpsdc">   2558.94045153 </i>
    <i name="pawaedc">  -2420.47536931 </i>
    <i name="eentropy">      0.00000000 </i>
    <i name="bandstr">   -394.58787019 </i>
    <i name="atom">   3719.84694474 </i>
    <i name="e_fr_energy">    -32.96691833 </i>
    <i name="e_wo_entrp">    -32.96691833 </i>
    <i name="e_0_energy">    -32.96691833 </i>
   </energy>
  </scstep>
  <scstep>
   <time name="dav">   19.97   31.92</time>
   <time name="total">   61.53   94.00</time>
   <energy>
    <i name="e_fr_energy">    -32.99980402 </i>
    <i name="e_wo_entrp">    -32.99980402 </i>
    <i name="e_0_energy">    -32.99980402 </i>
   </energy>
  </scstep>
  <scstep>
   <time name="dav">   21.76   33.05</time>
   <time name="total">   61.28   94.75</time>
   <energy>
    <i name="e_fr_energy">    -32.96182426 </i>
    <i name="e_wo_entrp">    -32.96182426 </i>
    <i name="e_0_energy">    -32.96182426 </i>
   </energy>
  </scstep>
  <scstep>
   <time name="dav">   24.63   37.12</time>
   <time name="total">   65.86   98.78</time>
   <energy>
    <i name="e_fr_energy">    -32.95869855 </i>
    <i name="e_wo_entrp">    -32.95869855 </i>
    <i name="e_0_energy">    -32.95869855 </i>
   </energy>
  </scstep>
  <scstep>
   <time name="dav">   21.98   33.69</time>
   <time name="total">   62.74   95.30</time>
   <energy>
    <i name="e_fr_energy">    -32.95814615 </i>
    <i name="e_wo_entrp">    -32.95814615 </i>
    <i name="e_0_energy">    -32.95814615 </i>
   </energy>
  </scstep>
  <scstep>
   <time name="dav">   22.26   35.03</time>
   <time name="total">   63.57   96.69</time>
   <energy>
    <i name="e_fr_energy">    -32.95759876 </i>
    <i name="e_wo_entrp">    -32.95759876 </i>
    <i name="e_0_energy">    -32.95759876 </i>
   </energy>
  </scstep>
  <scstep>
   <time name="dav">   17.04   25.99</time>
   <time name="total">   55.74   85.52</time>
   <energy>
    <i name="alphaZ">     20.47773771 </i>
    <i name="ewald">   8204.61624598 </i>
    <i name="hartreedc"> -11586.26573859 </i>
    <i name="XCdc">   -130.64659270 </i>
    <i name="pawpsdc">   2562.05511641 </i>
    <i name="pawaedc">  -2423.67615237 </i>
    <i name="eentropy">      0.00000000 </i>
    <i name="bandstr">   -399.36522354 </i>
    <i name="atom">   3719.84694474 </i>
    <i name="e_fr_energy">    -32.95766236 </i>
    <i name="e_wo_entrp">    -32.95766236 </i>
    <i name="e_0_energy">    -32.95766236 </i>
   </energy>
  </scstep>
  <structure>
   <crystal>
    <varray name="basis" >
     <v>       6.73956042       0.00000005       0.00000000 </v>
     <v>       3.36977970       5.83663022       0.00000000 </v>
     <v>       0.00000000       0.00000000      22.54884879 </v>
    </varray>
    <i name="volume">    886.98877246 </i>
    <varray name="rec_basis" >
     <v>       0.14837763      -0.08566586      -0.00000000 </v>
     <v>      -0.00000000       0.17133174       0.00000000 </v>
     <v>      -0.00000000      -0.00000000       0.04434816 </v>
    </varray>
   </crystal>
   <varray name="positions" >
    <v>       0.33333300       0.33333300       0.50010407 </v>
    <v>       0.66666700       0.66666700       0.50023486 </v>
    <v>       0.00000000       0.00000000       0.44653575 </v>
    <v>       0.00000000       0.00000000       0.55170339 </v>
    <v>       0.61313175       0.00021949       0.57214115 </v>
    <v>       0.00021949       0.38664976       0.57214115 </v>
    <v>       0.38664976       0.61313175       0.57214115 </v>
    <v>       0.37420585       0.99977009       0.42833283 </v>
    <v>       0.99977009       0.62602306       0.42833283 </v>
    <v>       0.62602306       0.37420585       0.42833283 </v>
   </varray>
  </structure>
  <varray name="forces" >
   <v>       0.00000000       0.00000000       0.01093783 </v>
   <v>       0.00000000       0.00000000       0.00554705 </v>
   <v>       0.00000000      -0.00000000      -0.35455704 </v>
   <v>       0.00000000      -0.00000000       0.56120624 </v>
   <v>      -0.12327704      -0.00449331      -0.06740512 </v>
   <v>       0.05774719       0.10900770      -0.06740512 </v>
   <v>       0.06552985      -0.10451439      -0.06740512 </v>
   <v>       0.08736806       0.00244107      -0.00697291 </v>
   <v>      -0.04157000      -0.07688349      -0.00697291 </v>
   <v>      -0.04579807       0.07444242      -0.00697291 </v>
  </varray>
  <varray name="stress" >
   <v>       0.97311510       0.00000006       0.00000000 </v>
   <v>      -0.00000021       0.97311498       0.00000000 </v>
   <v>       0.00000000       0.00000000       0.67005409 </v>
  </varray>
  <energy>
   <i name="e_fr_energy">    -32.95766236 </i>
   <i name="e_wo_entrp">    -32.95766236 </i>
   <i name="e_0_energy">      0.00000000 </i>
  </energy>
  <time name="totalsc">  533.41  812.98</time>
 </calculation>
 <calculation>
  <scstep>
   <time name="dav">   22.38   32.72</time>
   <time name="total">   63.33   94.76</time>
   <energy>
    <i name="alphaZ">     20.57630433 </i>
    <i name="ewald">   8062.88895394 </i>
    <i name="hartreedc"> -11459.19899967 </i>
    <i name="XCdc">   -130.36035510 </i>
    <i name="pawpsdc">   2562.32018748 </i>
    <i name="pawaedc">  -2423.94914880 </i>
    <i name="eentropy">      0.00000000 </i>
    <i name="bandstr">   -385.10044978 </i>
    <i name="atom">   3719.84694474 </i>
    <i name="e_fr_energy">    -32.97656286 </i>
    <i name="e_wo_entrp">    -32.97656286 </i>
    <i name="e_0_energy">    -32.97656286 </i>
   </energy>
  </scstep>
  <scstep>
   <time name="dav">   21.94   32.49</time>
   <time name="total">   63.37   94.71</time>
   <energy>
    <i name="e_fr_energy">    -33.13216219 </i>
    <i name="e_wo_entrp">    -33.13216219 </i>
    <i name="e_0_energy">    -33.13216219 </i>
   </energy>
  </scstep>
  <scstep>
   <time name="dav">   22.02   33.75</time>
   <time name="total">   62.32   95.32</time>
   <energy>
    <i name="e_fr_energy">    -32.95042166 </i>
    <i name="e_wo_entrp">    -32.95042166 </i>
    <i name="e_0_energy">    -32.95042166 </i>
   </energy>
  </scstep>
  <scstep>
   <time name="dav">   24.90   36.78</time>
   <time name="total">   64.60   98.11</time>
   <energy>
    <i name="e_fr_energy">    -32.95055202 </i>
    <i name="e_wo_entrp">    -32.95055202 </i>
    <i name="e_0_energy">    -32.95055202 </i>
   </energy>
  </scstep>
  <scstep>
   <time name="dav">   22.11   32.55</time>
   <time name="total">   63.66   94.68</time>
   <energy>
    <i name="e_fr_energy">    -32.93411262 </i>
    <i name="e_wo_entrp">    -32.93411262 </i>
    <i name="e_0_energy">    -32.93411262 </i>
   </energy>
  </scstep>
  <scstep>
   <time name="dav">   21.48   32.70</time>
   <time name="total">   61.07   94.33</time>
   <energy>
    <i name="e_fr_energy">    -32.93396662 </i>
    <i name="e_wo_entrp">    -32.93396662 </i>
    <i name="e_0_energy">    -32.93396662 </i>
   </energy>
  </scstep>
  <scstep>
   <time name="dav">   24.96   36.80</time>
   <time name="total">   64.25   98.56</time>
   <energy>
    <i name="e_fr_energy">    -32.93464368 </i>
    <i name="e_wo_entrp">    -32.93464368 </i>
    <i name="e_0_energy">    -32.93464368 </i>
   </energy>
  </scstep>
  <scstep>
   <time name="dav">   20.81   32.39</time>
   <time name="total">   61.50   94.21</time>
   <energy>
    <i name="e_fr_energy">    -32.93499234 </i>
    <i name="e_wo_entrp">    -32.93499234 </i>
    <i name="e_0_energy">    -32.93499234 </i>
   </energy>
  </scstep>
  <scstep>
   <time name="dav">   19.74   32.03</time>
   <time name="total">   61.37   94.66</time>
   <energy>
    <i name="e_fr_energy">    -32.93605587 </i>
    <i name="e_wo_entrp">    -32.93605587 </i>
    <i name="e_0_energy">    -32.93605587 </i>
   </energy>
  </scstep>
  <scstep>
   <time name="dav">   21.58   33.40</time>
   <time name="total">   61.81   95.88</time>
   <energy>
    <i name="e_fr_energy">    -32.93683699 </i>
    <i name="e_wo_entrp">    -32.93683699 </i>
    <i name="e_0_energy">    -32.93683699 </i>
   </energy>
  </scstep>
  <scstep>
   <time name="dav">   22.95   33.48</time>
   <time name="total">   64.41   95.73</time>
   <energy>
    <i name="e_fr_energy">    -32.93724581 </i>
    <i name="e_wo_entrp">    -32.93724581 </i>
    <i name="e_0_energy">    -32.93724581 </i>
   </energy>
  </scstep>
  <scstep>
   <time name="dav">   22.58   34.36</time>
   <time name="total">   61.38   93.91</time>
   <energy>
    <i name="alphaZ">     20.57630433 </i>
    <i name="ewald">   8062.88895394 </i>
    <i name="hartreedc"> -11443.33889071 </i>
    <i name="XCdc">   -130.60858197 </i>
    <i name="pawpsdc">   2570.36907693 </i>
    <i name="pawaedc">  -2432.19457506 </i>
    <i name="eentropy">      0.00000000 </i>
    <i name="bandstr">   -400.47650269 </i>
    <i name="atom">   3719.84694474 </i>
    <i name="e_fr_energy">    -32.93727049 </i>
    <i name="e_wo_entrp">    -32.93727049 </i>
    <i name="e_0_energy">    -32.93727049 </i>
   </energy>
  </scstep>
  <structure>
   <crystal>
    <varray name="basis" >
     <v>       6.75750697       0.00000007       0.00000000 </v>
     <v>       3.37875296       5.85217240       0.00000000 </v>
     <v>       0.00000000       0.00000000      22.32179483 </v>
    </varray>
    <i name="volume">    882.73983199 </i>
    <varray name="rec_basis" >
     <v>       0.14798357      -0.08543835      -0.00000000 </v>
     <v>      -0.00000000       0.17087672       0.00000000 </v>
     <v>      -0.00000000      -0.00000000       0.04479926 </v>
    </varray>
   </crystal>
   <varray name="positions" >
    <v>       0.33333300       0.33333300       0.50020227 </v>
    <v>       0.66666700       0.66666700       0.50032746 </v>
    <v>       0.00000000       0.00000000       0.44541110 </v>
    <v>       0.00000000       0.00000000       0.55198191 </v>
    <v>       0.60540130       0.00010589       0.57165932 </v>
    <v>       0.00010589       0.39449381       0.57165932 </v>
    <v>       0.39449381       0.60540130       0.57165932 </v>
    <v>       0.37544699       0.99987562       0.42903310 </v>
    <v>       0.99987562       0.62467639       0.42903310 </v>
    <v>       0.62467639       0.37544699       0.42903310 </v>
   </varray>
  </structure>
  <varray name="forces" >
   <v>      -0.00000000      -0.00000000      -0.01401183 </v>
   <v>      -0.00000000      -0.00000000      -0.02493280 </v>
   <v>      -0.00000000      -0.00000000      -0.27472802 </v>
   <v>      -0.00000000      -0.00000000       0.74397562 </v>
   <v>       0.14191063       0.00464912       0.00778016 </v>
   <v>      -0.06692905      -0.12522277       0.00778016 </v>
   <v>      -0.07498158       0.12057365       0.00778016 </v>
   <v>       0.05597320       0.00480030      -0.15121448 </v>
   <v>      -0.02382942      -0.05087436      -0.15121448 </v>
   <v>      -0.03214379       0.04607406      -0.15121448 </v>
  </varray>
  <varray name="stress" >
   <v>       1.30626281      -0.00000044      -0.00000000 </v>
   <v>       0.00000023       1.30626265       0.00000000 </v>
   <v>       0.00000000       0.00000000       3.12666474 </v>
  </varray>
  <energy>
   <i name="e_fr_energy">    -32.93727049 </i>
   <i name="e_wo_entrp">    -32.93727049 </i>
   <i name="e_0_energy">      0.00000000 </i>
  </energy>
  <time name="totalsc">  854.47 1298.36</time>
 </calculation>
 <calculation>
  <scstep>
   <time name="dav">   22.41   33.60</time>
   <time name="total">   62.36   95.19</time>
   <energy>
    <i name="alphaZ">     20.53067954 </i>
    <i name="ewald">   8127.72211845 </i>
    <i name="hartreedc"> -11500.51053572 </i>
    <i name="XCdc">   -130.74497570 </i>
    <i name="pawpsdc">   2570.37293615 </i>
    <i name="pawaedc">  -2432.20730308 </i>
    <i name="eentropy">      0.00000000 </i>
    <i name="bandstr">   -407.97174333 </i>
    <i name="atom">   3719.84694474 </i>
    <i name="e_fr_energy">    -32.96187896 </i>
    <i name="e_wo_entrp">    -32.96187896 </i>
    <i name="e_0_energy">    -32.96187896 </i>
   </energy>
  </scstep>
  <scstep>
   <time name="dav">   24.39   36.81</time>
   <time name="total">   65.04   97.74</time>
   <energy>
    <i name="e_fr_energy">    -32.99401948 </i>
    <i name="e_wo_entrp">    -32.99401948 </i>
    <i name="e_0_energy">    -32.99401948 </i>
   </energy>
  </scstep>
  <scstep>
   <time name="dav">   22.78   32.59</time>
   <time name="total">   65.42   94.59</time>
   <energy>
    <i name="e_fr_energy">    -32.95879277 </i>
    <i name="e_wo_entrp">    -32.95879277 </i>
    <i name="e_0_energy">    -32.95879277 </i>
   </energy>
  </scstep>
  <scstep>
   <time name="dav">   24.46   36.70</time>
   <time name="total">   65.52   98.42</time>
   <energy>
    <i name="e_fr_energy">    -32.96654814 </i>
    <i name="e_wo_entrp">    -32.96654814 </i>
    <i name="e_0_energy">    -32.96654814 </i>
   </energy>
  </scstep>
  <scstep>
   <time name="dav">   22.99   34.29</time>
   <time name="total">   65.21   96.79</time>
   <energy>
    <i name="e_fr_energy">    -32.95571983 </i>
    <i name="e_wo_entrp">    -32.95571983 </i>
    <i name="e_0_energy">    -32.95571983 </i>
   </energy>
  </scstep>
  <scstep>
   <time name="dav">   22.27   35.61</time>
   <time name="total">   63.41   98.00</time>
   <energy>
    <i name="e_fr_energy">    -32.95599012 </i>
    <i name="e_wo_entrp">    -32.95599012 </i>
    <i name="e_0_energy">    -32.95599012 </i>
   </energy>
  </scstep>
  <scstep>
   <time name="dav">   19.62   29.07</time>
   <time name="total">   60.25   91.22</time>
   <energy>
    <i name="e_fr_energy">    -32.95584552 </i>
    <i name="e_wo_entrp">    -32.95584552 </i>
    <i name="e_0_energy">    -32.95584552 </i>
   </energy>
  </scstep>
  <scstep>
   <time name="dav">   20.64   31.29</time>
   <time name="total">   61.54   93.39</time>
   <energy>
    <i name="e_fr_energy">    -32.95596158 </i>
    <i name="e_wo_entrp">    -32.95596158 </i>
[...]
        <r>  0.0001  0.0040  0.0023  0.0019  0.0336  0.0758  0.0236  0.0031  0.0134 </r>
        <r>  0.0083  0.0037  0.0388  0.0017  0.0000  0.0000  0.0000  0.0000  0.0000 </r>
        <r>  0.0073  0.0023  0.0631  0.0016  0.0002  0.0001  0.0025  0.0000  0.0001 </r>
        <r>  0.0027  0.0072  0.0087  0.0176  0.0000  0.0000  0.0000  0.0004  0.0002 </r>
        <r>  0.0027  0.0008  0.0120  0.0003  0.0001  0.0001  0.0003  0.0000  0.0001 </r>
        <r>  0.0021  0.0157  0.0073  0.0050  0.0002  0.0003  0.0000  0.0000  0.0001 </r>
        <r>  0.0025  0.0075  0.0209  0.0100  0.0000  0.0000  0.0002  0.0001  0.0001 </r>
        <r>  0.0025  0.0052  0.0253  0.0035  0.0006  0.0002  0.0004  0.0001  0.0002 </r>
        <r>  0.0026  0.0050  0.0272  0.0066  0.0001  0.0001  0.0002  0.0000  0.0001 </r>
       </set>
       <set comment="band 30">
        <r>  0.0029  0.0013  0.0075  0.0005  0.0060  0.0275  0.0282  0.0224  0.0195 </r>
        <r>  0.0028  0.0003  0.0075  0.0016  0.0105  0.0022  0.0287  0.0475  0.0137 </r>
        <r>  0.0060  0.0053  0.0177  0.0018  0.0000  0.0000  0.0000  0.0000  0.0000 </r>
        <r>  0.0050  0.0175  0.0281  0.0057  0.0001  0.0002  0.0011  0.0001  0.0000 </r>
        <r>  0.0012  0.0197  0.0010  0.0016  0.0001  0.0002  0.0002  0.0001  0.0000 </r>
        <r>  0.0082  0.0347  0.0668  0.0117  0.0000  0.0004  0.0005  0.0001  0.0000 </r>
        <r>  0.0012  0.0063  0.0010  0.0142  0.0001  0.0001  0.0003  0.0001  0.0001 </r>
        <r>  0.0003  0.0146  0.0048  0.0028  0.0001  0.0000  0.0000  0.0002  0.0000 </r>
        <r>  0.0038  0.0088  0.0741  0.0030  0.0000  0.0002  0.0006  0.0001  0.0000 </r>
        <r>  0.0003  0.0113  0.0047  0.0060  0.0001  0.0002  0.0000  0.0000  0.0001 </r>
       </set>
       <set comment="band 31">
        <r>  0.0003  0.0018  0.0124  0.0007  0.0103  0.0136  0.0067  0.0063  0.0061 </r>
        <r>  0.0003  0.0019  0.0123  0.0006  0.0063  0.0034  0.0073  0.0167  0.0100 </r>
        <r>  0.0000  0.0012  0.0000  0.0035  0.0000  0.0000  0.0000  0.0000  0.0000 </r>
        <r>  0.0000  0.0084  0.0000  0.0257  0.0001  0.0002  0.0000  0.0005  0.0002 </r>
        <r>  0.0023  0.0143  0.0549  0.0321  0.0000  0.0001  0.0010  0.0000  0.0004 </r>
        <r>  0.0000  0.0088  0.0000  0.0259  0.0000  0.0001  0.0000  0.0002  0.0001 </r>
        <r>  0.0022  0.0399  0.0551  0.0068  0.0003  0.0000  0.0010  0.0001  0.0000 </r>
        <r>  0.0007  0.0003  0.0628  0.0014  0.0000  0.0000  0.0005  0.0000  0.0001 </r>
        <r>  0.0000  0.0113  0.0000  0.0338  0.0000  0.0000  0.0000  0.0000  0.0001 </r>
        <r>  0.0007  0.0017  0.0634  0.0000  0.0000  0.0000  0.0005  0.0000  0.0000 </r>
       </set>
       <set comment="band 32">
        <r>  0.0007  0.0003  0.0011  0.0009  0.0860  0.0026  0.0038  0.0165  0.0214 </r>
        <r>  0.0006  0.0004  0.0010  0.0009  0.0442  0.0143  0.0038  0.0054  0.0621 </r>
        <r>  0.0010  0.0002  0.0027  0.0001  0.0000  0.0000  0.0000  0.0000  0.0000 </r>
        <r>  0.0572  0.0009  0.0119  0.0003  0.0002  0.0000  0.0027  0.0000  0.0001 </r>
        <r>  0.0025  0.0057  0.0124  0.0873  0.0002  0.0001  0.0000  0.0000  0.0002 </r>
        <r>  0.0027  0.0416  0.0066  0.0137  0.0005  0.0000  0.0005  0.0000  0.0002 </r>
        <r>  0.0025  0.0474  0.0124  0.0456  0.0003  0.0000  0.0000  0.0001  0.0001 </r>
        <r>  0.0003  0.0007  0.0046  0.0000  0.0000  0.0000  0.0000  0.0001  0.0000 </r>
        <r>  0.0012  0.0031  0.0247  0.0011  0.0000  0.0001  0.0000  0.0000  0.0000 </r>
        <r>  0.0003  0.0001  0.0046  0.0005  0.0000  0.0001  0.0000  0.0000  0.0000 </r>
       </set>
       <set comment="band 33">
        <r>  0.0001  0.0005  0.0003  0.0001  0.0119  0.0084  0.0067  0.0781  0.0502 </r>
        <r>  0.0001  0.0000  0.0002  0.0004  0.0647  0.0616  0.0060  0.0352  0.0007 </r>
        <r>  0.0047  0.0006  0.0002  0.0002  0.0000  0.0000  0.0000  0.0000  0.0000 </r>
        <r>  0.0044  0.0055  0.0072  0.0025  0.0001  0.0002  0.0001  0.0001  0.0000 </r>
        <r>  0.0022  0.0113  0.0078  0.0011  0.0001  0.0010  0.0000  0.0000  0.0000 </r>
        <r>  0.0141  0.0081  0.0766  0.0024  0.0005  0.0005  0.0001  0.0002  0.0002 </r>
        <r>  0.0015  0.0038  0.0060  0.0101  0.0001  0.0004  0.0000  0.0007  0.0000 </r>
        <r>  0.0038  0.0049  0.0347  0.0094  0.0001  0.0001  0.0000  0.0006  0.0003 </r>
        <r>  0.0048  0.0069  0.0366  0.0029  0.0002  0.0002  0.0000  0.0001  0.0000 </r>
        <r>  0.0032  0.0111  0.0304  0.0025  0.0002  0.0003  0.0000  0.0004  0.0001 </r>
       </set>
       <set comment="band 34">
        <r>  0.0003  0.0002  0.0004  0.0007  0.0156  0.0625  0.0054  0.0732  0.0170 </r>
        <r>  0.0003  0.0006  0.0004  0.0004  0.0153  0.0633  0.0059  0.0616  0.0139 </r>
        <r>  0.0000  0.0014  0.0000  0.0041  0.0000  0.0000  0.0000  0.0000  0.0000 </r>
        <r>  0.0000  0.0066  0.0000  0.0176  0.0002  0.0001  0.0000  0.0001  0.0007 </r>
        <r>  0.0108  0.0212  0.0153  0.0088  0.0001  0.0003  0.0001  0.0003  0.0001 </r>
        <r>  0.0000  0.0050  0.0001  0.0164  0.0001  0.0005  0.0000  0.0015  0.0003 </r>
        <r>  0.0115  0.0039  0.0169  0.0246  0.0000  0.0001  0.0001  0.0004  0.0002 </r>
        <r>  0.0042  0.0210  0.0217  0.0205  0.0004  0.0002  0.0000  0.0000  0.0001 </r>
        <r>  0.0000  0.0056  0.0001  0.0151  0.0002  0.0002  0.0000  0.0005  0.0006 </r>
        <r>  0.0048  0.0086  0.0262  0.0336  0.0000  0.0000  0.0000  0.0002  0.0004 </r>
       </set>
       <set comment="band 35">
        <r>  0.0000  0.0005  0.0003  0.0008  0.0244  0.0701  0.0007  0.0006  0.0024 </r>
        <r>  0.0000  0.0008  0.0003  0.0005  0.0023  0.0146  0.0007  0.0581  0.0250 </r>
        <r>  0.0132  0.0014  0.0011  0.0004  0.0000  0.0000  0.0000  0.0000  0.0000 </r>
        <r>  0.0216  0.0014  0.0182  0.0005  0.0000  0.0001  0.0000  0.0000  0.0000 </r>
        <r>  0.0005  0.0025  0.0543  0.0140  0.0001  0.0002  0.0003  0.0003  0.0005 </r>
        <r>  0.0031  0.0136  0.0138  0.0048  0.0002  0.0000  0.0001  0.0000  0.0001 </r>
        <r>  0.0005  0.0065  0.0544  0.0101  0.0006  0.0004  0.0003  0.0001  0.0000 </r>
        <r>  0.0039  0.0095  0.0338  0.0008  0.0001  0.0002  0.0001  0.0007  0.0004 </r>
        <r>  0.0066  0.0342  0.0340  0.0113  0.0005  0.0006  0.0000  0.0002  0.0002 </r>
        <r>  0.0039  0.0053  0.0335  0.0064  0.0004  0.0008  0.0001  0.0001  0.0000 </r>
       </set>
       <set comment="band 36">
        <r>  0.0012  0.0007  0.0007  0.0003  0.0064  0.0600  0.0001  0.0567  0.0106 </r>
        <r>  0.0012  0.0006  0.0007  0.0004  0.0084  0.0515  0.0001  0.0622  0.0083 </r>
        <r>  0.0000  0.0006  0.0000  0.0018  0.0000  0.0000  0.0000  0.0000  0.0000 </r>
        <r>  0.0000  0.0035  0.0000  0.0108  0.0002  0.0000  0.0000  0.0001  0.0007 </r>
        <r>  0.0025  0.0584  0.0017  0.0033  0.0009  0.0004  0.0001  0.0000  0.0010 </r>
        <r>  0.0000  0.0143  0.0000  0.0414  0.0008  0.0003  0.0000  0.0008  0.0025 </r>
        <r>  0.0025  0.0103  0.0017  0.0510  0.0002  0.0000  0.0001  0.0004  0.0017 </r>
        <r>  0.0018  0.0554  0.0031  0.0008  0.0005  0.0002  0.0000  0.0001  0.0002 </r>
        <r>  0.0000  0.0118  0.0000  0.0362  0.0003  0.0002  0.0000  0.0006  0.0009 </r>
        <r>  0.0018  0.0102  0.0030  0.0446  0.0000  0.0000  0.0000  0.0002  0.0006 </r>
       </set>
       <set comment="band 37">
        <r>  0.0000  0.0000  0.0009  0.0004  0.0091  0.0075  0.0001  0.0065  0.0057 </r>
        <r>  0.0000  0.0003  0.0009  0.0001  0.0073  0.0096  0.0001  0.0048  0.0075 </r>
        <r>  0.0964  0.0032  0.0359  0.0010  0.0000  0.0000  0.0000  0.0000  0.0000 </r>
        <r>  0.0012  0.0019  0.0524  0.0006  0.0002  0.0001  0.0002  0.0000  0.0001 </r>
        <r>  0.0009  0.0004  0.0142  0.0033  0.0002  0.0000  0.0000  0.0005  0.0001 </r>
        <r>  0.0001  0.0003  0.0092  0.0001  0.0005  0.0004  0.0002  0.0001  0.0002 </r>
        <r>  0.0009  0.0020  0.0142  0.0018  0.0002  0.0005  0.0000  0.0001  0.0001 </r>
        <r>  0.0048  0.0026  0.0059  0.0521  0.0002  0.0001  0.0016  0.0009  0.0068 </r>
        <r>  0.0043  0.0374  0.0073  0.0123  0.0054  0.0006  0.0009  0.0002  0.0018 </r>
        <r>  0.0047  0.0296  0.0059  0.0253  0.0062  0.0008  0.0015  0.0001  0.0009 </r>
       </set>
       <set comment="band 38">
        <r>  0.0192  0.0020  0.0014  0.0016  0.0105  0.0015  0.0024  0.0081  0.0020 </r>
        <r>  0.0190  0.0031  0.0013  0.0004  0.0041  0.0071  0.0024  0.0025  0.0085 </r>
        <r>  0.0000  0.0026  0.0000  0.0077  0.0000  0.0000  0.0000  0.0000  0.0000 </r>
        <r>  0.0000  0.0289  0.0000  0.0885  0.0018  0.0002  0.0000  0.0008  0.0053 </r>
        <r>  0.0084  0.0292  0.0036  0.0500  0.0029  0.0003  0.0017  0.0002  0.0072 </r>
        <r>  0.0000  0.0024  0.0000  0.0069  0.0016  0.0003  0.0000  0.0007  0.0048 </r>
        <r>  0.0084  0.0756  0.0035  0.0033  0.0053  0.0003  0.0017  0.0002  0.0048 </r>
        <r>  0.0007  0.0040  0.0011  0.0084  0.0008  0.0004  0.0010  0.0008  0.0004 </r>
        <r>  0.0000  0.0006  0.0000  0.0016  0.0002  0.0001  0.0000  0.0003  0.0007 </r>
        <r>  0.0007  0.0099  0.0011  0.0024  0.0004  0.0007  0.0011  0.0005  0.0007 </r>
       </set>
       <set comment="band 39">
        <r>  0.0328  0.0002  0.0008  0.0007  0.0033  0.0027  0.0015  0.0018  0.0052 </r>
        <r>  0.0329  0.0003  0.0008  0.0005  0.0047  0.0015  0.0015  0.0029  0.0038 </r>
        <r>  0.0012  0.0311  0.0017  0.0103  0.0000  0.0000  0.0000  0.0000  0.0000 </r>
        <r>  0.0007  0.0780  0.0024  0.0256  0.0046  0.0015  0.0001  0.0005  0.0015 </r>
        <r>  0.0012  0.0004  0.0011  0.0037  0.0034  0.0024  0.0002  0.0003  0.0027 </r>
        <r>  0.0100  0.0543  0.0038  0.0181  0.0048  0.0008  0.0016  0.0003  0.0016 </r>
        <r>  0.0012  0.0040  0.0010  0.0003  0.0036  0.0008  0.0002  0.0019  0.0024 </r>
        <r>  0.0018  0.0000  0.0006  0.0069  0.0042  0.0011  0.0005  0.0007  0.0006 </r>
        <r>  0.0051  0.0200  0.0002  0.0066  0.0025  0.0020  0.0009  0.0007  0.0008 </r>
        <r>  0.0018  0.0048  0.0006  0.0022  0.0023  0.0008  0.0004  0.0010  0.0025 </r>
       </set>
       <set comment="band 40">
        <r>  0.0096  0.0010  0.0032  0.0010  0.0004  0.0003  0.0027  0.0003  0.0010 </r>
        <r>  0.0100  0.0003  0.0032  0.0017  0.0008  0.0002  0.0028  0.0005  0.0007 </r>
        <r>  0.0018  0.0435  0.0016  0.0143  0.0000  0.0000  0.0000  0.0000  0.0000 </r>
        <r>  0.0001  0.0852  0.0019  0.0280  0.0022  0.0012  0.0005  0.0004  0.0007 </r>
        <r>  0.0004  0.0034  0.0023  0.0028  0.0018  0.0020  0.0006  0.0006  0.0022 </r>
        <r>  0.0054  0.0320  0.0011  0.0107  0.0027  0.0026  0.0013  0.0008  0.0009 </r>
        <r>  0.0004  0.0004  0.0023  0.0059  0.0030  0.0008  0.0006  0.0018  0.0009 </r>
        <r>  0.0024  0.0001  0.0015  0.0015  0.0080  0.0016  0.0002  0.0006  0.0016 </r>
        <r>  0.0240  0.0158  0.0076  0.0052  0.0018  0.0017  0.0002  0.0006  0.0006 </r>
        <r>  0.0024  0.0010  0.0016  0.0007  0.0043  0.0008  0.0002  0.0014  0.0053 </r>
       </set>
       <set comment="band 41">
        <r>  0.0169  0.0029  0.0024  0.0007  0.0001  0.0047  0.0013  0.0012  0.0029 </r>
        <r>  0.0171  0.0009  0.0024  0.0027  0.0024  0.0032  0.0013  0.0028  0.0006 </r>
        <r>  0.0000  0.0204  0.0000  0.0622  0.0000  0.0000  0.0000  0.0000  0.0000 </r>
        <r>  0.0000  0.0094  0.0000  0.0288  0.0001  0.0006  0.0000  0.0020  0.0003 </r>
        <r>  0.0006  0.0078  0.0006  0.0056  0.0001  0.0012  0.0008  0.0029  0.0014 </r>
        <r>  0.0000  0.0015  0.0000  0.0044  0.0002  0.0009  0.0000  0.0029  0.0007 </r>
        <r>  0.0006  0.0118  0.0006  0.0015  0.0008  0.0025  0.0008  0.0015  0.0007 </r>
        <r>  0.0130  0.0142  0.0012  0.0340  0.0032  0.0005  0.0003  0.0030  0.0037 </r>
        <r>  0.0000  0.0019  0.0000  0.0056  0.0035  0.0004  0.0000  0.0010  0.0106 </r>
        <r>  0.0130  0.0479  0.0012  0.0001  0.0022  0.0029  0.0003  0.0006  0.0047 </r>
       </set>
       <set comment="band 42">
        <r>  0.0012  0.0006  0.0000  0.0014  0.0027  0.0024  0.0001  0.0027  0.0019 </r>
        <r>  0.0012  0.0019  0.0000  0.0002  0.0011  0.0034  0.0001  0.0016  0.0035 </r>
        <r>  0.0076  0.0003  0.0844  0.0001  0.0000  0.0000  0.0000  0.0000  0.0000 </r>
        <r>  0.0272  0.0031  0.0577  0.0010  0.0000  0.0002  0.0093  0.0001  0.0000 </r>
        <r>  0.0012  0.0003  0.0038  0.0000  0.0000  0.0004  0.0025  0.0009  0.0002 </r>
        <r>  0.0003  0.0011  0.0085  0.0004  0.0006  0.0001  0.0021  0.0000  0.0002 </r>
        <r>  0.0012  0.0001  0.0038  0.0003  0.0001  0.0012  0.0025  0.0001  0.0001 </r>
        <r>  0.0011  0.0000  0.0104  0.0011  0.0004  0.0000  0.0015  0.0044  0.0024 </r>
        <r>  0.0002  0.0046  0.0145  0.0016  0.0035  0.0018  0.0012  0.0006  0.0012 </r>
        <r>  0.0011  0.0007  0.0105  0.0004  0.0022  0.0031  0.0015  0.0014  0.0006 </r>
       </set>
       <set comment="band 43">
        <r>  0.0435  0.0021  0.0063  0.0017  0.0011  0.0002  0.0032  0.0012  0.0021 </r>
        <r>  0.0445  0.0015  0.0063  0.0022  0.0018  0.0010  0.0032  0.0004  0.0014 </r>
        <r>  0.0012  0.0134  0.0014  0.0044  0.0000  0.0000  0.0000  0.0000  0.0000 </r>
        <r>  0.0002  0.0054  0.0025  0.0018  0.0004  0.0004  0.0002  0.0001  0.0001 </r>
        <r>  0.0003  0.0064  0.0006  0.0010  0.0001  0.0054  0.0005  0.0012  0.0002 </r>
        <r>  0.0023  0.0059  0.0070  0.0020  0.0005  0.0014  0.0038  0.0005  0.0002 </r>
        <r>  0.0003  0.0013  0.0006  0.0061  0.0001  0.0044  0.0005  0.0022  0.0002 </r>
        <r>  0.0002  0.0103  0.0026  0.0014  0.0099  0.0159  0.0005  0.0002  0.0002 </r>
        <r>  0.0031  0.0095  0.0108  0.0030  0.0006  0.0051  0.0050  0.0018  0.0002 </r>
        <r>  0.0002  0.0004  0.0026  0.0112  0.0023  0.0046  0.0006  0.0114  0.0078 </r>
       </set>
       <set comment="band 44">
        <r>  0.0158  0.0010  0.0028  0.0015  0.0018  0.0007  0.0017  0.0004  0.0021 </r>
        <r>  0.0154  0.0022  0.0025  0.0003  0.0021  0.0008  0.0016  0.0004  0.0020 </r>
        <r>  0.0000  0.0005  0.0000  0.0014  0.0000  0.0000  0.0000  0.0000  0.0000 </r>
        <r>  0.0000  0.0011  0.0000  0.0033  0.0001  0.0005  0.0000  0.0015  0.0004 </r>
        <r>  0.0051  0.0016  0.0065  0.0025  0.0001  0.0008  0.0047  0.0011  0.0000 </r>
        <r>  0.0000  0.0012  0.0000  0.0035  0.0000  0.0004  0.0000  0.0013  0.0000 </r>
        <r>  0.0051  0.0036  0.0067  0.0005  0.0001  0.0003  0.0047  0.0015  0.0000 </r>
        <r>  0.0014  0.0015  0.0092  0.0025  0.0009  0.0017  0.0010  0.0035  0.0013 </r>
        <r>  0.0000  0.0017  0.0000  0.0051  0.0011  0.0021  0.0000  0.0059  0.0032 </r>
        <r>  0.0013  0.0016  0.0093  0.0025  0.0010  0.0013  0.0011  0.0038  0.0013 </r>
       </set>
       <set comment="band 45">
        <r>  0.0022  0.0009  0.0010  0.0079  0.0020  0.0005  0.0008  0.0007  0.0001 </r>
        <r>  0.0019  0.0072  0.0011  0.0016  0.0003  0.0006  0.0008  0.0006  0.0018 </r>
        <r>  0.0013  0.0072  0.0001  0.0024  0.0000  0.0000  0.0000  0.0000  0.0000 </r>
        <r>  0.0003  0.0001  0.0007  0.0000  0.0001  0.0018  0.0007  0.0006  0.0000 </r>
        <r>  0.0007  0.0002  0.0037  0.0007  0.0001  0.0048  0.0002  0.0004  0.0000 </r>
        <r>  0.0045  0.0008  0.0074  0.0003  0.0003  0.0013  0.0043  0.0004  0.0001 </r>
        <r>  0.0007  0.0007  0.0035  0.0001  0.0000  0.0026  0.0003  0.0027  0.0001 </r>
        <r>  0.0022  0.0014  0.0028  0.0007  0.0009  0.0002  0.0006  0.0044  0.0002 </r>
        <r>  0.0035  0.0081  0.0100  0.0028  0.0026  0.0011  0.0016  0.0004  0.0009 </r>
        <r>  0.0024  0.0016  0.0027  0.0005  0.0001  0.0029  0.0006  0.0019  0.0010 </r>
       </set>
       <set comment="band 46">
        <r>  0.0001  0.0019  0.0014  0.0008  0.0004  0.0001  0.0019  0.0000  0.0008 </r>
        <r>  0.0001  0.0008  0.0015  0.0020  0.0007  0.0000  0.0020  0.0001  0.0005 </r>
        <r>  0.0000  0.0009  0.0000  0.0037  0.0000  0.0000  0.0000  0.0000  0.0000 </r>
        <r>  0.0000  0.0011  0.0000  0.0030  0.0001  0.0000  0.0000  0.0001  0.0002 </r>
        <r>  0.0008  0.0000  0.0012  0.0034  0.0000  0.0003  0.0013  0.0008  0.0002 </r>
        <r>  0.0000  0.0000  0.0000  0.0001  0.0001  0.0001  0.0000  0.0002  0.0002 </r>
        <r>  0.0008  0.0025  0.0011  0.0010  0.0002  0.0002  0.0013  0.0010  0.0001 </r>
        <r>  0.0014  0.0011  0.0096  0.0042  0.0006  0.0004  0.0056  0.0002  0.0005 </r>
        <r>  0.0000  0.0002  0.0000  0.0003  0.0007  0.0011  0.0000  0.0032  0.0022 </r>
        <r>  0.0014  0.0049  0.0098  0.0001  0.0002  0.0000  0.0056  0.0006  0.0008 </r>
       </set>
       <set comment="band 47">
        <r>  0.0098  0.0037  0.0048  0.0028  0.0005  0.0007  0.0007  0.0004  0.0028 </r>
        <r>  0.0093  0.0020  0.0048  0.0045  0.0012  0.0009  0.0005  0.0002  0.0022 </r>
        <r>  0.0010  0.0200  0.0026  0.0064  0.0000  0.0000  0.0000  0.0000  0.0000 </r>
        <r>  0.0011  0.0024  0.0062  0.0008  0.0005  0.0024  0.0005  0.0008  0.0002 </r>
        <r>  0.0006  0.0015  0.0044  0.0002  0.0004  0.0108  0.0003  0.0000  0.0001 </r>
        <r>  0.0019  0.0007  0.0177  0.0002  0.0009  0.0017  0.0006  0.0006  0.0003 </r>
        <r>  0.0006  0.0002  0.0044  0.0014  0.0001  0.0033  0.0002  0.0074  0.0004 </r>
        <r>  0.0001  0.0050  0.0045  0.0048  0.0012  0.0017  0.0002  0.0003  0.0026 </r>
        <r>  0.0002  0.0038  0.0031  0.0014  0.0032  0.0067  0.0063  0.0023  0.0010 </r>
        <r>  0.0000  0.0024  0.0042  0.0077  0.0018  0.0012  0.0001  0.0008  0.0020 </r>
       </set>
       <set comment="band 48">
        <r>  0.0446  0.0045  0.0029  0.0075  0.0006  0.0005  0.0005  0.0003  0.0004 </r>
        <r>  0.0452  0.0065  0.0027  0.0053  0.0007  0.0000  0.0005  0.0008  0.0003 </r>
        <r>  0.0000  0.0104  0.0000  0.0312  0.0000  0.0000  0.0000  0.0000  0.0000 </r>
        <r>  0.0000  0.0028  0.0000  0.0083  0.0000  0.0009  0.0000  0.0027  0.0001 </r>
        <r>  0.0004  0.0023  0.0191  0.0020  0.0000  0.0022  0.0002  0.0031  0.0003 </r>
        <r>  0.0000  0.0023  0.0000  0.0071  0.0000  0.0044  0.0000  0.0129  0.0001 </r>
        <r>  0.0004  0.0031  0.0191  0.0012  0.0003  0.0007  0.0002  0.0045  0.0001 </r>
        <r>  0.0059  0.0030  0.0021  0.0075  0.0027  0.0026  0.0002  0.0043  0.0019 </r>
        <r>  0.0000  0.0075  0.0000  0.0224  0.0021  0.0042  0.0000  0.0125  0.0064 </r>
        <r>  0.0059  0.0085  0.0020  0.0020  0.0035  0.0067  0.0002  0.0003  0.0011 </r>
       </set>
      </set>
     </set>
    </set>
   </array>
  </projected>
 </calculation>
 <structure name="finalpos" >
  <crystal>
   <varray name="basis" >
    <v>       6.79355518       0.00000266      -0.00000000 </v>
    <v>       3.39677481       5.88339235      -0.00000000 </v>
    <v>      -0.00000000      -0.00000000      21.68304462 </v>
   </varray>
   <i name="volume">    866.65267905 </i>
   <varray name="rec_basis" >
    <v>       0.14719837      -0.08498493      -0.00000000 </v>
    <v>      -0.00000007       0.16997000       0.00000000 </v>
    <v>       0.00000000       0.00000000       0.04611898 </v>
   </varray>
  </crystal>
  <varray name="positions" >
   <v>       0.33333300       0.33333300       0.49248892 </v>
   <v>       0.66666700       0.66666700       0.49211906 </v>
   <v>      -0.00000000      -0.00000000       0.46534240 </v>
   <v>      -0.00000000      -0.00000000       0.58000591 </v>
   <v>       0.58130645      -0.00048205       0.56639335 </v>
   <v>      -0.00048205       0.41917660       0.56639335 </v>
   <v>       0.41917660       0.58130645       0.56639335 </v>
   <v>       0.35467887       0.00047137       0.42362122 </v>
   <v>       0.00047137       0.64484876       0.42362122 </v>
   <v>       0.64484876       0.35467887       0.42362122 </v>
  </varray>
 </structure>
</modeling>
