unknown system                          
           1
     6.907777   -0.000000    0.000000
     3.453888    5.982310    0.000000
     0.000000    0.000000   23.444588
   Ni   Si   Ge   Te
   2   1   1   6
Direct configuration=     1
   0.33333300  0.33333300  0.49992500
   0.66666700  0.66666700  0.50007500
   0.00000000  0.00000000  0.44821600
   0.00000000  0.00000000  0.55178400
   0.62635700  0.00042000  0.57375200
   0.00042000  0.37322400  0.57375200
   0.37322400  0.62635700  0.57375200
   0.37364300  0.99958000  0.42624800
   0.99958000  0.62677600  0.42624800
   0.62677600  0.37364300  0.42624800
unknown system                          
           1
     6.678282    0.000000    0.000000
     3.339141    5.783562    0.000000
     0.000000    0.000000   22.751455
   Ni   Si   Ge   Te
   2   1   1   6
Direct configuration=     2
   0.33333300  0.33333300  0.49997880
   0.66666700  0.66666700  0.50011499
  -0.00000000  0.00000000  0.44804301
  -0.00000000  0.00000000  0.55123273
   0.62331363  0.00036790  0.57261225
   0.00036790  0.37631946  0.57261225
   0.37631946  0.62331363  0.57261225
   0.37226392  0.99963297  0.42759791
   0.99963297  0.62810210  0.42759791
   0.62810210  0.37226392  0.42759791
unknown system                          
           1
     6.701481    0.000000    0.000000
     3.350740    5.803653    0.000000
     0.000000    0.000000   22.821522
   Ni   Si   Ge   Te
   2   1   1   6
Direct configuration=     3
   0.33333300  0.33333300  0.49997319
   0.66666700  0.66666700  0.50011082
  -0.00000000  0.00000000  0.44806103
  -0.00000000  0.00000000  0.55129016
   0.62363185  0.00037335  0.57273097
   0.00037335  0.37599580  0.57273097
   0.37599580  0.62363185  0.57273097
   0.37240812  0.99962744  0.42745730
   0.99962744  0.62796345  0.42745730
   0.62796345  0.37240812  0.42745730
unknown system                          
           1
     6.714823    0.000000    0.000000
     3.357411    5.815207    0.000000
     0.000000    0.000000   22.861817
   Ni   Si   Ge   Te
   2   1   1   6
Direct configuration=     4
   0.33333300  0.33333300  0.49996998
   0.66666700  0.66666700  0.50010844
  -0.00000000  0.00000000  0.44807136
  -0.00000000  0.00000000  0.55132308
   0.62381422  0.00037647  0.57279904
   0.00037647  0.37581030  0.57279904
   0.37581030  0.62381422  0.57279904
   0.37249076  0.99962426  0.42737668
   0.99962426  0.62788398  0.42737668
   0.62788398  0.37249076  0.42737668
unknown system                          
           1
     6.726100    0.000000    0.000000
     3.363050    5.824974    0.000000
     0.000000    0.000000   22.719139
   Ni   Si   Ge   Te
   2   1   1   6
Direct configuration=     5
   0.33333300  0.33333300  0.50003084
   0.66666700  0.66666700  0.50016582
   0.00000000  0.00000000  0.44737431
   0.00000000  0.00000000  0.55149571
   0.61893860  0.00030482  0.57250041
   0.00030482  0.38075757  0.57250041
   0.38075757  0.61893860  0.57250041
   0.37327355  0.99969082  0.42781070
   0.99969082  0.62703463  0.42781070
   0.62703463  0.37327355  0.42781070
unknown system                          
           1
     6.730587    0.000000    0.000000
     3.365293    5.828859    0.000000
     0.000000    0.000000   22.662376
   Ni   Si   Ge   Te
   2   1   1   6
Direct configuration=     6
   0.33333300  0.33333300  0.50005521
   0.66666700  0.66666700  0.50018880
   0.00000000  0.00000000  0.44709526
   0.00000000  0.00000000  0.55156482
   0.61700212  0.00027637  0.57238085
   0.00027637  0.38272251  0.57238085
   0.38272251  0.61700212  0.57238085
   0.37358446  0.99971725  0.42798445
   0.99971725  0.62669729  0.42798445
   0.62669729  0.37358446  0.42798445
unknown system                          
           1
     6.739560    0.000000    0.000000
     3.369780    5.836630    0.000000
     0.000000    0.000000   22.548849
   Ni   Si   Ge   Te
   2   1   1   6
Direct configuration=     7
   0.33333300  0.33333300  0.50010407
   0.66666700  0.66666700  0.50023486
   0.00000000  0.00000000  0.44653575
   0.00000000  0.00000000  0.55170339
   0.61313175  0.00021949  0.57214115
   0.00021949  0.38664976  0.57214115
   0.38664976  0.61313175  0.57214115
   0.37420585  0.99977009  0.42833283
   0.99977009  0.62602306  0.42833283
   0.62602306  0.37420585  0.42833283
unknown system                          
           1
     6.757507    0.000000    0.000000
     3.378753    5.852172    0.000000
     0.000000    0.000000   22.321795
   Ni   Si   Ge   Te
   2   1   1   6
Direct configuration=     8
   0.33333300  0.33333300  0.50020227
   0.66666700  0.66666700  0.50032746
   0.00000000  0.00000000  0.44541110
   0.00000000  0.00000000  0.55198191
   0.60540130  0.00010589  0.57165932
   0.00010589  0.39449381  0.57165932
   0.39449381  0.60540130  0.57165932
   0.37544699  0.99987562  0.42903310
   0.99987562  0.62467639  0.42903310
   0.62467639  0.37544699  0.42903310
unknown system                          
           1
     6.749265    0.000000    0.000000
     3.374632    5.845034    0.000000
     0.000000    0.000000   22.426074
   Ni   Si   Ge   Te
   2   1   1   6
Direct configuration=     9
   0.33333300  0.33333300  0.50015671
   0.66666700  0.66666700  0.50028450
   0.00000000  0.00000000  0.44593287
   0.00000000  0.00000000  0.55185269
   0.60894224  0.00015792  0.57188286
   0.00015792  0.39090084  0.57188286
   0.39090084  0.60894224  0.57188286
   0.37487849  0.99982728  0.42870822
   0.99982728  0.62529324  0.42870822
   0.62529324  0.37487849  0.42870822
unknown system                          
           1
     6.785256    0.000000    0.000000
     3.392627    5.876203    0.000000
     0.000000    0.000000   22.563663
   Ni   Si   Ge   Te
   2   1   1   6
Direct configuration=    10
   0.33333300  0.33333300  0.50018168
   0.66666700  0.66666700  0.50028061
   0.00000000  0.00000000  0.44463466
   0.00000000  0.00000000  0.55389720
   0.60658894  0.00018945  0.57164233
   0.00018945  0.39322261  0.57164233
   0.39322261  0.60658894  0.57164233
   0.37595456  0.99996008  0.42869296
   0.99996008  0.62408435  0.42869296
   0.62408435  0.37595456  0.42869296
unknown system                          
           1
     6.768436    0.000000    0.000000
     3.384218    5.861638    0.000000
     0.000000    0.000000   22.499365
   Ni   Si   Ge   Te
   2   1   1   6
Direct configuration=    11
   0.33333300  0.33333300  0.50017008
   0.66666700  0.66666700  0.50028242
   0.00000000  0.00000000  0.44523763
   0.00000000  0.00000000  0.55294760
   0.60768284  0.00017480  0.57175405
   0.00017480  0.39214337  0.57175405
   0.39214337  0.60768284  0.57175405
   0.37545436  0.99989835  0.42870005
   0.99989835  0.62464629  0.42870005
   0.62464629  0.37545436  0.42870005
unknown system                          
           1
     6.759942    0.000000    0.000000
     3.379970    5.854281    0.000000
     0.000000   -0.000000   22.489554
   Ni   Si   Ge   Te
   2   1   1   6
Direct configuration=    12
   0.33333300  0.33333300  0.50014399
   0.66666700  0.66666700  0.50023847
   0.00000000  0.00000000  0.44544177
   0.00000000  0.00000000  0.55357940
   0.60811208  0.00015837  0.57157923
   0.00015837  0.39173055  0.57157923
   0.39173055  0.60811208  0.57157923
   0.37575506  0.99990930  0.42861956
   0.99990930  0.62433464  0.42861956
   0.62433464  0.37575506  0.42861956
unknown system                          
           1
     6.747663    0.000000    0.000000
     3.373831    5.843647    0.000000
     0.000000   -0.000000   22.475371
   Ni   Si   Ge   Te
   2   1   1   6
Direct configuration=    13
   0.33333300  0.33333300  0.50010626
   0.66666700  0.66666700  0.50017491
   0.00000000  0.00000000  0.44573699
   0.00000000  0.00000000  0.55449306
   0.60873333  0.00013459  0.57132642
   0.00013459  0.39113308  0.57132642
   0.39113308  0.60873333  0.57132642
   0.37619025  0.99992516  0.42850317
   0.99992516  0.62388359  0.42850317
   0.62388359  0.37619025  0.42850317
unknown system                          
           1
     6.753951    0.000000    0.000000
     3.376975    5.849093    0.000000
     0.000000   -0.000000   22.474089
   Ni   Si   Ge   Te
   2   1   1   6
Direct configuration=    14
   0.33333300  0.33333300  0.50004154
   0.66666700  0.66666700  0.50009783
   0.00000000  0.00000000  0.44599074
   0.00000000  0.00000000  0.55488829
   0.60873537  0.00011826  0.57125400
   0.00011826  0.39114737  0.57125400
   0.39114737  0.60873537  0.57125400
   0.37636929  0.99993555  0.42840653
   0.99993555  0.62369417  0.42840653
   0.62369417  0.37636929  0.42840653
unknown system                          
           1
     6.772816    0.000000    0.000000
     3.386407    5.865431    0.000000
     0.000000   -0.000000   22.470242
   Ni   Si   Ge   Te
   2   1   1   6
Direct configuration=    15
   0.33333300  0.33333300  0.49984734
   0.66666700  0.66666700  0.49986657
   0.00000000 -0.00000000  0.44675203
   0.00000000 -0.00000000  0.55607403
   0.60874148  0.00006932  0.57103675
   0.00006932  0.39119020  0.57103675
   0.39119020  0.60874148  0.57103675
   0.37690588  0.99996669  0.42811659
   0.99996669  0.62312642  0.42811659
   0.62312642  0.37690588  0.42811659
unknown system                          
           1
     6.775313    0.000000    0.000000
     3.387656    5.867593    0.000000
     0.000000   -0.000000   22.426809
   Ni   Si   Ge   Te
   2   1   1   6
Direct configuration=    16
   0.33333300  0.33333300  0.49968027
   0.66666700  0.66666700  0.49968376
   0.00000000 -0.00000000  0.44728128
   0.00000000 -0.00000000  0.55650627
   0.60816986  0.00003801  0.57092251
   0.00003801  0.39179313  0.57092251
   0.39179313  0.60816986  0.57092251
   0.37667391  0.99997878  0.42802696
   0.99997878  0.62334631  0.42802696
   0.62334631  0.37667391  0.42802696
unknown system                          
           1
     6.782804    0.000000    0.000000
     3.391401    5.874080    0.000000
     0.000000   -0.000000   22.296509
   Ni   Si   Ge   Te
   2   1   1   6
Direct configuration=    17
   0.33333300  0.33333300  0.49917806
   0.66666700  0.66666700  0.49913427
   0.00000000 -0.00000000  0.44887211
   0.00000000 -0.00000000  0.55780550
   0.60645563 -0.00005588  0.57057915
  -0.00005588  0.39360125  0.57057915
   0.39360125  0.60645563  0.57057915
   0.37597826  0.00001502  0.42775754
   0.00001502  0.62400572  0.42775754
   0.62400572  0.37597826  0.42775754
unknown system                          
           1
     6.797785    0.000001    0.000000
     3.398891    5.887055    0.000000
     0.000000   -0.000000   22.035909
   Ni   Si   Ge   Te
   2   1   1   6
Direct configuration=    18
   0.33333300  0.33333300  0.49816779
   0.66666700  0.66666700  0.49802887
   0.00000000 -0.00000000  0.45207235
  -0.00000000 -0.00000000  0.56041916
   0.60303097 -0.00024346  0.56988839
  -0.00024346  0.39721349  0.56988839
   0.39721349  0.60303097  0.56988839
   0.37458848  0.00008743  0.42721555
   0.00008743  0.62532309  0.42721555
   0.62532309  0.37458848  0.42721555
unknown system                          
           1
     6.791750    0.000001    0.000000
     3.395874    5.881828    0.000000
     0.000000   -0.000000   22.140899
   Ni   Si   Ge   Te
   2   1   1   6
Direct configuration=    19
   0.33333300  0.33333300  0.49857962
   0.66666700  0.66666700  0.49847947
   0.00000000 -0.00000000  0.45076780
   0.00000000 -0.00000000  0.55935373
   0.60440765 -0.00016806  0.57016997
  -0.00016806  0.39576141  0.57016997
   0.39576141  0.60440765  0.57016997
   0.37514715  0.00005832  0.42743649
   0.00005832  0.62479352  0.42743649
   0.62479352  0.37514715  0.42743649
unknown system                          
           1
     6.792501    0.000001    0.000000
     3.396250    5.882479    0.000000
     0.000000   -0.000000   22.130696
   Ni   Si   Ge   Te
   2   1   1   6
Direct configuration=    20
   0.33333300  0.33333300  0.49848441
   0.66666700  0.66666700  0.49837641
   0.00000000 -0.00000000  0.45099320
   0.00000000 -0.00000000  0.55965424
   0.60404224 -0.00018205  0.57011660
  -0.00018205  0.39614081  0.57011660
   0.39614081  0.60404224  0.57011660
   0.37490515  0.00006567  0.42738065
   0.00006567  0.62502818  0.42738065
   0.62502818  0.37490515  0.42738065
unknown system                          
           1
     6.794757    0.000001    0.000000
     3.397377    5.884432    0.000000
     0.000000   -0.000000   22.100088
   Ni   Si   Ge   Te
   2   1   1   6
Direct configuration=    21
   0.33333300  0.33333300  0.49819864
   0.66666700  0.66666700  0.49806708
   0.00000000 -0.00000000  0.45166972
   0.00000000 -0.00000000  0.56055618
   0.60294614 -0.00022403  0.56995639
  -0.00022403  0.39727889  0.56995639
   0.39727889  0.60294614  0.56995639
   0.37417923  0.00008770  0.42721307
   0.00008770  0.62573207  0.42721307
   0.62573207  0.37417923  0.42721307
unknown system                          
           1
     6.799268    0.000001    0.000000
     3.399633    5.888339    0.000000
     0.000000   -0.000000   22.038872
   Ni   Si   Ge   Te
   2   1   1   6
Direct configuration=    22
   0.33333300  0.33333300  0.49762632
   0.66666700  0.66666700  0.49744756
  -0.00000000 -0.00000000  0.45302463
  -0.00000000 -0.00000000  0.56236257
   0.60075466 -0.00030795  0.56963554
  -0.00030795  0.39955429  0.56963554
   0.39955429  0.60075466  0.56963554
   0.37272786  0.00013176  0.42687743
   0.00013176  0.62713938  0.42687743
   0.62713938  0.37272786  0.42687743
unknown system                          
           1
     6.808291    0.000001    0.000000
     3.404144    5.896153    0.000000
     0.000000   -0.000000   21.916439
   Ni   Si   Ge   Te
   2   1   1   6
Direct configuration=    23
   0.33333300  0.33333300  0.49647848
   0.66666700  0.66666700  0.49620508
  -0.00000000 -0.00000000  0.45574198
  -0.00000000 -0.00000000  0.56598538
   0.59637462 -0.00047569  0.56899206
  -0.00047569  0.40410208  0.56899206
   0.40410208  0.59637462  0.56899206
   0.36982706  0.00021981  0.42620430
   0.00021981  0.62995213  0.42620430
   0.62995213  0.36982706  0.42620430
unknown system                          
           1
     6.826336    0.000002    0.000000
     3.413166    5.911781    0.000000
     0.000000   -0.000000   21.671575
   Ni   Si   Ge   Te
   2   1   1   6
Direct configuration=    24
   0.33333300  0.33333300  0.49417000
   0.66666700  0.66666700  0.49370624
  -0.00000000 -0.00000000  0.46120703
  -0.00000000 -0.00000000  0.57327147
   0.58762614 -0.00081073  0.56769791
  -0.00081073  0.41318559  0.56769791
   0.41318559  0.58762614  0.56769791
   0.36403314  0.00039568  0.42485051
   0.00039568  0.63557018  0.42485051
   0.63557018  0.36403314  0.42485051
unknown system                          
           1
     6.862426    0.000003    0.000000
     3.431209    5.943037    0.000000
     0.000000   -0.000000   21.181845
   Ni   Si   Ge   Te
   2   1   1   6
Direct configuration=    25
   0.33333300  0.33333300  0.48950086
   0.66666700  0.66666700  0.48865209
  -0.00000000 -0.00000000  0.47226064
  -0.00000000 -0.00000000  0.58800831
   0.57017544 -0.00147903  0.56508036
  -0.00147903  0.43130459  0.56508036
   0.43130459  0.57017544  0.56508036
   0.35247594  0.00074649  0.42211233
   0.00074649  0.64677658  0.42211233
   0.64677658  0.35247594  0.42211233
unknown system                          
           1
     6.834239    0.000002    0.000000
     3.417117    5.918626    0.000000
     0.000000   -0.000000   21.564326
   Ni   Si   Ge   Te
   2   1   1   6
Direct configuration=    26
   0.33333300  0.33333300  0.49323179
   0.66666700  0.66666700  0.49269066
  -0.00000000 -0.00000000  0.46342813
  -0.00000000 -0.00000000  0.57623268
   0.58373283 -0.00095983  0.56717194
  -0.00095983  0.41722800  0.56717194
   0.41722800  0.58373283  0.56717194
   0.36145469  0.00047394  0.42430030
   0.00047394  0.63807037  0.42430030
   0.63807037  0.36145469  0.42430030
unknown system                          
           1
     6.815997    0.000003    0.000000
     3.407996    5.902827    0.000000
     0.000000   -0.000000   21.724657
   Ni   Si   Ge   Te
   2   1   1   6
Direct configuration=    27
   0.33333300  0.33333300  0.49284298
   0.66666700  0.66666700  0.49220599
  -0.00000000 -0.00000000  0.46402786
  -0.00000000 -0.00000000  0.57904340
   0.58141839 -0.00086374  0.56675301
  -0.00086374  0.41944635  0.56675301
   0.41944635  0.58141839  0.56675301
   0.35810716  0.00052991  0.42387358
   0.00052991  0.64136192  0.42387358
   0.64136192  0.35810716  0.42387358
unknown system                          
           1
     6.811361    0.000003   -0.000000
     3.405678    5.898813    0.000000
     0.000000   -0.000000   21.765398
   Ni   Si   Ge   Te
   2   1   1   6
Direct configuration=    28
   0.33333300  0.33333300  0.49274491
   0.66666700  0.66666700  0.49208374
  -0.00000000 -0.00000000  0.46417912
  -0.00000000 -0.00000000  0.57975234
   0.58082870 -0.00083925  0.56664734
  -0.00083925  0.42001156  0.56664734
   0.42001156  0.58082870  0.56664734
   0.35725426  0.00054417  0.42376595
   0.00054417  0.64220057  0.42376595
   0.64220057  0.35725426  0.42376595
unknown system                          
           1
     6.756553    0.000003    0.000000
     3.378274    5.851348    0.000000
     0.000000   -0.000000   21.745373
   Ni   Si   Ge   Te
   2   1   1   6
Direct configuration=    29
   0.33333300  0.33333300  0.49255039
   0.66666700  0.66666700  0.49195033
  -0.00000000 -0.00000000  0.46488633
  -0.00000000 -0.00000000  0.58113983
   0.57975508 -0.00068953  0.56618550
  -0.00068953  0.42093545  0.56618550
   0.42093545  0.57975508  0.56618550
   0.35429427  0.00057350  0.42363887
   0.00057350  0.64513123  0.42363887
   0.64513123  0.35429427  0.42363887
unknown system                          
           1
     6.781432    0.000003    0.000000
     3.390713    5.872894    0.000000
     0.000000   -0.000000   21.754463
   Ni   Si   Ge   Te
   2   1   1   6
Direct configuration=    30
   0.33333300  0.33333300  0.49263877
   0.66666700  0.66666700  0.49201094
  -0.00000000 -0.00000000  0.46456501
  -0.00000000 -0.00000000  0.58050942
   0.58024639 -0.00075804  0.56639534
  -0.00075804  0.42051266  0.56639534
   0.42051266  0.58024639  0.56639534
   0.35564882  0.00056008  0.42369661
   0.00056008  0.64379011  0.42369661
   0.64379011  0.35564882  0.42369661
unknown system                          
           1
     6.782185    0.000003    0.000000
     3.391090    5.873545    0.000000
     0.000000   -0.000000   21.687560
   Ni   Si   Ge   Te
   2   1   1   6
Direct configuration=    31
   0.33333300  0.33333300  0.49258790
   0.66666700  0.66666700  0.49206918
  -0.00000000 -0.00000000  0.46506695
  -0.00000000 -0.00000000  0.58008547
   0.58065716 -0.00069899  0.56637278
  -0.00069899  0.42004282  0.56637278
   0.42004282  0.58065716  0.56637278
   0.35544137  0.00054896  0.42369072
   0.00054896  0.64400867  0.42369072
   0.64400867  0.35544137  0.42369072
unknown system                          
           1
     6.782480    0.000003    0.000000
     3.391237    5.873801    0.000000
     0.000000   -0.000000   21.661285
   Ni   Si   Ge   Te
   2   1   1   6
Direct configuration=    32
   0.33333300  0.33333300  0.49256786
   0.66666700  0.66666700  0.49209212
  -0.00000000 -0.00000000  0.46526469
  -0.00000000 -0.00000000  0.57991845
   0.58081847 -0.00067580  0.56636389
  -0.00067580  0.41985832  0.56636389
   0.41985832  0.58081847  0.56636389
   0.35535990  0.00054459  0.42368840
   0.00054459  0.64409451  0.42368840
   0.64409451  0.35535990  0.42368840
unknown system                          
           1
     6.791237    0.000003   -0.000000
     3.395616    5.881384   -0.000000
     0.000000   -0.000000   21.659443
   Ni   Si   Ge   Te
   2   1   1   6
Direct configuration=    33
   0.33333300  0.33333300  0.49251329
   0.66666700  0.66666700  0.49211215
  -0.00000000 -0.00000000  0.46539440
  -0.00000000 -0.00000000  0.57990386
   0.58118239 -0.00056468  0.56640095
  -0.00056468  0.41938328  0.56640095
   0.41938328  0.58118239  0.56640095
   0.35493788  0.00050434  0.42362448
   0.00050434  0.64455679  0.42362448
   0.64455679  0.35493788  0.42362448
unknown system                          
           1
     6.791193    0.000003   -0.000000
     3.395593    5.881346   -0.000000
     0.000000   -0.000000   21.659452
   Ni   Si   Ge   Te
   2   1   1   6
Direct configuration=    34
   0.33333300  0.33333300  0.49251356
   0.66666700  0.66666700  0.49211205
  -0.00000000 -0.00000000  0.46539375
  -0.00000000 -0.00000000  0.57990393
   0.58118056 -0.00056523  0.56640076
  -0.00056523  0.41938567  0.56640076
   0.41938567  0.58118056  0.56640076
   0.35494000  0.00050454  0.42362481
   0.00050454  0.64455446  0.42362481
   0.64455446  0.35494000  0.42362481
unknown system                          
           1
     6.793862    0.000003   -0.000000
     3.396928    5.883658   -0.000000
    -0.000000   -0.000000   21.686108
   Ni   Si   Ge   Te
   2   1   1   6
Direct configuration=    35
   0.33333300  0.33333300  0.49248572
   0.66666700  0.66666700  0.49211997
  -0.00000000 -0.00000000  0.46533574
  -0.00000000 -0.00000000  0.58001914
   0.58132279 -0.00047125  0.56639239
  -0.00047125  0.41914947  0.56639239
   0.41914947  0.58132279  0.56639239
   0.35464497  0.00046707  0.42362076
   0.00046707  0.64488696  0.42362076
   0.64488696  0.35464497  0.42362076
unknown system                          
           1
     6.793555    0.000003   -0.000000
     3.396775    5.883392   -0.000000
    -0.000000   -0.000000   21.683045
   Ni   Si   Ge   Te
   2   1   1   6
Direct configuration=    36
   0.33333300  0.33333300  0.49248892
   0.66666700  0.66666700  0.49211906
  -0.00000000 -0.00000000  0.46534240
  -0.00000000 -0.00000000  0.58000591
   0.58130645 -0.00048205  0.56639335
  -0.00048205  0.41917660  0.56639335
   0.41917660  0.58130645  0.56639335
   0.35467887  0.00047137  0.42362122
   0.00047137  0.64484876  0.42362122
   0.64484876  0.35467887  0.42362122
