 vasp.5.4.4.18Apr17-6-g9f103f2a35 (build May  1 2020 15:48:39) complex           
 executed on             LinuxGNU date 2020.07.01  10:21:19
 running on    8 total cores
 distrk:  each k-point on    8 cores,    1 groups
 distr:  one band on NCORES_PER_BAND=   1 cores,    8 groups


--------------------------------------------------------------------------------------------------------


 INCAR:
 POTCAR:   PAW_PBE Cr 06Sep2000                   
 POTCAR:    PAW_PBE P 17Jan2003                   
 POTCAR:   PAW_PBE Se 06Sep2000                   

 ----------------------------------------------------------------------------- 
|                                                                             |
|           W    W    AA    RRRRR   N    N  II  N    N   GGGG   !!!           |
|           W    W   A  A   R    R  NN   N  II  NN   N  G    G  !!!           |
|           W    W  A    A  R    R  N N  N  II  N N  N  G       !!!           |
|           W WW W  AAAAAA  RRRRR   N  N N  II  N  N N  G  GGG   !            |
|           WW  WW  A    A  R   R   N   NN  II  N   NN  G    G                |
|           W    W  A    A  R    R  N    N  II  N    N   GGGG   !!!           |
|                                                                             |
|      For optimal performance we recommend to set                            |
|        NCORE= 4 - approx SQRT( number of cores)                             |
|      NCORE specifies how many cores store one orbital (NPAR=cpu/NCORE).     |
|      This setting can  greatly improve the performance of VASP for DFT.     |
|      The default,   NCORE=1            might be grossly inefficient         |
|      on modern multi-core architectures or massively parallel machines.     |
|      Do your own testing !!!!                                               |
|      Unfortunately you need to use the default for GW and RPA calculations. |
|      (for HF NCORE is supported but not extensively tested yet)             |
|                                                                             |
 ----------------------------------------------------------------------------- 


 ----------------------------------------------------------------------------- 
|                                                                             |
|  ADVICE TO THIS USER RUNNING 'VASP/VAMP'   (HEAR YOUR MASTER'S VOICE ...):  |
|                                                                             |
|      You have switched on vdW-DFT.                                          |
|      This routine was written and supplied by Jiri Klimes.                  |
|      We recommed that you carefully read and cite the following             |
|      publication                                                            |
|      J. Klimes, D.R. Bowler, A. Michelides                                  |
|        J. Phys.: Cond Matt. 22 022201 (2010)                                |
|      J. Klimes, D.R. Bowler, A. Michelides                                  |
|        Phys. Rev. B. 83, 195131 (2011)                                      |
|      and references therein.                                                |
|                                                                             |
 ----------------------------------------------------------------------------- 

 POTCAR:   PAW_PBE Cr 06Sep2000                   
   VRHFIN =Cr : d5 s1                                                           
   LEXCH  = PE                                                                  
   EATOM  =   276.9744 eV,   20.3570 Ry                                         
                                                                                
   TITEL  = PAW_PBE Cr 06Sep2000                                                
   LULTRA =        F    use ultrasoft PP ?                                      
   IUNSCR =        1    unscreen: 0-lin 1-nonlin 2-no                           
   RPACOR =    2.080    partial core radius                                     
   POMASS =   51.996; ZVAL   =    6.000    mass and valenz                      
   RCORE  =    2.500    outmost cutoff radius                                   
   RWIGS  =    2.500; RWIGS  =    1.323    wigner-seitz radius (au A)           
   ENMAX  =  227.082; ENMIN  =  170.311 eV                                      
   RCLOC  =    1.721    cutoff for local pot                                    
   LCOR   =        T    correct aug charges                                     
   LPAW   =        T    paw PP                                                  
   EAUG   =  402.108                                                            
   DEXC   =    -.035                                                            
   RMAX   =    3.060    core radius for proj-oper                               
   RAUG   =    1.300    factor for augmentation sphere                          
   RDEP   =    2.609    radius for radial grids                                 
   QCUT   =   -4.085; QGAM   =    8.171    optimization parameters              
                                                                                
   Description                                                                  
     l     E      TYP  RCUT    TYP  RCUT                                        
     2   .000     23  2.500                                                     
     2   .000     23  2.500                                                     
     0   .000     23  2.500                                                     
     0   .000     23  2.500                                                     
     1  -.400     23  2.500                                                     
     1  2.000     23  2.500                                                     
     3   .000      7   .000                                                     
  local pseudopotential read in
  partial core-charges read in
  atomic valenz-charges read in
  non local Contribution for L=           2  read in
    real space projection operators read in
  non local Contribution for L=           2  read in
    real space projection operators read in
  non local Contribution for L=           0  read in
    real space projection operators read in
  non local Contribution for L=           0  read in
    real space projection operators read in
  non local Contribution for L=           1  read in
    real space projection operators read in
  non local Contribution for L=           1  read in
    real space projection operators read in
    PAW grid and wavefunctions read in

   number of l-projection  operators is LMAX  =           6
   number of lm-projection operators is LMMAX =          18

 POTCAR:    PAW_PBE P 17Jan2003                   
   VRHFIN =P : s2p3                                                             
   LEXCH  = PE                                                                  
   EATOM  =   176.0430 eV,   12.9388 Ry                                         
                                                                                
   TITEL  = PAW_PBE P 17Jan2003                                                 
   LULTRA =        F    use ultrasoft PP ?                                      
   IUNSCR =        1    unscreen: 0-lin 1-nonlin 2-no                           
   RPACOR =    1.500    partial core radius                                     
   POMASS =   30.974; ZVAL   =    5.000    mass and valenz                      
   RCORE  =    1.900    outmost cutoff radius                                   
   RWIGS  =    2.330; RWIGS  =    1.233    wigner-seitz radius (au A)           
   ENMAX  =  270.000; ENMIN  =  191.280 eV                                      
   ICORE  =        2    local potential                                         
   LCOR   =        T    correct aug charges                                     
   LPAW   =        T    paw PP                                                  
   EAUG   =  342.924                                                            
   DEXC   =    -.002                                                            
   RMAX   =    2.887    core radius for proj-oper                               
   RAUG   =    1.300    factor for augmentation sphere                          
   RDEP   =    1.931    radius for radial grids                                 
   QCUT   =   -4.330; QGAM   =    8.659    optimization parameters              
                                                                                
   Description                                                                  
     l     E      TYP  RCUT    TYP  RCUT                                        
     0   .000     23  1.900                                                     
     0   .000     23  1.900                                                     
     1   .000     23  1.900                                                     
     1   .000     23  1.900                                                     
     2   .000     23  1.900                                                     
  local pseudopotential read in
  partial core-charges read in
  atomic valenz-charges read in
  non local Contribution for L=           0  read in
    real space projection operators read in
  non local Contribution for L=           0  read in
    real space projection operators read in
  non local Contribution for L=           1  read in
    real space projection operators read in
  non local Contribution for L=           1  read in
    real space projection operators read in
    PAW grid and wavefunctions read in

   number of l-projection  operators is LMAX  =           4
   number of lm-projection operators is LMMAX =           8

 POTCAR:   PAW_PBE Se 06Sep2000                   
   VRHFIN =Se: s2p4                                                             
   LEXCH  = PE                                                                  
   EATOM  =   256.9644 eV,   18.8864 Ry                                         
                                                                                
   TITEL  = PAW_PBE Se 06Sep2000                                                
   LULTRA =        F    use ultrasoft PP ?                                      
   IUNSCR =        1    unscreen: 0-lin 1-nonlin 2-no                           
   RPACOR =    1.900    partial core radius                                     
   POMASS =   78.960; ZVAL   =    6.000    mass and valenz                      
   RCORE  =    2.100    outmost cutoff radius                                   
   RWIGS  =    2.200; RWIGS  =    1.164    wigner-seitz radius (au A)           
   ENMAX  =  211.534; ENMIN  =  158.651 eV                                      
   ICORE  =        3    local potential                                         
   LCOR   =        T    correct aug charges                                     
   LPAW   =        T    paw PP                                                  
   EAUG   =  446.842                                                            
   DEXC   =    -.031                                                            
   RMAX   =    3.170    core radius for proj-oper                               
   RAUG   =    1.300    factor for augmentation sphere                          
   RDEP   =    2.177    radius for radial grids                                 
   QCUT   =   -3.943; QGAM   =    7.886    optimization parameters              
                                                                                
   Description                                                                  
     l     E      TYP  RCUT    TYP  RCUT                                        
     0   .000     23  2.100                                                     
     0   .000     23  2.100                                                     
     1   .000     23  2.100                                                     
     1   .000     23  2.100                                                     
     2   .000     23  2.100                                                     
     3  -.100      7  2.100                                                     
  local pseudopotential read in
  partial core-charges read in
  atomic valenz-charges read in
  non local Contribution for L=           0  read in
    real space projection operators read in
  non local Contribution for L=           0  read in
    real space projection operators read in
  non local Contribution for L=           1  read in
    real space projection operators read in
  non local Contribution for L=           1  read in
    real space projection operators read in
  non local Contribution for L=           2  read in
    real space projection operators read in
    PAW grid and wavefunctions read in

   number of l-projection  operators is LMAX  =           5
   number of lm-projection operators is LMMAX =          13

 Optimization of the real space projectors (new method)

 maximal supplied QI-value         = 15.12
 optimisation between [QCUT,QGAM] = [ 11.64, 23.28] = [ 37.95,151.78] Ry 
 Optimized for a Real-space Cutoff    1.49 Angstroem

   l    n(q)    QCUT    max X(q) W(low)/X(q) W(high)/X(q)  e(spline) 
   2      9    11.641     4.777    0.25E-04    0.21E-05    0.63E-07
   2      9    11.641    31.132    0.13E-03    0.22E-03    0.64E-06
   0     10    11.641    20.416    0.11E-04    0.74E-05    0.19E-07
   0     10    11.641    45.408    0.10E-03    0.85E-04    0.30E-06
   1     10    11.641     7.848    0.22E-04    0.23E-04    0.56E-07
   1     10    11.641     9.895    0.85E-04    0.54E-04    0.16E-06
 Optimization of the real space projectors (new method)

 maximal supplied QI-value         = 19.84
 optimisation between [QCUT,QGAM] = [ 11.51, 23.22] = [ 37.09,150.92] Ry 
 Optimized for a Real-space Cutoff    1.21 Angstroem

   l    n(q)    QCUT    max X(q) W(low)/X(q) W(high)/X(q)  e(spline) 
   0      8    11.508     6.651    0.19E-04    0.31E-05    0.49E-08
   0      8    11.508    90.285    0.95E-04    0.17E-03    0.51E-07
   1      8    11.508     4.328    0.14E-04    0.32E-04    0.22E-07
   1      8    11.508    54.583    0.16E-03    0.71E-04    0.89E-07
 Optimization of the real space projectors (new method)

 maximal supplied QI-value         = 17.95
 optimisation between [QCUT,QGAM] = [ 11.67, 23.34] = [ 38.13,152.52] Ry 
 Optimized for a Real-space Cutoff    1.25 Angstroem

   l    n(q)    QCUT    max X(q) W(low)/X(q) W(high)/X(q)  e(spline) 
   0      9    11.669     6.499    0.13E-04    0.81E-05    0.11E-07
   0      9    11.669    52.623    0.18E-03    0.46E-04    0.72E-07
   1      8    11.669     4.229    0.40E-04    0.45E-04    0.31E-07
   1      8    11.669    29.991    0.22E-03    0.36E-03    0.10E-06
   2      8    11.669     3.719    0.19E-03    0.46E-04    0.50E-07

 ----------------------------------------------------------------------------- 
|                                                                             |
|  ADVICE TO THIS USER RUNNING 'VASP/VAMP'   (HEAR YOUR MASTER'S VOICE ...):  |
|                                                                             |
|      You enforced a specific xc-type in the INCAR file,                     |
|      a different type was found on the POTCAR file                          |
|          I HOPE YOU KNOW, WHAT YOU ARE  DOING                               |
|                                                                             |
 ----------------------------------------------------------------------------- 

 PAW_PBE Cr 06Sep2000                   :
 energy of atom  1       EATOM= -276.9744
 kinetic energy error for atom=    0.0010 (will be added to EATOM!!)
  PAW_PBE P 17Jan2003                   :
 energy of atom  2       EATOM= -176.0430
 kinetic energy error for atom=    0.0011 (will be added to EATOM!!)
 PAW_PBE Se 06Sep2000                   :
 energy of atom  3       EATOM= -256.9644
 kinetic energy error for atom=    0.0007 (will be added to EATOM!!)


 POSCAR: Cr2 P2 Se6                              
  positions in direct lattice
  velocities in cartesian coordinates
  No initial velocities read in
 exchange correlation table for  LEXCH =       42
   RHO(1)=    0.500       N(1)  =     2000
   RHO(2)=  100.500       N(2)  =     4000



--------------------------------------------------------------------------------------------------------


 ion  position               nearest neighbor table
   1  0.333  0.333  0.500-   6 2.78   5 2.78   7 2.78   8 2.78  10 2.78   9 2.78
   2  0.667  0.667  0.500-   9 2.78   8 2.78  10 2.78   5 2.78   7 2.78   6 2.78
   3  0.000  0.000  0.448-   4 2.43   8 2.63  10 2.63   9 2.63
   4  0.000  0.000  0.552-   3 2.43   5 2.63   7 2.63   6 2.63
   5  0.626  0.000  0.574-   4 2.63   1 2.78   2 2.78
   6  0.000  0.373  0.574-   4 2.63   1 2.78   2 2.78
   7  0.373  0.626  0.574-   4 2.63   1 2.78   2 2.78
   8  0.374  1.000  0.426-   3 2.63   2 2.78   1 2.78
   9  1.000  0.627  0.426-   3 2.63   2 2.78   1 2.78
  10  0.627  0.374  0.426-   3 2.63   2 2.78   1 2.78

  LATTYP: Found a hexagonal cell.
 ALAT       =     6.9077769333
 C/A-ratio  =     3.3939410937
  
  Lattice vectors:
  
 A1 = (   3.4538890000,  -5.9823100000,   0.0000000000)
 A2 = (  -6.9077770000,   0.0000000000,   0.0000000000)
 A3 = (   0.0000000000,   0.0000000000, -23.4445880000)


Analysis of symmetry for initial positions (statically):
=====================================================================
 Subroutine PRICEL returns:
 Original cell was already a primitive cell.
 

 Routine SETGRP: Setting up the symmetry group for a 
 hexagonal supercell.


 Subroutine GETGRP returns: Found  6 space group operations
 (whereof  6 operations were pure point group operations)
 out of a pool of 24 trial point group operations.


The static configuration has the point symmetry S_6 .


Analysis of symmetry for dynamics (positions and initial velocities):
=====================================================================
 Subroutine PRICEL returns:
 Original cell was already a primitive cell.
 

 Routine SETGRP: Setting up the symmetry group for a 
 hexagonal supercell.


 Subroutine GETGRP returns: Found  6 space group operations
 (whereof  6 operations were pure point group operations)
 out of a pool of 24 trial point group operations.


The dynamic configuration has the point symmetry S_6 .


Analysis of constrained symmetry for selective dynamics:
=====================================================================
 Subroutine PRICEL returns:
 Original cell was already a primitive cell.
 

 Routine SETGRP: Setting up the symmetry group for a 
 hexagonal supercell.


 Subroutine GETGRP returns: Found  6 space group operations
 (whereof  6 operations were pure point group operations)
 out of a pool of 24 trial point group operations.


The constrained configuration has the point symmetry S_6 .


Analysis of structural, dynamic, and magnetic symmetry:
=====================================================================
 Subroutine PRICEL returns:
 Original cell was already a primitive cell.
 

 Routine SETGRP: Setting up the symmetry group for a 
 hexagonal supercell.


 Subroutine GETGRP returns: Found  6 space group operations
 (whereof  6 operations were pure point group operations)
 out of a pool of 24 trial point group operations.


The magnetic configuration has the point symmetry S_6 .


 Subroutine INISYM returns: Found  6 space group operations
 (whereof  6 operations are pure point group operations),
 and found     1 'primitive' translations



 KPOINTS: Kpoints from vasprun.xml                

Automatic generation of k-mesh.
Space group operators:
 irot       det(A)        alpha          n_x          n_y          n_z        tau_x        tau_y        tau_z
    1     1.000000     0.000000     1.000000     0.000000     0.000000     0.000000     0.000000     0.000000
    2    -1.000000     0.000000     1.000000     0.000000     0.000000     0.000000     0.000000     0.000000
    3     1.000000   120.000000     0.000000     0.000000     1.000000     0.000000     0.000000     0.000000
    4    -1.000000   120.000000     0.000000     0.000000     1.000000     0.000000     0.000000     0.000000
    5     1.000000   120.000000     0.000000     0.000000    -1.000000     0.000000     0.000000     0.000000
    6    -1.000000   120.000000     0.000000     0.000000    -1.000000     0.000000     0.000000     0.000000
 
 Subroutine IBZKPT returns following result:
 ===========================================
 
 Found      5 irreducible k-points:
 
 Following reciprocal coordinates:
            Coordinates               Weight
  0.000000  0.000000  0.000000      1.000000
  0.200000  0.000000  0.000000      6.000000
  0.400000  0.000000  0.000000      6.000000
  0.400000  0.200000  0.000000      6.000000
 -0.400000  0.200000  0.000000      6.000000
 
 Following cartesian coordinates:
            Coordinates               Weight
  0.000000  0.000000  0.000000      1.000000
  0.028953 -0.016716  0.000000      6.000000
  0.057906 -0.033432  0.000000      6.000000
  0.057906  0.000000  0.000000      6.000000
 -0.057906  0.066864  0.000000      6.000000
 
 TETIRR: Found     15 inequivalent tetrahedra from      150


--------------------------------------------------------------------------------------------------------




 Dimension of arrays:
   k-points           NKPTS =      5   k-points in BZ     NKDIM =      5   number of bands    NBANDS=     40
   number of dos      NEDOS =    301   number of ions     NIONS =     10
   non local maximal  LDIM  =      6   non local SUM 2l+1 LMDIM =     18
   total plane-waves  NPLWV = 524880
   max r-space proj   IRMAX =   7543   max aug-charges    IRDMAX=  27873
   dimension x,y,z NGX =    54 NGY =   54 NGZ =  180
   dimension x,y,z NGXF=   108 NGYF=  108 NGZF=  360
   support grid    NGXF=   108 NGYF=  108 NGZF=  360
   ions per type =               2   2   6
   NGX,Y,Z   is equivalent  to a cutoff of  13.00, 13.00, 12.76 a.u.
   NGXF,Y,Z  is equivalent  to a cutoff of  25.99, 25.99, 25.53 a.u.

 SYSTEM =  unknown system                          
 POSCAR =  Cr2 P2 Se6                              

 Startparameter for this run:
   NWRITE =      2    write-flag & timer
   PREC   = accura    normal or accurate (medium, high low for compatibility)
   ISTART =      0    job   : 0-new  1-cont  2-samecut
   ICHARG =      2    charge: 1-file 2-atom 10-const
   ISPIN  =      2    spin polarized calculation?
   LNONCOLLINEAR =      F non collinear calculations
   LSORBIT =      F    spin-orbit coupling
   INIWAV =      1    electr: 0-lowe 1-rand  2-diag
   LASPH  =      F    aspherical Exc in radial PAW
   METAGGA=      F    non-selfconsistent MetaGGA calc.

 Electronic Relaxation 1
   ENCUT  =  520.0 eV  38.22 Ry    6.18 a.u.  12.84 12.84 43.59*2*pi/ulx,y,z
   ENINI  =  520.0     initial cutoff
   ENAUG  =  446.8 eV  augmentation charge cutoff
   NELM   =    400;   NELMIN=  2; NELMDL=  0     # of ELM steps 
   EDIFF  = 0.1E-03   stopping-criterion for ELM
   LREAL  =      T    real-space projection
   NLSPLINE    = F    spline interpolate recip. space projectors
   LCOMPAT=      F    compatible to vasp.4.4
   GGA_COMPAT  = T    GGA compatible to vasp.4.4-vasp.4.6
   LMAXPAW     = -100 max onsite density
   LMAXMIX     =    2 max onsite mixed and CHGCAR
   VOSKOWN=      0    Vosko Wilk Nusair interpolation
   ROPT   =   -0.00025  -0.00025  -0.00025
 Ionic relaxation
   EDIFFG = 0.1E-02   stopping-criterion for IOM
   NSW    =     99    number of steps for IOM
   NBLOCK =      1;   KBLOCK =     99    inner block; outer block 
   IBRION =      2    ionic relax: 0-MD 1-quasi-New 2-CG
   NFREE  =      1    steps in history (QN), initial steepest desc. (CG)
   ISIF   =      3    stress and relaxation
   IWAVPR =     11    prediction:  0-non 1-charg 2-wave 3-comb
   ISYM   =      2    0-nonsym 1-usesym 2-fastsym
   LCORR  =      T    Harris-Foulkes like correction to forces

   POTIM  = 0.5000    time-step for ionic-motion
   TEIN   =    0.0    initial temperature
   TEBEG  =    0.0;   TEEND  =   0.0 temperature during run
   SMASS  =  -3.00    Nose mass-parameter (am)
   estimated Nose-frequenzy (Omega)   =  0.10E-29 period in steps =****** mass=  -0.109E-26a.u.
   SCALEE = 1.0000    scale energy and forces
   NPACO  =    256;   APACO  = 16.0  distance and # of slots for P.C.
   PSTRESS=    0.0 pullay stress

  Mass of Ions in am
   POMASS =  52.00 30.97 78.96
  Ionic Valenz
   ZVAL   =   6.00  5.00  6.00
  Atomic Wigner-Seitz radii
   RWIGS  =  -1.00 -1.00 -1.00
  virtual crystal weights 
   VCA    =   1.00  1.00  1.00
   NELECT =      58.0000    total number of electrons
   NUPDOWN=      -1.0000    fix difference up-down

 DOS related values:
   EMIN   =  10.00;   EMAX   =-10.00  energy-range for DOS
   EFERMI =   0.00
   ISMEAR =    -5;   SIGMA  =   0.05  broadening in eV -4-tet -1-fermi 0-gaus

 Electronic relaxation 2 (details)
   IALGO  =     38    algorithm
   LDIAG  =      T    sub-space diagonalisation (order eigenvalues)
   LSUBROT=      F    optimize rotation matrix (better conditioning)
   TURBO    =      0    0=normal 1=particle mesh
   IRESTART =      0    0=no restart 2=restart with 2 vectors
   NREBOOT  =      0    no. of reboots
   NMIN     =      0    reboot dimension
   EREF     =   0.00    reference energy to select bands
   IMIX   =      4    mixing-type and parameters
     AMIX     =   0.40;   BMIX     =  1.00
     AMIX_MAG =   1.60;   BMIX_MAG =  1.00
     AMIN     =   0.01
     WC   =   100.;   INIMIX=   1;  MIXPRE=   1;  MAXMIX= -45

 Intra band minimization:
   WEIMIN = 0.0010     energy-eigenvalue tresh-hold
   EBREAK =  0.63E-06  absolut break condition
   DEPER  =   0.30     relativ break condition  

   TIME   =   0.40     timestep for ELM

  volume/ion in A,a.u.               =      96.88       653.80
  Fermi-wavevector in a.u.,A,eV,Ry     =   0.640424  1.210226  5.580332  0.410143
  Thomas-Fermi vector in A             =   1.706427

 Write flags
   LWAVE        =      F    write WAVECAR
   LDOWNSAMPLE  =      F    k-point downsampling of WAVECAR
   LCHARG       =      T    write CHGCAR
   LVTOT        =      F    write LOCPOT, total local potential
   LVHAR        =      F    write LOCPOT, Hartree potential only
   LELF         =      F    write electronic localiz. function (ELF)
   LORBIT       =     11    0 simple, 1 ext, 2 COOP (PROOUT), +10 PAW based schemes


 Dipole corrections
   LMONO  =      F    monopole corrections only (constant potential shift)
   LDIPOL =      F    correct potential (dipole corrections)
   IDIPOL =      0    1-x, 2-y, 3-z, 4-all directions 
   EPSILON=  1.0000000 bulk dielectric constant

 Exchange correlation treatment:
   GGA     =    BO    GGA type
   LEXCH   =    42    internal setting for exchange type
   VOSKOWN=      0    Vosko Wilk Nusair interpolation
   LHFCALC =     F    Hartree Fock is set to
   LHFONE  =     F    Hartree Fock one center treatment
   AEXX    =    0.0000 exact exchange contribution

 vdW DFT:
   LUSE_VDW   =     T    switch on vdW DFT
   Zab_VDW    =-.8491    correlation parameter
   PARAM1     =0.1833
   PARAM2     =0.2200
   PARAM3     =0.0000
   -- rVV10 --
   BPARAM     = 6.3000
   CPARAM     = 0.0093

 Linear response parameters
   LEPSILON=     F    determine dielectric tensor
   LRPA    =     F    only Hartree local field effects (RPA)
   LNABLA  =     F    use nabla operator in PAW spheres
   LVEL    =     F    velocity operator in full k-point grid
   LINTERFAST=   F  fast interpolation
   KINTER  =     0    interpolate to denser k-point grid
   CSHIFT  =0.1000    complex shift for real part using Kramers Kronig
   OMEGAMAX=  -1.0    maximum frequency
   DEG_THRESHOLD= 0.2000000E-02 threshold for treating states as degnerate
   RTIME   =   -0.100 relaxation time in fs
  (WPLASMAI=    0.000 imaginary part of plasma frequency in eV, 0.658/RTIME)
   DFIELD  = 0.0000000 0.0000000 0.0000000 field for delta impulse in time

 Orbital magnetization related:
   ORBITALMAG=     F  switch on orbital magnetization
   LCHIMAG   =     F  perturbation theory with respect to B field
   DQ        =  0.001000  dq finite difference perturbation B field
   LLRAUG    =     F  two centre corrections for induced B field



--------------------------------------------------------------------------------------------------------


 conjugate gradient relaxation of ions
   using selective dynamics as specified on POSCAR
 charge density and potential will be updated during run
 spin polarized calculation
 Variant of blocked Davidson
 Davidson routine will perform the subspace rotation
 perform sub-space diagonalisation
    after iterative eigenvector-optimisation
 modified Broyden-mixing scheme, WC =      100.0
 initial mixing is a Kerker type mixing with AMIX =  0.4000 and BMIX =      1.0000
 Hartree-type preconditioning will be used
 using additional bands           11
 real space projection scheme for non local part
 use partial core corrections
 calculate Harris-corrections to forces   (improved forces if not selfconsistent)
 use gradient corrections 
 use of overlap-Matrix (Vanderbilt PP)
 Fermi weights with tetrahedron method with Bloechl corrections


--------------------------------------------------------------------------------------------------------


  energy-cutoff  :      520.00
  volume of cell :      968.84
      direct lattice vectors                 reciprocal lattice vectors
     6.907777000 -0.000000000  0.000000000     0.144764372 -0.083579742  0.000000000
     3.453888000  5.982310000  0.000000000     0.000000000  0.167159509 -0.000000000
     0.000000000  0.000000000 23.444588000    -0.000000000  0.000000000  0.042653767

  length of vectors
     6.907777000  6.907776433 23.444588000     0.167159495  0.167159509  0.042653767



 k-points in units of 2pi/SCALE and weight: Kpoints from vasprun.xml                
   0.00000000  0.00000000  0.00000000       0.040
   0.02895287 -0.01671595  0.00000000       0.240
   0.05790575 -0.03343190  0.00000000       0.240
   0.05790575  0.00000000  0.00000000       0.240
  -0.05790575  0.06686380  0.00000000       0.240

 k-points in reciprocal lattice and weights: Kpoints from vasprun.xml                
   0.00000000  0.00000000  0.00000000       0.040
   0.20000000  0.00000000  0.00000000       0.240
   0.40000000  0.00000000  0.00000000       0.240
   0.40000000  0.20000000  0.00000000       0.240
  -0.40000000  0.20000000  0.00000000       0.240

 position of ions in fractional coordinates (direct lattice) 
   0.33333300  0.33333300  0.49992500
   0.66666700  0.66666700  0.50007500
   0.00000000  0.00000000  0.44821600
   0.00000000  0.00000000  0.55178400
   0.62635700  0.00042000  0.57375200
   0.00042000  0.37322400  0.57375200
   0.37322400  0.62635700  0.57375200
   0.37364300  0.99958000  0.42624800
   0.99958000  0.62677600  0.42624800
   0.62677600  0.37364300  0.42624800

 position of ions in cartesian coordinates  (Angst):
   3.45388488  1.99410134 11.72053566
   6.90778012  3.98820866 11.72405234
   0.00000000  0.00000000 10.50823946
   0.00000000  0.00000000 12.93634854
   4.32818511  0.00251257 13.45137925
   1.29197516  2.23274167 13.45137925
   4.74151509  3.74706174 13.45137925
   6.03347989  5.97979743  9.99320875
   9.06968984  3.74956833  9.99320875
   5.62014991  2.23524826  9.99320875



--------------------------------------------------------------------------------------------------------


 k-point  1 :   0.0000 0.0000 0.0000  plane waves:   26073
 k-point  2 :   0.2000 0.0000 0.0000  plane waves:   26070
 k-point  3 :   0.4000 0.0000 0.0000  plane waves:   26086
 k-point  4 :   0.4000 0.2000 0.0000  plane waves:   26085
 k-point  5 :  -0.4000 0.2000 0.0000  plane waves:   26115

 maximum and minimum number of plane-waves per node :     26115    26070

 maximum number of plane-waves:     26115
 maximum index in each direction: 
   IXMAX=   13   IYMAX=   12   IZMAX=   43
   IXMIN=  -13   IYMIN=  -13   IZMIN=  -43


 serial   3D FFT for wavefunctions
 parallel 3D FFT for charge:
    minimum data exchange during FFTs selected (reduces bandwidth)


 total amount of memory used by VASP MPI-rank0   168852. kBytes
=======================================================================

   base      :      30000. kBytes
   nonlr-proj:       7052. kBytes
   fftplans  :      20284. kBytes
   grid      :      90201. kBytes
   one-center:        311. kBytes
   wavefun   :      21004. kBytes

     INWAV:  cpu time    0.0000: real time    0.0004
 Broyden mixing: mesh for mixing (old mesh)
   NGX = 25   NGY = 25   NGZ = 87
  (NGX  =108   NGY  =108   NGZ  =360)
  gives a total of  54375 points

 initial charge density was supplied:
 charge density of overlapping atoms calculated
 number of electron      58.0000000 magnetization       6.0000000
 keeping initial charge density in first step


--------------------------------------------------------------------------------------------------------


 Maximum index for non-local projection operator         7247
 Maximum index for augmentation-charges         3407 (set IRDMAX)


--------------------------------------------------------------------------------------------------------


 First call to EWALD:  gamma=   0.179
 Maximum number of real-space cells 4x 4x 1
 Maximum number of reciprocal cells 2x 2x 6

    FEWALD:  cpu time    0.0040: real time    0.0014


--------------------------------------- Iteration      1(   1)  ---------------------------------------


vdW kernel read from vdw_kernel.bindat
  0.0000  0.2424  0.5071  0.7962  1.1119  1.4567  1.8333  2.2446  2.6937  3.1842
  3.7199  4.3049  4.9438  5.6415  6.4036  7.2358  8.1446  9.1372 10.2212 11.4050
 12.6979 14.1099 15.6519 17.3360 19.1751 21.1837 23.3773 25.7729 28.3892 31.2465
 34.3669 37.7748 41.4965 45.5611 50.0000

    POTLOK:  cpu time   99.6120: real time  100.4082
    SETDIJ:  cpu time    0.0600: real time    0.0630
     EDDAV:  cpu time   31.5400: real time   31.6953
 BZINTS: Fermi energy:  6.233502; 58.000000 electrons
         Band energy:  21.434670;  BLOECHL correction: -0.064621
       DOS:  cpu time    0.0040: real time    0.0046
    --------------------------------------------
      LOOP:  cpu time  131.2160: real time  132.1712

 eigenvalue-minimisations  :   800
 total energy-change (2. order) : 0.4533192E+03  (-0.1661970E+04)
 number of electron      58.0000000 magnetization       6.0000000
 augmentation part       58.0000000 magnetization       6.0000000

 Free energy of the ion-electron system (eV)
  ---------------------------------------------------
  alpha Z        PSCENC =        31.50926878
  Ewald energy   TEWEN  =      6462.22987265
  -Hartree energ DENC   =     -8622.78498877
  -exchange      EXHF   =         0.00000000
  -V(xc)+E(xc)   XCENC  =       -45.07573378
  PAW double counting   =      1183.18008455    -1036.84271688
  entropy T*S    EENTRO =         0.00000000
  eigenvalues    EBANDS =        21.43467000
  atomic energy  EATOM  =      2459.66876574
  Solvation  Ediel_sol  =         0.00000000
  ---------------------------------------------------
  free energy    TOTEN  =       453.31922229 eV

  energy without entropy =      453.31922229  energy(sigma->0) =      453.31922229


--------------------------------------------------------------------------------------------------------




--------------------------------------- Iteration      1(   2)  ---------------------------------------


     EDDAV:  cpu time   34.2960: real time   34.4980
 BZINTS: Fermi energy: -0.120437; 58.000000 electrons
         Band energy:-381.284569;  BLOECHL correction: -0.113536
       DOS:  cpu time    0.0040: real time    0.0042
    --------------------------------------------
      LOOP:  cpu time   34.3000: real time   34.5021

 eigenvalue-minimisations  :  1048
 total energy-change (2. order) :-0.4027192E+03  (-0.3845609E+03)
 number of electron      58.0000000 magnetization       6.0000000
 augmentation part       58.0000000 magnetization       6.0000000

 Free energy of the ion-electron system (eV)
  ---------------------------------------------------
  alpha Z        PSCENC =        31.50926878
  Ewald energy   TEWEN  =      6462.22987265
  -Hartree energ DENC   =     -8622.78498877
  -exchange      EXHF   =         0.00000000
  -V(xc)+E(xc)   XCENC  =       -45.07573378
  PAW double counting   =      1183.18008455    -1036.84271688
  entropy T*S    EENTRO =         0.00000000
  eigenvalues    EBANDS =      -381.28456864
  atomic energy  EATOM  =      2459.66876574
  Solvation  Ediel_sol  =         0.00000000
  ---------------------------------------------------
  free energy    TOTEN  =        50.59998366 eV

  energy without entropy =       50.59998366  energy(sigma->0) =       50.59998366


--------------------------------------------------------------------------------------------------------




--------------------------------------- Iteration      1(   3)  ---------------------------------------


     EDDAV:  cpu time   26.4400: real time   26.5189
 BZINTS: Fermi energy: -2.226423; 58.000694 electrons
         Band energy:-475.492831;  BLOECHL correction: -0.000143
       DOS:  cpu time    0.0040: real time    0.0051
    --------------------------------------------
      LOOP:  cpu time   26.4440: real time   26.5240

 eigenvalue-minimisations  :  1120
 total energy-change (2. order) :-0.9420826E+02  (-0.9088429E+02)
 number of electron      58.0000000 magnetization       6.0000000
 augmentation part       58.0000000 magnetization       6.0000000

 Free energy of the ion-electron system (eV)
  ---------------------------------------------------
  alpha Z        PSCENC =        31.50926878
  Ewald energy   TEWEN  =      6462.22987265
  -Hartree energ DENC   =     -8622.78498877
  -exchange      EXHF   =         0.00000000
  -V(xc)+E(xc)   XCENC  =       -45.07573378
  PAW double counting   =      1183.18008455    -1036.84271688
  entropy T*S    EENTRO =         0.00000000
  eigenvalues    EBANDS =      -475.49283098
  atomic energy  EATOM  =      2459.66876574
  Solvation  Ediel_sol  =         0.00000000
  ---------------------------------------------------
  free energy    TOTEN  =       -43.60827869 eV

  energy without entropy =      -43.60827869  energy(sigma->0) =      -43.60827869


--------------------------------------------------------------------------------------------------------




--------------------------------------- Iteration      1(   4)  ---------------------------------------


     EDDAV:  cpu time   27.2240: real time   27.4035
 BZINTS: Fermi energy: -2.289324; 58.000000 electrons
         Band energy:-483.121661;  BLOECHL correction: -0.001263
       DOS:  cpu time    0.0040: real time    0.0039
    --------------------------------------------
      LOOP:  cpu time   27.2280: real time   27.4074

 eigenvalue-minimisations  :  1152
 total energy-change (2. order) :-0.7628830E+01  (-0.7268522E+01)
 number of electron      58.0000000 magnetization       6.0000000
 augmentation part       58.0000000 magnetization       6.0000000

 Free energy of the ion-electron system (eV)
  ---------------------------------------------------
  alpha Z        PSCENC =        31.50926878
  Ewald energy   TEWEN  =      6462.22987265
  -Hartree energ DENC   =     -8622.78498877
  -exchange      EXHF   =         0.00000000
  -V(xc)+E(xc)   XCENC  =       -45.07573378
  PAW double counting   =      1183.18008455    -1036.84271688
  entropy T*S    EENTRO =         0.00000000
  eigenvalues    EBANDS =      -483.12166059
  atomic energy  EATOM  =      2459.66876574
  Solvation  Ediel_sol  =         0.00000000
  ---------------------------------------------------
  free energy    TOTEN  =       -51.23710830 eV

  energy without entropy =      -51.23710830  energy(sigma->0) =      -51.23710830


--------------------------------------------------------------------------------------------------------




--------------------------------------- Iteration      1(   5)  ---------------------------------------


     EDDAV:  cpu time   27.6400: real time   27.8794
 BZINTS: Fermi energy: -2.304301; 58.000000 electrons
         Band energy:-483.487274;  BLOECHL correction: -0.001550
       DOS:  cpu time    0.0040: real time    0.0045
    CHARGE:  cpu time    2.0720: real time    2.0698
    MIXING:  cpu time    0.0440: real time    0.0455
    --------------------------------------------
      LOOP:  cpu time   29.7600: real time   29.9993

 eigenvalue-minimisations  :  1176
 total energy-change (2. order) :-0.3656138E+00  (-0.3486240E+00)
 number of electron      57.9999993 magnetization       5.7855625
 augmentation part       -5.9409492 magnetization       3.9158764

 Broyden mixing:
  rms(total) = 0.20619E+01    rms(broyden)= 0.20619E+01
  rms(prec ) = 0.23141E+01
  weight for this iteration     100.00

 Free energy of the ion-electron system (eV)
  ---------------------------------------------------
  alpha Z        PSCENC =        31.50926878
  Ewald energy   TEWEN  =      6462.22987265
  -Hartree energ DENC   =     -8622.78498877
  -exchange      EXHF   =         0.00000000
  -V(xc)+E(xc)   XCENC  =       -45.07573378
  PAW double counting   =      1183.18008455    -1036.84271688
  entropy T*S    EENTRO =         0.00000000
  eigenvalues    EBANDS =      -483.48727442
  atomic energy  EATOM  =      2459.66876574
  Solvation  Ediel_sol  =         0.00000000
  ---------------------------------------------------
  free energy    TOTEN  =       -51.60272213 eV

  energy without entropy =      -51.60272213  energy(sigma->0) =      -51.60272213


--------------------------------------------------------------------------------------------------------




--------------------------------------- Iteration      1(   6)  ---------------------------------------


    POTLOK:  cpu time  103.3160: real time  104.0462
    SETDIJ:  cpu time    0.0560: real time    0.0569
     EDDAV:  cpu time   28.9040: real time   29.3729
 BZINTS: Fermi energy: -4.950301; 58.000000 electrons
         Band energy:-586.015149;  BLOECHL correction: -0.057389
       DOS:  cpu time    0.0040: real time    0.0054
    CHARGE:  cpu time    2.1440: real time    2.1641
    MIXING:  cpu time    0.0480: real time    0.0489
    --------------------------------------------
      LOOP:  cpu time  134.4720: real time  135.6945

 eigenvalue-minimisations  :  1248
 total energy-change (2. order) :-0.5405090E+02  (-0.2447653E+02)
 number of electron      57.9999991 magnetization       5.6636672
 augmentation part        7.3526134 magnetization       4.4138028

 Broyden mixing:
  rms(total) = 0.59459E+01    rms(broyden)= 0.59459E+01
  rms(prec ) = 0.66853E+01
  weight for this iteration     100.00

 eigenvalues of (default mixing * dielectric matrix)
  average eigenvalue GAMMA=   0.2311
  0.2311

 Free energy of the ion-electron system (eV)
  ---------------------------------------------------
  alpha Z        PSCENC =        31.50926878
  Ewald energy   TEWEN  =      6462.22987265
  -Hartree energ DENC   =     -8582.33192834
  -exchange      EXHF   =         0.00000000
  -V(xc)+E(xc)   XCENC  =       -45.24069866
  PAW double counting   =      1125.41306205     -970.88681037
  entropy T*S    EENTRO =         0.00000000
  eigenvalues    EBANDS =      -586.01514935
  atomic energy  EATOM  =      2459.66876574
  Solvation  Ediel_sol  =         0.00000000
  ---------------------------------------------------
  free energy    TOTEN  =      -105.65361751 eV

  energy without entropy =     -105.65361751  energy(sigma->0) =     -105.65361751


--------------------------------------------------------------------------------------------------------




--------------------------------------- Iteration      1(   7)  ---------------------------------------


    POTLOK:  cpu time  102.1760: real time  103.3654
    SETDIJ:  cpu time    0.0560: real time    0.0546
     EDDAV:  cpu time   26.1360: real time   26.3217
 BZINTS: Fermi energy: -3.473490; 58.000000 electrons
         Band energy:-481.894018;  BLOECHL correction: -0.053330
       DOS:  cpu time    0.0040: real time    0.0047
    CHARGE:  cpu time    2.0800: real time    2.1117
    MIXING:  cpu time    0.0520: real time    0.0533
    --------------------------------------------
      LOOP:  cpu time  130.5040: real time  131.9113

 eigenvalue-minimisations  :  1096
 total energy-change (2. order) : 0.6324314E+02  (-0.1023524E+02)
 number of electron      57.9999992 magnetization       5.6711519
 augmentation part       -2.6856256 magnetization       3.0701157

 Broyden mixing:
  rms(total) = 0.13281E+01    rms(broyden)= 0.13280E+01
  rms(prec ) = 0.13339E+01
  weight for this iteration     100.00

 eigenvalues of (default mixing * dielectric matrix)
  average eigenvalue GAMMA=   0.2896
  0.3578  0.2215

 Free energy of the ion-electron system (eV)
  ---------------------------------------------------
  alpha Z        PSCENC =        31.50926878
  Ewald energy   TEWEN  =      6462.22987265
  -Hartree energ DENC   =     -8614.58435988
  -exchange      EXHF   =         0.00000000
  -V(xc)+E(xc)   XCENC  =       -45.85085313
  PAW double counting   =      1187.83827293    -1041.32742390
  entropy T*S    EENTRO =         0.00000000
  eigenvalues    EBANDS =      -481.89401817
  atomic energy  EATOM  =      2459.66876574
  Solvation  Ediel_sol  =         0.00000000
  ---------------------------------------------------
  free energy    TOTEN  =       -42.41047499 eV

  energy without entropy =      -42.41047499  energy(sigma->0) =      -42.41047499


--------------------------------------------------------------------------------------------------------




--------------------------------------- Iteration      1(   8)  ---------------------------------------


    POTLOK:  cpu time  102.4320: real time  103.3580
    SETDIJ:  cpu time    0.0600: real time    0.0599
     EDDAV:  cpu time   22.7320: real time   22.9258
 BZINTS: Fermi energy: -3.555517; 58.000000 electrons
         Band energy:-485.345659;  BLOECHL correction: -0.017289
       DOS:  cpu time    0.0040: real time    0.0047
    CHARGE:  cpu time    2.0360: real time    2.1207
    MIXING:  cpu time    0.0480: real time    0.0512
    --------------------------------------------
      LOOP:  cpu time  127.3120: real time  128.5204

 eigenvalue-minimisations  :   912
 total energy-change (2. order) :-0.2570429E+01  (-0.1414709E+01)
 number of electron      57.9999992 magnetization       5.6802496
 augmentation part       -3.0063865 magnetization       3.2401453

 Broyden mixing:
  rms(total) = 0.87903E+00    rms(broyden)= 0.87903E+00
  rms(prec ) = 0.89018E+00
  weight for this iteration     100.00

 eigenvalues of (default mixing * dielectric matrix)
  average eigenvalue GAMMA=   0.4824
  0.5993  0.5993  0.2486

 Free energy of the ion-electron system (eV)
  ---------------------------------------------------
  alpha Z        PSCENC =        31.50926878
  Ewald energy   TEWEN  =      6462.22987265
  -Hartree energ DENC   =     -8614.13536936
  -exchange      EXHF   =         0.00000000
  -V(xc)+E(xc)   XCENC  =       -45.32809296
  PAW double counting   =      1188.42183614    -1042.00152606
  entropy T*S    EENTRO =         0.00000000
  eigenvalues    EBANDS =      -485.34565942
  atomic energy  EATOM  =      2459.66876574
  Solvation  Ediel_sol  =         0.00000000
  ---------------------------------------------------
  free energy    TOTEN  =       -44.98090447 eV

  energy without entropy =      -44.98090447  energy(sigma->0) =      -44.98090447


--------------------------------------------------------------------------------------------------------




--------------------------------------- Iteration      1(   9)  ---------------------------------------


    POTLOK:  cpu time  108.1320: real time  109.0293
    SETDIJ:  cpu time    0.0560: real time    0.0541
     EDDAV:  cpu time   29.3200: real time   29.5474
 BZINTS: Fermi energy: -3.530359; 58.000000 electrons
         Band energy:-484.525069;  BLOECHL correction: -0.018278
       DOS:  cpu time    0.0000: real time    0.0047
    CHARGE:  cpu time    2.1240: real time    2.1780
    MIXING:  cpu time    0.0480: real time    0.0502
    --------------------------------------------
      LOOP:  cpu time  139.6800: real time  140.8636

 eigenvalue-minimisations  :  1264
 total energy-change (2. order) :-0.5179989E+00  (-0.1868632E+00)
 number of electron      57.9999992 magnetization       5.7157131
 augmentation part       -2.8664818 magnetization       3.5895151

 Broyden mixing:
  rms(total) = 0.61112E+00    rms(broyden)= 0.61112E+00
  rms(prec ) = 0.61783E+00
  weight for this iteration     100.00

 eigenvalues of (default mixing * dielectric matrix)
  average eigenvalue GAMMA=   0.7398
  1.0948  1.0948  0.2456  0.5240

 Free energy of the ion-electron system (eV)
  ---------------------------------------------------
  alpha Z        PSCENC =        31.50926878
  Ewald energy   TEWEN  =      6462.22987265
  -Hartree energ DENC   =     -8616.15426201
  -exchange      EXHF   =         0.00000000
  -V(xc)+E(xc)   XCENC  =       -44.44048846
  PAW double counting   =      1196.13889992    -1049.92589110
  entropy T*S    EENTRO =         0.00000000
  eigenvalues    EBANDS =      -484.52506888
  atomic energy  EATOM  =      2459.66876574
  Solvation  Ediel_sol  =         0.00000000
  ---------------------------------------------------
  free energy    TOTEN  =       -45.49890337 eV

  energy without entropy =      -45.49890337  energy(sigma->0) =      -45.49890337


--------------------------------------------------------------------------------------------------------




--------------------------------------- Iteration      1(  10)  ---------------------------------------


    POTLOK:  cpu time   96.8680: real time   97.6865
    SETDIJ:  cpu time    0.0600: real time    0.0599
     EDDAV:  cpu time   28.9560: real time   29.0871
 BZINTS: Fermi energy: -3.540685; 58.000000 electrons
         Band energy:-483.737400;  BLOECHL correction: -0.019190
       DOS:  cpu time    0.0040: real time    0.0043
    CHARGE:  cpu time    2.4080: real time    2.4089
    MIXING:  cpu time    0.1080: real time    0.1069
    --------------------------------------------
      LOOP:  cpu time  128.4040: real time  129.3536

 eigenvalue-minimisations  :  1232
 total energy-change (2. order) :-0.2252025E+00  (-0.4146201E-01)
 number of electron      57.9999992 magnetization       5.7504468
 augmentation part       -2.5995769 magnetization       4.0599592

 Broyden mixing:
  rms(total) = 0.19716E+00    rms(broyden)= 0.19716E+00
  rms(prec ) = 0.19915E+00
  weight for this iteration     100.00

 eigenvalues of (default mixing * dielectric matrix)
  average eigenvalue GAMMA=   0.8867
  1.4659  1.4659  0.2457  0.6279  0.6279

 Free energy of the ion-electron system (eV)
  ---------------------------------------------------
  alpha Z        PSCENC =        31.50926878
  Ewald energy   TEWEN  =      6462.22987265
  -Hartree energ DENC   =     -8618.44555015
  -exchange      EXHF   =         0.00000000
  -V(xc)+E(xc)   XCENC  =       -42.73358417
  PAW double counting   =      1201.40949276    -1055.62497182
  entropy T*S    EENTRO =         0.00000000
  eigenvalues    EBANDS =      -483.73739962
  atomic energy  EATOM  =      2459.66876574
  Solvation  Ediel_sol  =         0.00000000
  ---------------------------------------------------
  free energy    TOTEN  =       -45.72410583 eV

  energy without entropy =      -45.72410583  energy(sigma->0) =      -45.72410583


--------------------------------------------------------------------------------------------------------




--------------------------------------- Iteration      1(  11)  ---------------------------------------


    POTLOK:  cpu time   99.7360: real time   99.9801
    SETDIJ:  cpu time    0.0600: real time    0.0577
     EDDAV:  cpu time   47.5680: real time   48.3606
 BZINTS: Fermi energy: -3.549665; 58.000000 electrons
         Band energy:-484.159324;  BLOECHL correction: -0.019512
       DOS:  cpu time    0.0040: real time    0.0060
    CHARGE:  cpu time    3.5680: real time    3.6153
    MIXING:  cpu time    0.0960: real time    0.0969
    --------------------------------------------
      LOOP:  cpu time  151.0320: real time  152.1167

 eigenvalue-minimisations  :  1256
 total energy-change (2. order) :-0.5322439E-01  (-0.8604852E-02)
 number of electron      57.9999992 magnetization       5.7907014
 augmentation part       -2.5984657 magnetization       4.2572892

 Broyden mixing:
  rms(total) = 0.78649E-01    rms(broyden)= 0.78648E-01
  rms(prec ) = 0.80060E-01
  weight for this iteration     100.00

 eigenvalues of (default mixing * dielectric matrix)
  average eigenvalue GAMMA=   0.9881
  1.7637  1.7637  0.2457  0.7823  0.7823  0.5908

 Free energy of the ion-electron system (eV)
  ---------------------------------------------------
  alpha Z        PSCENC =        31.50926878
  Ewald energy   TEWEN  =      6462.22987265
  -Hartree energ DENC   =     -8618.71895419
  -exchange      EXHF   =         0.00000000
  -V(xc)+E(xc)   XCENC  =       -42.00034404
  PAW double counting   =      1201.68314827    -1055.98976331
  entropy T*S    EENTRO =         0.00000000
  eigenvalues    EBANDS =      -484.15932411
  atomic energy  EATOM  =      2459.66876574
  Solvation  Ediel_sol  =         0.00000000
  ---------------------------------------------------
  free energy    TOTEN  =       -45.77733022 eV

  energy without entropy =      -45.77733022  energy(sigma->0) =      -45.77733022


--------------------------------------------------------------------------------------------------------




--------------------------------------- Iteration      1(  12)  ---------------------------------------


    POTLOK:  cpu time   98.2920: real time   98.6020
    SETDIJ:  cpu time    0.0840: real time    0.0849
     EDDAV:  cpu time   45.2080: real time   45.7100
 BZINTS: Fermi energy: -3.564754; 58.000000 electrons
         Band energy:-484.787543;  BLOECHL correction: -0.019546
       DOS:  cpu time    0.0040: real time    0.0045
    CHARGE:  cpu time    3.2440: real time    3.3362
    MIXING:  cpu time    0.0720: real time    0.0690
    --------------------------------------------
      LOOP:  cpu time  146.9040: real time  147.8065

 eigenvalue-minimisations  :  1112
 total energy-change (2. order) :-0.1003554E-02  (-0.1687549E-02)
 number of electron      57.9999992 magnetization       5.8236053
 augmentation part       -2.6249995 magnetization       4.3248357

 Broyden mixing:
  rms(total) = 0.25138E-01    rms(broyden)= 0.25138E-01
  rms(prec ) = 0.26019E-01
  weight for this iteration     100.00

 eigenvalues of (default mixing * dielectric matrix)
  average eigenvalue GAMMA=   1.0719
  2.3816  1.4437  1.4437  0.2457  0.7054  0.7054  0.5779

 Free energy of the ion-electron system (eV)
  ---------------------------------------------------
  alpha Z        PSCENC =        31.50926878
  Ewald energy   TEWEN  =      6462.22987265
  -Hartree energ DENC   =     -8618.24740358
  -exchange      EXHF   =         0.00000000
  -V(xc)+E(xc)   XCENC  =       -41.74014208
  PAW double counting   =      1199.90159704    -1054.31274949
  entropy T*S    EENTRO =         0.00000000
  eigenvalues    EBANDS =      -484.78754283
  atomic energy  EATOM  =      2459.66876574
  Solvation  Ediel_sol  =         0.00000000
  ---------------------------------------------------
  free energy    TOTEN  =       -45.77833377 eV

  energy without entropy =      -45.77833377  energy(sigma->0) =      -45.77833377


--------------------------------------------------------------------------------------------------------




--------------------------------------- Iteration      1(  13)  ---------------------------------------


    POTLOK:  cpu time  100.2800: real time  100.5202
    SETDIJ:  cpu time    0.0880: real time    0.0858
     EDDAV:  cpu time   48.3520: real time   49.0263
 BZINTS: Fermi energy: -3.568181; 58.000000 electrons
         Band energy:-485.096905;  BLOECHL correction: -0.019474
       DOS:  cpu time    0.0040: real time    0.0058
    CHARGE:  cpu time    3.4480: real time    3.6337
    MIXING:  cpu time    0.0840: real time    0.0816
    --------------------------------------------
      LOOP:  cpu time  152.2560: real time  153.3534

 eigenvalue-minimisations  :  1160
 total energy-change (2. order) :-0.1341421E-02  (-0.3621835E-03)
 number of electron      57.9999992 magnetization       5.8473759
 augmentation part       -2.6303134 magnetization       4.3615431

 Broyden mixing:
  rms(total) = 0.15704E-01    rms(broyden)= 0.15704E-01
  rms(prec ) = 0.16286E-01
  weight for this iteration     100.00

 eigenvalues of (default mixing * dielectric matrix)
  average eigenvalue GAMMA=   1.0729
  2.1865  1.6897  1.5921  0.2457  0.8158  0.8158  0.5910  0.6467

 Free energy of the ion-electron system (eV)
  ---------------------------------------------------
  alpha Z        PSCENC =        31.50926878
  Ewald energy   TEWEN  =      6462.22987265
  -Hartree energ DENC   =     -8618.01631829
  -exchange      EXHF   =         0.00000000
  -V(xc)+E(xc)   XCENC  =       -41.67939446
  PAW double counting   =      1199.50348427    -1053.89844939
  entropy T*S    EENTRO =         0.00000000
  eigenvalues    EBANDS =      -485.09690450
  atomic energy  EATOM  =      2459.66876574
  Solvation  Ediel_sol  =         0.00000000
  ---------------------------------------------------
  free energy    TOTEN  =       -45.77967519 eV

  energy without entropy =      -45.77967519  energy(sigma->0) =      -45.77967519


--------------------------------------------------------------------------------------------------------




--------------------------------------- Iteration      1(  14)  ---------------------------------------


    POTLOK:  cpu time   99.5520: real time  100.6148
    SETDIJ:  cpu time    0.0560: real time    0.0565
     EDDAV:  cpu time   29.9240: real time   30.0883
 BZINTS: Fermi energy: -3.565784; 58.000000 electrons
         Band energy:-485.079052;  BLOECHL correction: -0.019371
       DOS:  cpu time    0.0040: real time    0.0048
    CHARGE:  cpu time    2.0440: real time    2.0604
    MIXING:  cpu time    0.0640: real time    0.0652
    --------------------------------------------
      LOOP:  cpu time  131.6440: real time  132.8900

 eigenvalue-minimisations  :  1088
 total energy-change (2. order) :-0.2865686E-02  (-0.1635491E-03)
 number of electron      57.9999992 magnetization       5.8737293
 augmentation part       -2.6270405 magnetization       4.3718515

 Broyden mixing:
  rms(total) = 0.18219E-01    rms(broyden)= 0.18219E-01
  rms(prec ) = 0.18471E-01
  weight for this iteration     100.00

 eigenvalues of (default mixing * dielectric matrix)
  average eigenvalue GAMMA=   1.1183
  2.2353  2.2353  1.3142  1.3142  0.2457  0.7572  0.7572  0.6029  0.6029

 Free energy of the ion-electron system (eV)
  ---------------------------------------------------
  alpha Z        PSCENC =        31.50926878
  Ewald energy   TEWEN  =      6462.22987265
  -Hartree energ DENC   =     -8617.96860819
  -exchange      EXHF   =         0.00000000
  -V(xc)+E(xc)   XCENC  =       -41.75660812
  PAW double counting   =      1199.12531124    -1053.51149130
  entropy T*S    EENTRO =         0.00000000
  eigenvalues    EBANDS =      -485.07905168
  atomic energy  EATOM  =      2459.66876574
  Solvation  Ediel_sol  =         0.00000000
  ---------------------------------------------------
  free energy    TOTEN  =       -45.78254088 eV

  energy without entropy =      -45.78254088  energy(sigma->0) =      -45.78254088


--------------------------------------------------------------------------------------------------------




--------------------------------------- Iteration      1(  15)  ---------------------------------------


    POTLOK:  cpu time   97.4760: real time   98.1162
    SETDIJ:  cpu time    0.0600: real time    0.0617
     EDDAV:  cpu time   22.2760: real time   22.5418
 BZINTS: Fermi energy: -3.560329; 58.000000 electrons
         Band energy:-484.872671;  BLOECHL correction: -0.019339
       DOS:  cpu time    0.0040: real time    0.0045
    CHARGE:  cpu time    2.0920: real time    2.0995
    MIXING:  cpu time    0.0560: real time    0.0569
    --------------------------------------------
      LOOP:  cpu time  121.9640: real time  122.8806

 eigenvalue-minimisations  :   888
 total energy-change (2. order) : 0.1345098E-02  (-0.1080144E-03)
 number of electron      57.9999992 magnetization       5.9189004
 augmentation part       -2.6201000 magnetization       4.4181922

 Broyden mixing:
  rms(total) = 0.15358E-01    rms(broyden)= 0.15358E-01
  rms(prec ) = 0.15542E-01
  weight for this iteration     100.00

 eigenvalues of (default mixing * dielectric matrix)
  average eigenvalue GAMMA=   1.2602
  2.8728  2.8728  1.5092  1.5092  0.2457  0.8407  0.8407  0.5845  0.6635  0.6635

 Free energy of the ion-electron system (eV)
  ---------------------------------------------------
  alpha Z        PSCENC =        31.50926878
  Ewald energy   TEWEN  =      6462.22987265
  -Hartree energ DENC   =     -8618.18907600
  -exchange      EXHF   =         0.00000000
  -V(xc)+E(xc)   XCENC  =       -41.73862943
  PAW double counting   =      1199.28111179    -1053.66983793
  entropy T*S    EENTRO =         0.00000000
  eigenvalues    EBANDS =      -484.87267137
  atomic energy  EATOM  =      2459.66876574
  Solvation  Ediel_sol  =         0.00000000
  ---------------------------------------------------
  free energy    TOTEN  =       -45.78119578 eV

  energy without entropy =      -45.78119578  energy(sigma->0) =      -45.78119578


--------------------------------------------------------------------------------------------------------




--------------------------------------- Iteration      1(  16)  ---------------------------------------


    POTLOK:  cpu time  102.8520: real time  103.6105
    SETDIJ:  cpu time    0.0560: real time    0.0562
     EDDAV:  cpu time   21.3440: real time   21.6242
 BZINTS: Fermi energy: -3.552996; 58.000000 electrons
         Band energy:-484.531432;  BLOECHL correction: -0.019296
       DOS:  cpu time    0.0040: real time    0.0046
    CHARGE:  cpu time    2.0280: real time    2.0413
    MIXING:  cpu time    0.0760: real time    0.0772
    --------------------------------------------
      LOOP:  cpu time  126.3600: real time  127.4140

 eigenvalue-minimisations  :   856
 total energy-change (2. order) : 0.4747106E-02  (-0.9512284E-04)
 number of electron      57.9999992 magnetization       5.9503424
 augmentation part       -2.6182565 magnetization       4.4504100

 Broyden mixing:
  rms(total) = 0.88810E-02    rms(broyden)= 0.88810E-02
  rms(prec ) = 0.91204E-02
  weight for this iteration     100.00

 eigenvalues of (default mixing * dielectric matrix)
  average eigenvalue GAMMA=   1.3645
  4.3683  2.6833  1.5638  1.5638  0.2457  0.9472  0.9472  0.7398  0.7398  0.5895
  0.6212

 Free energy of the ion-electron system (eV)
  ---------------------------------------------------
  alpha Z        PSCENC =        31.50926878
  Ewald energy   TEWEN  =      6462.22987265
  -Hartree energ DENC   =     -8618.55426811
  -exchange      EXHF   =         0.00000000
  -V(xc)+E(xc)   XCENC  =       -41.69787327
  PAW double counting   =      1199.44369180    -1053.84447442
  entropy T*S    EENTRO =         0.00000000
  eigenvalues    EBANDS =      -484.53143184
  atomic energy  EATOM  =      2459.66876574
  Solvation  Ediel_sol  =         0.00000000
  ---------------------------------------------------
  free energy    TOTEN  =       -45.77644867 eV

  energy without entropy =      -45.77644867  energy(sigma->0) =      -45.77644867


--------------------------------------------------------------------------------------------------------




--------------------------------------- Iteration      1(  17)  ---------------------------------------


    POTLOK:  cpu time  103.2760: real time  104.0366
    SETDIJ:  cpu time    0.0680: real time    0.0668
     EDDAV:  cpu time   22.6400: real time   22.7341
 BZINTS: Fermi energy: -3.549228; 58.000000 electrons
         Band energy:-484.338757;  BLOECHL correction: -0.019250
       DOS:  cpu time    0.0040: real time    0.0053
    CHARGE:  cpu time    2.0360: real time    2.0812
    MIXING:  cpu time    0.0640: real time    0.0625
    --------------------------------------------
      LOOP:  cpu time  128.0880: real time  128.9865

 eigenvalue-minimisations  :   920
 total energy-change (2. order) :-0.1972026E-02  (-0.3955624E-04)
 number of electron      57.9999992 magnetization       5.9778339
 augmentation part       -2.6217317 magnetization       4.4767334

 Broyden mixing:
  rms(total) = 0.48031E-02    rms(broyden)= 0.48031E-02
  rms(prec ) = 0.50318E-02
  weight for this iteration     100.00

 eigenvalues of (default mixing * dielectric matrix)
  average eigenvalue GAMMA=   1.5089
  6.1744  2.5482  1.5503  1.5503  1.5121  0.2457  0.9068  0.9068  0.7442  0.7442
  0.5888  0.6347

 Free energy of the ion-electron system (eV)
  ---------------------------------------------------
  alpha Z        PSCENC =        31.50926878
  Ewald energy   TEWEN  =      6462.22987265
  -Hartree energ DENC   =     -8618.76429555
  -exchange      EXHF   =         0.00000000
  -V(xc)+E(xc)   XCENC  =       -41.68211691
  PAW double counting   =      1199.45076648    -1053.85192481
  entropy T*S    EENTRO =         0.00000000
  eigenvalues    EBANDS =      -484.33875707
  atomic energy  EATOM  =      2459.66876574
  Solvation  Ediel_sol  =         0.00000000
  ---------------------------------------------------
  free energy    TOTEN  =       -45.77842070 eV

  energy without entropy =      -45.77842070  energy(sigma->0) =      -45.77842070


--------------------------------------------------------------------------------------------------------




--------------------------------------- Iteration      1(  18)  ---------------------------------------


    POTLOK:  cpu time  102.9880: real time  103.7542
    SETDIJ:  cpu time    0.0680: real time    0.0688
     EDDAV:  cpu time   21.6440: real time   22.1118
 BZINTS: Fermi energy: -3.545680; 58.000000 electrons
         Band energy:-484.173726;  BLOECHL correction: -0.019192
       DOS:  cpu time    0.0040: real time    0.0045
    CHARGE:  cpu time    2.0520: real time    2.0657
    MIXING:  cpu time    0.0680: real time    0.0688
    --------------------------------------------
      LOOP:  cpu time  126.8240: real time  128.0738

 eigenvalue-minimisations  :   880
 total energy-change (2. order) :-0.1672132E-02  (-0.3234871E-04)
 number of electron      57.9999992 magnetization       5.9913576
 augmentation part       -2.6216216 magnetization       4.4902072

 Broyden mixing:
  rms(total) = 0.20871E-02    rms(broyden)= 0.20871E-02
  rms(prec ) = 0.24213E-02
  weight for this iteration     100.00

 eigenvalues of (default mixing * dielectric matrix)
  average eigenvalue GAMMA=   1.7357
  8.9057  2.5997  2.2984  1.5341  1.5341  0.2457  0.9653  0.9653  0.7961  0.7961
  0.5892  0.6922  0.6422

 Free energy of the ion-electron system (eV)
  ---------------------------------------------------
  alpha Z        PSCENC =        31.50926878
  Ewald energy   TEWEN  =      6462.22987265
  -Hartree energ DENC   =     -8618.94621632
  -exchange      EXHF   =         0.00000000
  -V(xc)+E(xc)   XCENC  =       -41.67250687
  PAW double counting   =      1199.39600517    -1053.79155593
  entropy T*S    EENTRO =         0.00000000
  eigenvalues    EBANDS =      -484.17372605
  atomic energy  EATOM  =      2459.66876574
  Solvation  Ediel_sol  =         0.00000000
  ---------------------------------------------------
  free energy    TOTEN  =       -45.78009283 eV

  energy without entropy =      -45.78009283  energy(sigma->0) =      -45.78009283


--------------------------------------------------------------------------------------------------------




--------------------------------------- Iteration      1(  19)  ---------------------------------------


    POTLOK:  cpu time  105.0320: real time  106.0678
    SETDIJ:  cpu time    0.0920: real time    0.0905
     EDDAV:  cpu time   32.7240: real time   33.0784
 BZINTS: Fermi energy: -3.543211; 58.000000 electrons
         Band energy:-484.049899;  BLOECHL correction: -0.019176
       DOS:  cpu time    0.0040: real time    0.0046
    CHARGE:  cpu time    2.0440: real time    2.0646
    MIXING:  cpu time    0.0720: real time    0.0748
    --------------------------------------------
      LOOP:  cpu time  139.9680: real time  141.3807

 eigenvalue-minimisations  :   728
 total energy-change (2. order) :-0.3507180E-03  (-0.8337716E-05)
 number of electron      57.9999992 magnetization       5.9925373
 augmentation part       -2.6194486 magnetization       4.4923463

 Broyden mixing:
  rms(total) = 0.87349E-03    rms(broyden)= 0.87348E-03
  rms(prec ) = 0.13372E-02
  weight for this iteration     100.00

 eigenvalues of (default mixing * dielectric matrix)
  average eigenvalue GAMMA=   1.7258
  9.4749  2.6600  2.3531  1.5286  1.5286  0.2457  1.0287  1.0287  0.8362  0.8362
  0.5875  0.7346  0.6870  0.6319

 Free energy of the ion-electron system (eV)
  ---------------------------------------------------
  alpha Z        PSCENC =        31.50926878
  Ewald energy   TEWEN  =      6462.22987265
  -Hartree energ DENC   =     -8619.07505920
  -exchange      EXHF   =         0.00000000
  -V(xc)+E(xc)   XCENC  =       -41.66858807
  PAW double counting   =      1199.38688958    -1053.78169372
  entropy T*S    EENTRO =         0.00000000
  eigenvalues    EBANDS =      -484.04989931
  atomic energy  EATOM  =      2459.66876574
  Solvation  Ediel_sol  =         0.00000000
  ---------------------------------------------------
  free energy    TOTEN  =       -45.78044355 eV

  energy without entropy =      -45.78044355  energy(sigma->0) =      -45.78044355


--------------------------------------------------------------------------------------------------------




--------------------------------------- Iteration      1(  20)  ---------------------------------------


    POTLOK:  cpu time   97.9040: real time   98.0180
    SETDIJ:  cpu time    0.1080: real time    0.1087
     EDDAV:  cpu time   18.9720: real time   19.1801
 BZINTS: Fermi energy: -3.542451; 58.000000 electrons
         Band energy:-484.005579;  BLOECHL correction: -0.019181
       DOS:  cpu time    0.0040: real time    0.0048
    CHARGE:  cpu time    2.0240: real time    2.0270
    MIXING:  cpu time    0.0720: real time    0.0713
    --------------------------------------------
      LOOP:  cpu time  119.0840: real time  119.4099

 eigenvalue-minimisations  :   712
 total energy-change (2. order) :-0.1754134E-03  (-0.7706440E-05)
 number of electron      57.9999992 magnetization       5.9929941
 augmentation part       -2.6194976 magnetization       4.4933112

 Broyden mixing:
  rms(total) = 0.44990E-03    rms(broyden)= 0.44990E-03
  rms(prec ) = 0.10650E-02
  weight for this iteration     100.00

 eigenvalues of (default mixing * dielectric matrix)
  average eigenvalue GAMMA=   1.7204
  9.6482  2.8173  2.1693  1.7810  1.4436  1.4436  0.2457  1.0530  0.9103  0.8503
  0.8503  0.7273  0.5881  0.6492  0.6287

 Free energy of the ion-electron system (eV)
  ---------------------------------------------------
  alpha Z        PSCENC =        31.50926878
  Ewald energy   TEWEN  =      6462.22987265
  -Hartree energ DENC   =     -8619.12081560
  -exchange      EXHF   =         0.00000000
  -V(xc)+E(xc)   XCENC  =       -41.66553358
  PAW double counting   =      1199.39175216    -1053.78834997
  entropy T*S    EENTRO =         0.00000000
  eigenvalues    EBANDS =      -484.00557915
  atomic energy  EATOM  =      2459.66876574
  Solvation  Ediel_sol  =         0.00000000
  ---------------------------------------------------
  free energy    TOTEN  =       -45.78061896 eV

  energy without entropy =      -45.78061896  energy(sigma->0) =      -45.78061896


--------------------------------------------------------------------------------------------------------




--------------------------------------- Iteration      1(  21)  ---------------------------------------


    POTLOK:  cpu time   97.9320: real time   98.5559
    SETDIJ:  cpu time    0.0560: real time    0.0542
     EDDAV:  cpu time   18.9520: real time   19.0626
 BZINTS: Fermi energy: -3.541494; 58.000000 electrons
         Band energy:-483.947069;  BLOECHL correction: -0.019185
       DOS:  cpu time    0.0040: real time    0.0043
    --------------------------------------------
      LOOP:  cpu time  116.9440: real time  117.6769

 eigenvalue-minimisations  :   720
 total energy-change (2. order) :-0.2930363E-04  (-0.8215777E-05)
 number of electron      57.9999992 magnetization       5.9929941
 augmentation part       -2.6194976 magnetization       4.4933112

 Free energy of the ion-electron system (eV)
  ---------------------------------------------------
  alpha Z        PSCENC =        31.50926878
  Ewald energy   TEWEN  =      6462.22987265
  -Hartree energ DENC   =     -8619.17908038
  -exchange      EXHF   =         0.00000000
  -V(xc)+E(xc)   XCENC  =       -41.66459005
  PAW double counting   =      1199.38550121    -1053.78331722
  entropy T*S    EENTRO =         0.00000000
  eigenvalues    EBANDS =      -483.94706899
  atomic energy  EATOM  =      2459.66876574
  Solvation  Ediel_sol  =         0.00000000
  ---------------------------------------------------
  free energy    TOTEN  =       -45.78064827 eV

  energy without entropy =      -45.78064827  energy(sigma->0) =      -45.78064827


--------------------------------------------------------------------------------------------------------




 average (electrostatic) potential at core
  the test charge radii are     1.1394  0.9587  1.0808
  (the norm of the test charge is              1.0000)
       1 -52.1517       2 -52.1517       3 -93.5194       4 -93.5194       5 -61.7938
       6 -61.7938       7 -61.7938       8 -61.7938       9 -61.7938      10 -61.7938



 E-fermi :  -3.5415     XC(G=0):  -3.2911     alpha+bet : -2.1788


 spin component 1

 k-point     1 :       0.0000    0.0000    0.0000
  band No.  band energies     occupation 
      1     -16.8322      1.00000
      2     -16.1681      1.00000
      3     -15.5241      1.00000
      4     -15.5240      1.00000
      5     -15.4844      1.00000
      6     -15.4844      1.00000
      7     -14.1021      1.00000
      8     -12.0664      1.00000
      9      -7.9056      1.00000
     10      -7.9056      1.00000
     11      -7.7285      1.00000
     12      -7.2863      1.00000
     13      -7.2848      1.00000
     14      -7.2848      1.00000
     15      -6.2043      1.00000
     16      -6.0167      1.00000
     17      -5.7961      1.00000
     18      -5.7961      1.00000
     19      -5.5886      1.00000
     20      -5.5886      1.00000
     21      -5.1735      1.00000
     22      -5.1735      1.00000
     23      -4.8674      1.00000
     24      -4.6750      1.00000
     25      -4.6750      1.00000
     26      -4.6332      1.00000
     27      -4.5770      1.00000
     28      -4.5770      1.00000
     29      -4.5499      1.00000
     30      -4.1349      1.00000
     31      -4.1349      1.00000
     32      -3.5278      0.84102
     33      -3.2602      0.00000
     34      -2.7998      0.00000
     35      -2.7998      0.00000
     36      -2.4625      0.00000
     37      -2.4625      0.00000
     38      -1.8720      0.00000
     39      -1.8720      0.00000
     40      -0.8011      0.00000

 k-point     2 :       0.2000    0.0000    0.0000
  band No.  band energies     occupation 
      1     -16.7516      1.00000
      2     -16.1087      1.00000
      3     -15.6466      1.00000
      4     -15.5741      1.00000
      5     -15.5441      1.00000
      6     -15.5131      1.00000
      7     -14.0145      1.00000
      8     -12.0712      1.00000
      9      -7.8677      1.00000
     10      -7.8051      1.00000
     11      -7.5724      1.00000
     12      -7.5301      1.00000
     13      -7.0437      1.00000
     14      -6.7111      1.00000
     15      -6.2065      1.00000
     16      -6.1405      1.00000
     17      -5.8934      1.00000
     18      -5.8180      1.00000
     19      -5.4808      1.00000
     20      -5.4537      1.00000
     21      -5.4285      1.00000
     22      -5.3931      1.00000
     23      -5.3017      1.00000
     24      -4.8235      1.00000
     25      -4.7618      1.00000
     26      -4.6751      1.00000
     27      -4.6321      1.00000
     28      -4.5620      1.00000
     29      -4.4374      1.00000
     30      -4.2274      1.00000
     31      -4.2179      1.00000
     32      -3.6140      1.01391
     33      -2.9095      0.00000
     34      -2.7759      0.00000
     35      -2.7709      0.00000
     36      -2.6101      0.00000
     37      -2.5165      0.00000
     38      -1.8304      0.00000
     39      -1.7927      0.00000
     40      -0.8761      0.00000

 k-point     3 :       0.4000    0.0000    0.0000
  band No.  band energies     occupation 
      1     -16.5631      1.00000
      2     -15.9700      1.00000
      3     -15.9249      1.00000
      4     -15.6630      1.00000
      5     -15.6021      1.00000
      6     -15.5960      1.00000
      7     -13.8867      1.00000
      8     -12.0727      1.00000
      9      -7.7593      1.00000
     10      -7.7207      1.00000
     11      -7.3021      1.00000
     12      -7.2248      1.00000
     13      -6.5835      1.00000
     14      -6.5776      1.00000
     15      -6.2687      1.00000
     16      -6.1141      1.00000
     17      -6.0590      1.00000
     18      -6.0371      1.00000
     19      -5.8388      1.00000
     20      -5.8151      1.00000
     21      -5.5510      1.00000
     22      -5.2413      1.00000
     23      -5.1832      1.00000
     24      -5.0810      1.00000
     25      -4.9070      1.00000
     26      -4.7195      1.00000
     27      -4.6475      1.00000
     28      -4.4888      1.00000
     29      -4.3858      1.00000
     30      -4.3675      1.00000
     31      -4.2944      1.00000
     32      -3.5698      1.00000
     33      -3.0126      0.00000
     34      -2.9472      0.00000
     35      -2.9021      0.00000
     36      -2.6744      0.00000
     37      -2.5420      0.00000
     38      -1.9269      0.00000
     39      -1.4648      0.00000
     40      -1.0991      0.00000

 k-point     4 :       0.4000    0.2000    0.0000
  band No.  band energies     occupation 
      1     -16.6124      1.00000
      2     -16.0075      1.00000
      3     -15.8036      1.00000
      4     -15.7015      1.00000
      5     -15.6135      1.00000
      6     -15.5507      1.00000
      7     -13.9061      1.00000
      8     -12.0712      1.00000
      9      -7.8339      1.00000
     10      -7.5866      1.00000
     11      -7.4785      1.00000
     12      -7.3717      1.00000
     13      -6.6677      1.00000
     14      -6.4099      1.00000
     15      -6.2928      1.00000
     16      -6.1143      1.00000
     17      -6.0538      1.00000
     18      -5.9401      1.00000
     19      -5.9193      1.00000
     20      -5.7520      1.00000
     21      -5.6170      1.00000
     22      -5.2175      1.00000
     23      -5.1622      1.00000
     24      -4.8719      1.00000
     25      -4.8584      1.00000
     26      -4.7027      1.00000
     27      -4.6700      1.00000
     28      -4.5634      1.00000
[...]
     18      -5.6454      1.00000
     19      -5.4639      1.00000
     20      -5.0743      1.00000
     21      -4.8545      1.00000
     22      -4.4095      1.00000
     23      -4.3601      1.00000
     24      -4.1676      1.00000
     25      -4.1083      1.00000
     26      -2.7224      1.06570
     27      -2.0545      0.06098
     28      -1.5915      0.00000
     29      -1.4715      0.00000
     30      -0.9692      0.00000
     31      -0.9248      0.00000
     32      -0.8893      0.00000
     33      -0.6808      0.00000
     34      -0.4694      0.00000
     35      -0.4125      0.00000
     36      -0.0078      0.00000
     37       0.1015      0.00000
     38       0.1911      0.00000
     39       0.4102      0.00000
     40       0.7016      0.00000

 k-point     5 :      -0.4000    0.2000    0.0000
  band No.  band energies     occupation 
      1     -17.1963      1.00000
      2     -16.1924      1.00000
      3     -16.1547      1.00000
      4     -15.8879      1.00000
      5     -15.6481      1.00000
      6     -15.5394      1.00000
      7     -13.2358      1.00000
      8     -11.4228      1.00000
      9      -8.1293      1.00000
     10      -7.7287      1.00000
     11      -7.7145      1.00000
     12      -7.2671      1.00000
     13      -6.9128      1.00000
     14      -6.3236      1.00000
     15      -5.9052      1.00000
     16      -5.7328      1.00000
     17      -5.6649      1.00000
     18      -5.5924      1.00000
     19      -5.5558      1.00000
     20      -5.1651      1.00000
     21      -4.8723      1.00000
     22      -4.5148      1.00000
     23      -4.2805      1.00000
     24      -4.1517      1.00000
     25      -4.0635      1.00000
     26      -3.0949      1.00000
     27      -2.3225      0.93376
     28      -1.7615      0.00000
     29      -1.6126      0.00000
     30      -0.9954      0.00000
     31      -0.9473      0.00000
     32      -0.9183      0.00000
     33      -0.7562      0.00000
     34      -0.5192      0.00000
     35      -0.3401      0.00000
     36       0.0339      0.00000
     37       0.0584      0.00000
     38       0.1900      0.00000
     39       0.5140      0.00000
     40       0.6585      0.00000


--------------------------------------------------------------------------------------------------------


 soft charge-density along one line, spin component           1
         0         1         2         3         4         5         6         7         8         9
 total charge-density along one line

 soft charge-density along one line, spin component           2
         0         1         2         3         4         5         6         7         8         9
 total charge-density along one line

 pseudopotential strength for first ion, spin component:           1
 -8.782   0.075  -0.000  -0.000  -0.000   0.681  -0.021   0.000
  0.075  -8.690   0.000  -0.000  -0.000  -0.021   0.656  -0.000
 -0.000   0.000  -8.853   0.000   0.000   0.000  -0.000   0.701
 -0.000  -0.000   0.000  -8.690  -0.075   0.000   0.000  -0.000
 -0.000  -0.000   0.000  -0.075  -8.782   0.000   0.000  -0.000
  0.681  -0.021   0.000   0.000   0.000   0.364   0.005  -0.000
 -0.021   0.656  -0.000   0.000   0.000   0.005   0.370   0.000
  0.000  -0.000   0.701  -0.000  -0.000  -0.000   0.000   0.359
  0.000   0.000  -0.000   0.656   0.021  -0.000  -0.000   0.000
  0.000   0.000  -0.000   0.021   0.681  -0.000  -0.000   0.000
 -0.000  -0.000  -0.001  -0.000   0.000  -0.000   0.000   0.000
  0.000   0.000   0.000   0.000  -0.000  -0.000  -0.000  -0.000
 -0.000  -0.000   0.000  -0.000   0.001   0.000   0.000  -0.000
 -0.000  -0.000   0.000  -0.000  -0.000   0.000   0.000   0.000
  0.001  -0.000   0.000  -0.000   0.000  -0.000   0.000  -0.000
  0.000   0.000  -0.000   0.000  -0.001  -0.000  -0.000   0.000
  0.000   0.000  -0.000   0.000   0.000  -0.000  -0.000   0.000
 -0.001   0.000  -0.000   0.000  -0.000   0.000  -0.000   0.000
 pseudopotential strength for first ion, spin component:           2
 -7.230  -0.150  -0.000   0.000  -0.000   0.243   0.039   0.000
 -0.150  -7.390   0.000   0.000   0.000   0.039   0.284  -0.000
 -0.000   0.000  -7.077   0.000   0.000   0.000  -0.000   0.203
  0.000   0.000   0.000  -7.390   0.150  -0.000  -0.000  -0.000
 -0.000   0.000   0.000   0.150  -7.230   0.000  -0.000  -0.000
  0.243   0.039   0.000  -0.000   0.000   0.484  -0.010  -0.000
  0.039   0.284  -0.000  -0.000  -0.000  -0.010   0.474   0.000
  0.000  -0.000   0.203  -0.000  -0.000  -0.000   0.000   0.494
 -0.000  -0.000  -0.000   0.284  -0.039   0.000   0.000   0.000
  0.000  -0.000  -0.000  -0.039   0.243  -0.000   0.000   0.000
 -0.000  -0.000   0.001  -0.000   0.000  -0.000   0.000   0.000
  0.000   0.000  -0.000   0.000  -0.000  -0.000  -0.000  -0.000
  0.000  -0.000   0.000  -0.000   0.001  -0.000   0.000  -0.000
 -0.000  -0.000  -0.000  -0.000   0.000   0.000   0.000   0.000
  0.001  -0.000   0.000  -0.000  -0.000  -0.000   0.000  -0.000
  0.000   0.000  -0.000   0.000  -0.001   0.000  -0.000   0.000
  0.000   0.000   0.000   0.000  -0.000  -0.000  -0.000  -0.000
 -0.001   0.000  -0.000   0.000   0.000   0.000  -0.000   0.000
 total augmentation occupancy for first ion, spin component:           1
  0.989  -0.066   0.000   0.000  -0.000   0.083   0.211  -0.000  -0.000   0.000  -0.000  -0.000  -0.000   0.000   0.016   0.000
 -0.066   0.964  -0.000  -0.000   0.000   0.211   0.300   0.000   0.000  -0.000   0.000   0.000  -0.000  -0.000  -0.003  -0.000
  0.000  -0.000   1.037  -0.000  -0.000  -0.000   0.000  -0.095   0.000   0.000  -0.001  -0.011  -0.000   0.000   0.000  -0.000
  0.000  -0.000  -0.000   0.964   0.066  -0.000  -0.000   0.000   0.300  -0.211   0.000   0.000   0.003   0.000  -0.000  -0.000
 -0.000   0.000  -0.000   0.066   0.989  -0.000  -0.000   0.000  -0.211   0.083   0.000   0.000   0.016  -0.000   0.000   0.000
  0.083   0.211  -0.000  -0.000  -0.000   0.192   0.105   0.000  -0.000  -0.000   0.000  -0.000  -0.000   0.000   0.021   0.000
  0.211   0.300   0.000  -0.000  -0.000   0.105   0.292   0.000  -0.000  -0.000  -0.000  -0.000  -0.000   0.000  -0.005   0.000
 -0.000   0.000  -0.095   0.000   0.000   0.000   0.000   0.166   0.000  -0.000   0.035  -0.008  -0.000   0.000   0.000   0.000
 -0.000   0.000   0.000   0.300  -0.211  -0.000  -0.000   0.000   0.292  -0.105  -0.000  -0.000   0.005  -0.000  -0.000  -0.000
  0.000  -0.000   0.000  -0.211   0.083  -0.000  -0.000  -0.000  -0.105   0.192  -0.000   0.000   0.021  -0.000   0.000  -0.002
 -0.000   0.000  -0.001   0.000   0.000   0.000  -0.000   0.035  -0.000  -0.000   1.077  -0.187  -0.000  -0.000  -0.000   0.000
 -0.000   0.000  -0.011   0.000   0.000  -0.000   0.000  -0.008  -0.000   0.000  -0.187   0.074   0.000  -0.000  -0.000  -0.000
 -0.000  -0.000  -0.000   0.003   0.016  -0.000  -0.000  -0.000   0.005   0.021  -0.000   0.000   0.232   0.000  -0.000  -0.003
  0.000   0.000   0.000   0.000  -0.000   0.000   0.000   0.000   0.000  -0.000  -0.000  -0.000  -0.000   0.246   0.000  -0.000
  0.016  -0.003   0.000  -0.000   0.000   0.021  -0.005   0.000  -0.000   0.000  -0.000   0.000  -0.000   0.000   0.232   0.000
  0.000  -0.000  -0.000  -0.000   0.000   0.000   0.000   0.000  -0.000  -0.002   0.000   0.000  -0.003  -0.000   0.000   0.000
 -0.000  -0.000  -0.000   0.000   0.000  -0.000  -0.000  -0.000  -0.000   0.000  -0.000   0.000  -0.000  -0.004  -0.000   0.000
  0.000   0.000   0.000  -0.000  -0.000  -0.002   0.000  -0.000   0.000  -0.000  -0.000  -0.000  -0.000   0.000  -0.003  -0.000
 total augmentation occupancy for first ion, spin component:           2
  0.671  -0.252   0.000   0.000  -0.000  -0.150   0.047  -0.000  -0.000  -0.000  -0.000  -0.000   0.000  -0.000  -0.001   0.000
 -0.252   0.392  -0.000  -0.000   0.000   0.051  -0.101   0.000  -0.000  -0.000  -0.000   0.000  -0.000   0.000   0.009  -0.000
  0.000  -0.000   0.901  -0.000  -0.000  -0.000   0.000  -0.218   0.000   0.000  -0.017  -0.004   0.000  -0.000  -0.000  -0.000
  0.000  -0.000  -0.000   0.392   0.252  -0.000   0.000   0.000  -0.101  -0.051   0.000   0.000  -0.009   0.000  -0.000   0.000
 -0.000   0.000  -0.000   0.252   0.671   0.000  -0.000   0.000  -0.047  -0.150   0.000   0.000  -0.001   0.000  -0.000   0.001
 -0.150   0.051  -0.000  -0.000   0.000  -0.007  -0.040   0.000   0.000  -0.000   0.000   0.000  -0.000   0.000  -0.006  -0.000
  0.047  -0.101   0.000   0.000  -0.000  -0.040  -0.047  -0.000   0.000   0.000   0.000   0.000   0.000   0.000   0.001  -0.000
 -0.000   0.000  -0.218   0.000   0.000   0.000  -0.000   0.048  -0.000  -0.000   0.010   0.003   0.000   0.000  -0.000   0.000
 -0.000  -0.000   0.000  -0.101  -0.047   0.000   0.000  -0.000  -0.047   0.040   0.000   0.000  -0.001  -0.000   0.000  -0.000
 -0.000  -0.000   0.000  -0.051  -0.150  -0.000   0.000  -0.000   0.040  -0.007  -0.000  -0.000  -0.006  -0.000   0.000  -0.000
 -0.000  -0.000  -0.017   0.000   0.000   0.000   0.000   0.010  -0.000  -0.000   0.155   0.062   0.000  -0.000  -0.000   0.000
 -0.000  -0.000  -0.004   0.000   0.000   0.000   0.000   0.003   0.000  -0.000   0.062  -0.021   0.000  -0.000  -0.000   0.000
  0.000  -0.000   0.000  -0.009  -0.001  -0.000   0.000   0.000  -0.001  -0.006   0.000  -0.000   0.026   0.000  -0.000   0.003
 -0.000  -0.000  -0.000   0.000   0.000   0.000  -0.000   0.000  -0.000  -0.000  -0.000  -0.000   0.000   0.023   0.000   0.000
 -0.001   0.009  -0.000  -0.000  -0.000  -0.006   0.001  -0.000   0.000   0.000  -0.000  -0.000  -0.000   0.000   0.026  -0.000
  0.000  -0.000  -0.000   0.000   0.001  -0.000  -0.000   0.000  -0.000  -0.000   0.000   0.000   0.003   0.000  -0.000  -0.000
  0.000   0.000   0.000   0.000  -0.000   0.000   0.000   0.000  -0.000  -0.000  -0.000  -0.000   0.000   0.003   0.000  -0.000
  0.001  -0.000   0.000  -0.000  -0.000  -0.000   0.000  -0.000  -0.000   0.000  -0.000  -0.000   0.000  -0.000   0.003   0.000


------------------------ aborting loop because EDIFF is reached ----------------------------------------





 total charge     

# of ion       s       p       d       tot
------------------------------------------
    1        0.353   0.479   4.294   5.126
    2        0.353   0.479   4.294   5.126
    3        1.108   1.280   0.000   2.388
    4        1.108   1.280   0.000   2.388
    5        1.493   2.306   0.042   3.842
    6        1.481   2.267   0.044   3.792
    7        1.491   2.293   0.043   3.827
    8        1.493   2.306   0.042   3.842
    9        1.481   2.267   0.044   3.792
   10        1.491   2.293   0.043   3.827
--------------------------------------------------
tot         11.851  17.251   8.846  37.948



 magnetization (x)

# of ion       s       p       d       tot
------------------------------------------
    1        0.035   0.043   2.800   2.878
    2        0.035   0.043   2.800   2.878
    3        0.005   0.024   0.000   0.029
    4        0.005   0.024   0.000   0.029
    5        0.003  -0.052   0.006  -0.043
    6        0.001  -0.053   0.007  -0.045
    7        0.002  -0.054   0.006  -0.046
    8        0.003  -0.052   0.006  -0.043
    9        0.001  -0.053   0.007  -0.045
   10        0.002  -0.054   0.006  -0.046
--------------------------------------------------
tot          0.093  -0.183   5.637   5.547

    CHARGE:  cpu time    2.0840: real time    2.1083
    FORLOC:  cpu time    0.0920: real time    0.0914
    FORNL :  cpu time    6.0320: real time    6.0886
    STRESS:  cpu time   18.0600: real time   18.2381
    FORCOR:  cpu time  104.9040: real time  105.4537
    FORHAR:  cpu time    0.4360: real time    0.4440
    MIXING:  cpu time    0.0520: real time    0.0543
    OFIELD:  cpu time    0.0000: real time    0.0000

  FORCE on cell =-STRESS in cart. coord.  units (eV):
  Direction    XX          YY          ZZ          XY          YZ          ZX
  --------------------------------------------------------------------------------------
  Alpha Z    40.00301    40.00301    40.00301
  Ewald    9034.89143  9034.88867-10714.23565    -0.00117    -0.00047    -0.00085
  Hartree  9382.07619  9382.07658 -9225.97711     0.00001     0.00005     0.00009
  E(xc)    -223.47002  -223.47002  -223.69648     0.00002     0.00000     0.00001
  Local  -19196.69425-19196.69324 19120.04641     0.00075     0.00021     0.00040
  n-local   340.95012   342.43603   350.69660     0.76099     0.41089     0.39958
  augment    12.51742    12.51749     8.86408     0.00001     0.00002     0.00003
  Kinetic   613.54660   605.22477   644.32968    -5.51625    -0.65940    -0.76728
  Fock        0.00000     0.00000     0.00000     0.00000     0.00000     0.00000
  -------------------------------------------------------------------------------------
  Total       0.40190     0.40190     0.03055    -0.00000     0.00000     0.00000
  in kB       0.84379     0.84379     0.06414    -0.00000     0.00000     0.00000
  external pressure =        0.58 kB  Pullay stress =        0.00 kB


 VOLUME and BASIS-vectors are now :
 -----------------------------------------------------------------------------
  energy-cutoff  :      520.00
  volume of cell :      763.12
      direct lattice vectors                 reciprocal lattice vectors
     6.346991124  0.000000093  0.000000000     0.157554972 -0.090964396  0.000000000
     3.173495104  5.496655322  0.000000000    -0.000000003  0.181928819 -0.000000000
     0.000000000  0.000000000 21.874043557    -0.000000000 -0.000000000  0.045716285

  length of vectors
     6.346991124  6.346990697 21.874043557     0.181928806  0.181928819  0.045716285


 FORCES acting on ions
    electron-ion (+dipol)            ewald-force                    non-local-force                 convergence-correction
 -----------------------------------------------------------------------------------------------
   -.116E-03 -.724E-04 0.521E+00   0.397E-03 0.233E-03 -.521E+00   0.173E-17 0.174E-17 0.680E-02   -.574E-07 -.352E-07 0.274E-04
   0.116E-03 0.724E-04 -.521E+00   -.397E-03 -.233E-03 0.521E+00   -.867E-18 0.173E-17 -.680E-02   0.574E-07 0.352E-07 -.274E-04
   -.420E-04 -.337E-04 0.255E+03   -.218E-03 -.122E-03 -.259E+03   -.104E-16 -.321E-17 0.336E+01   -.139E-07 0.198E-07 -.898E-02
   0.420E-04 0.337E-04 -.255E+03   0.218E-03 0.122E-03 0.259E+03   0.429E-17 0.494E-17 -.336E+01   0.139E-07 -.198E-07 0.898E-02
   0.573E+01 0.910E-02 -.420E+03   -.731E+01 -.766E-02 0.422E+03   0.160E+01 -.264E-02 -.191E+01   0.350E-02 0.247E-04 0.171E-01
   -.286E+01 -.497E+01 -.420E+03   0.365E+01 0.633E+01 0.422E+03   -.803E+00 -.139E+01 -.191E+01   -.173E-02 -.304E-02 0.171E-01
   -.287E+01 0.495E+01 -.420E+03   0.366E+01 -.632E+01 0.422E+03   -.799E+00 0.139E+01 -.191E+01   -.177E-02 0.302E-02 0.171E-01
   -.573E+01 -.910E-02 0.420E+03   0.731E+01 0.766E-02 -.422E+03   -.160E+01 0.264E-02 0.191E+01   -.350E-02 -.247E-04 -.171E-01
   0.286E+01 0.497E+01 0.420E+03   -.365E+01 -.633E+01 -.422E+03   0.803E+00 0.139E+01 0.191E+01   0.173E-02 0.304E-02 -.171E-01
   0.287E+01 -.495E+01 0.420E+03   -.366E+01 0.632E+01 -.422E+03   0.799E+00 -.139E+01 0.191E+01   0.177E-02 -.302E-02 -.171E-01
 -----------------------------------------------------------------------------------------------
   0.148E-09 0.265E-09 0.460E-10   -.533E-14 0.444E-14 0.568E-13   -.333E-15 0.222E-15 -.666E-15   -.251E-12 -.112E-12 -.775E-11


 POSITION                                       TOTAL-FORCE (eV/Angst)
 -----------------------------------------------------------------------------------
      3.17349      1.83222     10.93538        -0.000000      0.000000      0.006030
      6.34699      3.66444     10.93866        -0.000000      0.000000     -0.006030
      0.00000      0.00000      9.80555        -0.000000      0.000000     -0.007688
      0.00000      0.00000     12.06849        -0.000000      0.000000      0.007688
      3.99752      0.00108     12.48676         0.026684     -0.000540     -0.005768
      1.17568      2.03417     12.48676        -0.013810     -0.022839     -0.005768
      4.34730      3.46141     12.48676        -0.012874      0.023379     -0.005768
      5.52297      5.49557      9.38729        -0.026684      0.000540      0.005768
      8.34481      3.46248      9.38729         0.013810      0.022839      0.005768
      5.17318      2.03525      9.38729         0.012874     -0.023379      0.005768
 -----------------------------------------------------------------------------------
    total drift:                                0.000000      0.000000      0.000000


--------------------------------------------------------------------------------------------------------



  FREE ENERGIE OF THE ION-ELECTRON SYSTEM (eV)
  ---------------------------------------------------
  free  energy   TOTEN  =       -48.50507409 eV

  energy  without entropy=      -48.50507409  energy(sigma->0) =      -48.50507409

 d Force = 0.9666466E-04[-0.117E-03, 0.310E-03]  d Energy = 0.3931514E-02-0.383E-02
 d Force = 0.3145360E+01[ 0.314E+01, 0.315E+01]  d Ewald  = 0.1037699E+02-0.723E+01


--------------------------------------------------------------------------------------------------------


    POTLOK:  cpu time  102.4080: real time  103.0963


--------------------------------------------------------------------------------------------------------




--------------------------------------------------------------------------------------------------------


  
 reached required accuracy - stopping structural energy minimisation
     LOOP+:  cpu time  904.1000: real time  910.8784
    4ORBIT:  cpu time    0.0000: real time    0.0000



 total charge     

# of ion       s       p       d       tot
------------------------------------------
    1        0.353   0.479   4.294   5.126
    2        0.353   0.479   4.294   5.126
    3        1.108   1.280   0.000   2.388
    4        1.108   1.280   0.000   2.388
    5        1.493   2.306   0.042   3.842
    6        1.481   2.267   0.044   3.792
    7        1.491   2.293   0.043   3.827
    8        1.493   2.306   0.042   3.842
    9        1.481   2.267   0.044   3.792
   10        1.491   2.293   0.043   3.827
--------------------------------------------------
tot         11.851  17.251   8.846  37.948



 magnetization (x)

# of ion       s       p       d       tot
------------------------------------------
    1        0.035   0.043   2.800   2.878
    2        0.035   0.043   2.800   2.878
    3        0.005   0.024   0.000   0.029
    4        0.005   0.024   0.000   0.029
    5        0.003  -0.052   0.006  -0.043
    6        0.001  -0.053   0.007  -0.045
    7        0.002  -0.054   0.006  -0.046
    8        0.003  -0.052   0.006  -0.043
    9        0.001  -0.053   0.007  -0.045
   10        0.002  -0.054   0.006  -0.046
--------------------------------------------------
tot          0.093  -0.183   5.637   5.547

 BZINTS: Fermi energy: -2.176486; 58.000000 electrons
         Band energy:-472.726452;  BLOECHL correction: -0.032710

 total amount of memory used by VASP MPI-rank0   171095. kBytes
=======================================================================

   base      :      30000. kBytes
   nonlr-proj:       9295. kBytes
   fftplans  :      20284. kBytes
   grid      :      90201. kBytes
   one-center:        311. kBytes
   wavefun   :      21004. kBytes

  
  
 General timing and accounting informations for this job:
 ========================================================
  
                  Total CPU time used (sec):    10893.940
                            User time (sec):    10848.068
                          System time (sec):       45.872
                         Elapsed time (sec):    10963.562
  
                   Maximum memory used (kb):      590800.
                   Average memory used (kb):           0.
  
                          Minor page faults:     12298828
                          Major page faults:            7
                 Voluntary context switches:          922
