  10  10   1   0
  0.9688350E+02  0.6907777E-09  0.6907777E-09  0.2344459E-08  0.5000000E-15
   1.0000000000000000E-004
  CAR 
 unknown system                          
      4.70425850    -18.35288323  301     -2.57278278      1.00000000
    -18.353  0.0000E+00  0.0000E+00  0.0000E+00  0.0000E+00
    -18.276  0.0000E+00  0.0000E+00  0.0000E+00  0.0000E+00
    -18.199  0.0000E+00  0.0000E+00  0.0000E+00  0.0000E+00
    -18.122  0.0000E+00  0.0000E+00  0.0000E+00  0.0000E+00
    -18.045  0.0000E+00  0.0000E+00  0.0000E+00  0.0000E+00
    -17.969  0.0000E+00  0.0000E+00  0.0000E+00  0.0000E+00
    -17.892  0.0000E+00  0.0000E+00  0.0000E+00  0.0000E+00
    -17.815  0.0000E+00  0.0000E+00  0.0000E+00  0.0000E+00
    -17.738  0.0000E+00  0.0000E+00  0.0000E+00  0.0000E+00
    -17.661  0.0000E+00  0.0000E+00  0.0000E+00  0.0000E+00
    -17.584  0.0000E+00  0.0000E+00  0.0000E+00  0.0000E+00
    -17.507  0.0000E+00  0.0000E+00  0.0000E+00  0.0000E+00
    -17.431  0.0000E+00  0.0000E+00  0.0000E+00  0.0000E+00
    -17.354  0.0000E+00  0.0000E+00  0.0000E+00  0.0000E+00
    -17.277  0.3294E-02  0.0000E+00  0.4604E-04  0.0000E+00
    -17.200  0.1235E-01  0.3626E-02  0.6474E-03  0.5605E-04
    -17.123  0.9345E-02  0.1264E-01  0.1561E-02  0.6811E-03
    -17.046  0.1026E-01  0.9348E-02  0.2314E-02  0.1584E-02
    -16.969  0.1118E-01  0.1026E-01  0.3138E-02  0.2338E-02
    -16.893  0.1210E-01  0.1117E-01  0.4033E-02  0.3161E-02
    -16.816  0.1303E-01  0.1208E-01  0.4998E-02  0.4055E-02
    -16.739  0.2093E-01  0.1302E-01  0.6217E-02  0.5019E-02
    -16.662  0.1648E-01  0.2080E-01  0.7655E-02  0.6246E-02
    -16.585  0.1203E-01  0.1637E-01  0.8750E-02  0.7674E-02
    -16.508  0.7582E-02  0.1194E-01  0.9504E-02  0.8762E-02
    -16.431  0.4336E-02  0.7518E-02  0.1015E-01  0.9510E-02
    -16.355  0.1993E-01  0.3105E-02  0.1108E-01  0.1013E-01
    -16.278  0.3708E-01  0.1853E-01  0.1305E-01  0.1096E-01
    -16.201  0.5983E-01  0.3577E-01  0.1677E-01  0.1290E-01
    -16.124  0.0000E+00  0.5861E-01  0.2020E-01  0.1653E-01
    -16.047  0.1761E-01  0.0000E+00  0.2034E-01  0.2020E-01
    -15.970  0.2521E-01  0.0000E+00  0.2198E-01  0.2020E-01
    -15.893  0.5326E-01  0.2503E-01  0.2513E-01  0.2181E-01
    -15.817  0.4052E-01  0.5899E-01  0.2882E-01  0.2484E-01
    -15.740  0.4020E-01  0.4206E-01  0.3187E-01  0.2854E-01
    -15.663  0.6827E-01  0.4003E-01  0.3671E-01  0.3161E-01
    -15.586  0.6644E-01  0.6634E-01  0.4150E-01  0.3624E-01
    -15.509  0.1276E+00  0.6543E-01  0.4729E-01  0.4103E-01
    -15.432  0.7191E-01  0.1094E+00  0.5527E-01  0.4617E-01
    -15.355  0.3983E-01  0.7522E-01  0.6021E-01  0.5453E-01
    -15.279  0.0000E+00  0.6177E-01  0.6061E-01  0.5962E-01
    -15.202  0.0000E+00  0.0000E+00  0.6061E-01  0.6061E-01
    -15.125  0.0000E+00  0.0000E+00  0.6061E-01  0.6061E-01
    -15.048  0.0000E+00  0.0000E+00  0.6061E-01  0.6061E-01
    -14.971  0.0000E+00  0.0000E+00  0.6061E-01  0.6061E-01
    -14.894  0.0000E+00  0.0000E+00  0.6061E-01  0.6061E-01
    -14.817  0.0000E+00  0.0000E+00  0.6061E-01  0.6061E-01
    -14.741  0.0000E+00  0.0000E+00  0.6061E-01  0.6061E-01
    -14.664  0.0000E+00  0.0000E+00  0.6061E-01  0.6061E-01
    -14.587  0.0000E+00  0.0000E+00  0.6061E-01  0.6061E-01
    -14.510  0.0000E+00  0.0000E+00  0.6061E-01  0.6061E-01
    -14.433  0.0000E+00  0.0000E+00  0.6061E-01  0.6061E-01
    -14.356  0.0000E+00  0.0000E+00  0.6061E-01  0.6061E-01
    -14.279  0.0000E+00  0.0000E+00  0.6061E-01  0.6061E-01
    -14.203  0.0000E+00  0.0000E+00  0.6061E-01  0.6061E-01
    -14.126  0.0000E+00  0.0000E+00  0.6061E-01  0.6061E-01
    -14.049  0.0000E+00  0.0000E+00  0.6061E-01  0.6061E-01
    -13.972  0.0000E+00  0.0000E+00  0.6061E-01  0.6061E-01
    -13.895  0.0000E+00  0.0000E+00  0.6061E-01  0.6061E-01
    -13.818  0.0000E+00  0.0000E+00  0.6061E-01  0.6061E-01
    -13.741  0.0000E+00  0.0000E+00  0.6061E-01  0.6061E-01
    -13.665  0.0000E+00  0.0000E+00  0.6061E-01  0.6061E-01
    -13.588  0.0000E+00  0.0000E+00  0.6061E-01  0.6061E-01
    -13.511  0.0000E+00  0.0000E+00  0.6061E-01  0.6061E-01
    -13.434  0.0000E+00  0.0000E+00  0.6061E-01  0.6061E-01
    -13.357  0.0000E+00  0.0000E+00  0.6061E-01  0.6061E-01
    -13.280  0.0000E+00  0.0000E+00  0.6061E-01  0.6061E-01
    -13.203  0.0000E+00  0.0000E+00  0.6061E-01  0.6061E-01
    -13.127  0.0000E+00  0.0000E+00  0.6061E-01  0.6061E-01
    -13.050  0.0000E+00  0.0000E+00  0.6061E-01  0.6061E-01
    -12.973  0.0000E+00  0.0000E+00  0.6061E-01  0.6061E-01
    -12.896  0.0000E+00  0.0000E+00  0.6061E-01  0.6061E-01
    -12.819  0.0000E+00  0.0000E+00  0.6061E-01  0.6061E-01
    -12.742  0.0000E+00  0.0000E+00  0.6061E-01  0.6061E-01
    -12.665  0.0000E+00  0.0000E+00  0.6061E-01  0.6061E-01
    -12.589  0.0000E+00  0.0000E+00  0.6061E-01  0.6061E-01
    -12.512  0.0000E+00  0.0000E+00  0.6061E-01  0.6061E-01
    -12.435  0.0000E+00  0.0000E+00  0.6061E-01  0.6061E-01
    -12.358  0.0000E+00  0.0000E+00  0.6061E-01  0.6061E-01
    -12.281  0.0000E+00  0.0000E+00  0.6061E-01  0.6061E-01
    -12.204  0.0000E+00  0.0000E+00  0.6061E-01  0.6061E-01
    -12.127  0.0000E+00  0.0000E+00  0.6061E-01  0.6061E-01
    -12.051  0.0000E+00  0.0000E+00  0.6061E-01  0.6061E-01
    -11.974  0.0000E+00  0.0000E+00  0.6061E-01  0.6061E-01
    -11.897  0.0000E+00  0.0000E+00  0.6061E-01  0.6061E-01
    -11.820  0.0000E+00  0.0000E+00  0.6061E-01  0.6061E-01
    -11.743  0.0000E+00  0.0000E+00  0.6061E-01  0.6061E-01
    -11.666  0.0000E+00  0.0000E+00  0.6061E-01  0.6061E-01
    -11.589  0.0000E+00  0.0000E+00  0.6061E-01  0.6061E-01
    -11.513  0.0000E+00  0.0000E+00  0.6061E-01  0.6061E-01
    -11.436  0.0000E+00  0.0000E+00  0.6061E-01  0.6061E-01
    -11.359  0.0000E+00  0.0000E+00  0.6061E-01  0.6061E-01
    -11.282  0.0000E+00  0.0000E+00  0.6061E-01  0.6061E-01
    -11.205  0.1907E-01  0.8841E-02  0.6103E-01  0.6071E-01
    -11.128  0.2297E-01  0.1910E-01  0.6274E-01  0.6218E-01
    -11.051  0.3336E-01  0.2893E-01  0.6490E-01  0.6403E-01
    -10.975  0.3836E-01  0.4676E-01  0.6840E-01  0.6719E-01
    -10.898  0.0000E+00  0.2482E-01  0.7071E-01  0.6994E-01
    -10.821  0.0000E+00  0.0000E+00  0.7071E-01  0.7071E-01
    -10.744  0.0000E+00  0.0000E+00  0.7071E-01  0.7071E-01
    -10.667  0.0000E+00  0.0000E+00  0.7071E-01  0.7071E-01
    -10.590  0.0000E+00  0.0000E+00  0.7071E-01  0.7071E-01
    -10.513  0.0000E+00  0.0000E+00  0.7071E-01  0.7071E-01
    -10.437  0.0000E+00  0.0000E+00  0.7071E-01  0.7071E-01
    -10.360  0.0000E+00  0.0000E+00  0.7071E-01  0.7071E-01
    -10.283  0.0000E+00  0.0000E+00  0.7071E-01  0.7071E-01
    -10.206  0.0000E+00  0.0000E+00  0.7071E-01  0.7071E-01
    -10.129  0.0000E+00  0.0000E+00  0.7071E-01  0.7071E-01
    -10.052  0.0000E+00  0.0000E+00  0.7071E-01  0.7071E-01
     -9.975  0.0000E+00  0.0000E+00  0.7071E-01  0.7071E-01
     -9.899  0.0000E+00  0.0000E+00  0.7071E-01  0.7071E-01
     -9.822  0.0000E+00  0.0000E+00  0.7071E-01  0.7071E-01
     -9.745  0.0000E+00  0.0000E+00  0.7071E-01  0.7071E-01
     -9.668  0.0000E+00  0.0000E+00  0.7071E-01  0.7071E-01
     -9.591  0.0000E+00  0.0000E+00  0.7071E-01  0.7071E-01
     -9.514  0.0000E+00  0.0000E+00  0.7071E-01  0.7071E-01
     -9.437  0.5356E-01  0.0000E+00  0.7110E-01  0.7071E-01
     -9.361  0.3264E-01  0.5383E-01  0.7795E-01  0.7127E-01
     -9.284  0.1155E-01  0.3420E-01  0.7988E-01  0.7815E-01
     -9.207  0.5999E-02  0.1103E-01  0.8056E-01  0.8000E-01
     -9.130  0.4478E-03  0.5255E-02  0.8081E-01  0.8062E-01
     -9.053  0.0000E+00  0.0000E+00  0.8081E-01  0.8081E-01
     -8.976  0.0000E+00  0.0000E+00  0.8081E-01  0.8081E-01
     -8.899  0.0000E+00  0.0000E+00  0.8081E-01  0.8081E-01
     -8.823  0.0000E+00  0.0000E+00  0.8081E-01  0.8081E-01
     -8.746  0.0000E+00  0.0000E+00  0.8081E-01  0.8081E-01
     -8.669  0.0000E+00  0.0000E+00  0.8081E-01  0.8081E-01
     -8.592  0.0000E+00  0.0000E+00  0.8081E-01  0.8081E-01
     -8.515  0.0000E+00  0.0000E+00  0.8081E-01  0.8081E-01
     -8.438  0.0000E+00  0.0000E+00  0.8081E-01  0.8081E-01
     -8.361  0.0000E+00  0.0000E+00  0.8081E-01  0.8081E-01
     -8.285  0.0000E+00  0.0000E+00  0.8081E-01  0.8081E-01
     -8.208  0.3498E-01  0.0000E+00  0.8125E-01  0.8081E-01
     -8.131  0.3899E-01  0.3741E-01  0.8482E-01  0.8133E-01
     -8.054  0.3333E-01  0.3936E-01  0.8760E-01  0.8494E-01
     -7.977  0.1282E-02  0.3325E-01  0.9089E-01  0.8773E-01
     -7.900  0.2111E-01  0.1479E-02  0.9285E-01  0.9088E-01
     -7.823  0.2907E-01  0.2057E-01  0.9521E-01  0.9281E-01
     -7.747  0.4359E-01  0.2913E-01  0.9770E-01  0.9521E-01
     -7.670  0.3653E-01  0.3481E-01  0.1007E+00  0.9767E-01
     -7.593  0.3224E-01  0.3652E-01  0.1033E+00  0.1007E+00
     -7.516  0.5028E-01  0.3201E-01  0.1063E+00  0.1033E+00
     -7.439  0.3417E-01  0.5095E-01  0.1107E+00  0.1064E+00
     -7.362  0.7682E-02  0.3380E-01  0.1130E+00  0.1107E+00
     -7.285  0.8966E-02  0.7533E-02  0.1137E+00  0.1129E+00
     -7.209  0.1025E-01  0.8790E-02  0.1144E+00  0.1135E+00
     -7.132  0.1153E-01  0.1005E-01  0.1152E+00  0.1143E+00
     -7.055  0.1282E-01  0.1130E-01  0.1162E+00  0.1151E+00
     -6.978  0.5042E-01  0.1256E-01  0.1189E+00  0.1160E+00
     -6.901  0.3009E-01  0.7153E-01  0.1215E+00  0.1181E+00
     -6.824  0.2434E-01  0.3076E-01  0.1236E+00  0.1211E+00
     -6.747  0.1215E-01  0.2470E-01  0.1253E+00  0.1232E+00
     -6.671  0.2451E-01  0.9510E-02  0.1271E+00  0.1249E+00
     -6.594  0.3144E-01  0.1799E-01  0.1293E+00  0.1261E+00
     -6.517  0.5441E-01  0.2379E-01  0.1324E+00  0.1277E+00
     -6.440  0.9692E-01  0.2960E-01  0.1386E+00  0.1298E+00
     -6.363  0.5183E-01  0.3773E-01  0.1435E+00  0.1324E+00
     -6.286  0.7089E-01  0.5163E-01  0.1493E+00  0.1365E+00
     -6.209  0.3186E-01  0.3535E-01  0.1516E+00  0.1403E+00
     -6.133  0.1517E+00  0.3809E-01  0.1604E+00  0.1429E+00
     -6.056  0.7730E-01  0.7578E-01  0.1694E+00  0.1466E+00
     -5.979  0.2944E-01  0.0000E+00  0.1752E+00  0.1515E+00
     -5.902  0.3150E-01  0.4460E-01  0.1789E+00  0.1533E+00
     -5.825  0.6417E-02  0.4115E-01  0.1816E+00  0.1564E+00
     -5.748  0.3774E-03  0.1101E+00  0.1818E+00  0.1623E+00
     -5.671  0.2274E-01  0.8795E-01  0.1837E+00  0.1703E+00
     -5.595  0.7695E-01  0.5731E-01  0.1863E+00  0.1763E+00
     -5.518  0.6930E-01  0.6911E-01  0.1917E+00  0.1804E+00
     -5.441  0.3802E-01  0.3398E-01  0.1969E+00  0.1845E+00
     -5.364  0.2793E-01  0.3132E-01  0.1985E+00  0.1870E+00
     -5.287  0.5927E-01  0.6440E-01  0.2049E+00  0.1906E+00
     -5.210  0.1954E-01  0.5911E-01  0.2072E+00  0.1961E+00
     -5.133  0.1585E-01  0.1106E-01  0.2086E+00  0.1983E+00
     -5.057  0.2085E-01  0.2325E-01  0.2102E+00  0.2054E+00
     -4.980  0.6648E-02  0.2004E-01  0.2112E+00  0.2070E+00
     -4.903  0.2233E+00  0.1683E-01  0.2173E+00  0.2084E+00
     -4.826  0.9446E-02  0.3450E-01  0.2215E+00  0.2098E+00
     -4.749  0.4534E-02  0.8082E-01  0.2220E+00  0.2136E+00
     -4.672  0.6111E-01  0.4504E-01  0.2274E+00  0.2185E+00
     -4.595  0.1771E+00  0.3183E-01  0.2364E+00  0.2214E+00
     -4.519  0.7407E-01  0.3011E-01  0.2486E+00  0.2227E+00
     -4.442  0.9138E-01  0.6840E-01  0.2560E+00  0.2259E+00
     -4.365  0.7338E-01  0.9157E-01  0.2618E+00  0.2319E+00
     -4.288  0.2761E-01  0.9637E-01  0.2739E+00  0.2393E+00
     -4.211  0.3655E-01  0.2360E-01  0.2776E+00  0.2518E+00
     -4.134  0.4461E-01  0.8975E-01  0.2807E+00  0.2575E+00
     -4.057  0.5588E-01  0.8381E-01  0.2907E+00  0.2657E+00
     -3.981  0.2416E-01  0.1086E+00  0.2931E+00  0.2727E+00
     -3.904  0.2935E-01  0.9193E-01  0.2952E+00  0.2789E+00
     -3.827  0.5294E-01  0.1358E+00  0.2987E+00  0.2888E+00
     -3.750  0.6891E-01  0.2847E-01  0.3063E+00  0.2930E+00
     -3.673  0.2059E-01  0.3472E-01  0.3090E+00  0.2954E+00
     -3.596  0.1788E-01  0.2036E+00  0.3105E+00  0.3013E+00
     -3.519  0.1083E-01  0.6084E-01  0.3117E+00  0.3079E+00
     -3.443  0.7743E-02  0.2118E-01  0.3124E+00  0.3100E+00
     -3.366  0.4653E-02  0.1621E-01  0.3129E+00  0.3115E+00
     -3.289  0.1562E-02  0.9561E-02  0.3131E+00  0.3124E+00
     -3.212  0.0000E+00  0.4964E-02  0.3131E+00  0.3129E+00
     -3.135  0.1076E-02  0.3677E-03  0.3131E+00  0.3131E+00
     -3.058  0.1124E-01  0.0000E+00  0.3136E+00  0.3131E+00
     -2.981  0.2140E-01  0.0000E+00  0.3149E+00  0.3131E+00
     -2.905  0.3157E-01  0.0000E+00  0.3169E+00  0.3131E+00
     -2.828  0.1110E-01  0.0000E+00  0.3207E+00  0.3131E+00
     -2.751  0.7754E-01  0.0000E+00  0.3229E+00  0.3131E+00
     -2.674  0.7884E-01  0.0000E+00  0.3271E+00  0.3131E+00
     -2.597  0.4952E-01  0.9147E-02  0.3319E+00  0.3134E+00
     -2.520  0.0000E+00  0.2275E-01  0.3333E+00  0.3146E+00
     -2.443  0.1251E+00  0.3635E-01  0.3393E+00  0.3169E+00
     -2.367  0.3725E-02  0.1362E-01  0.3427E+00  0.3210E+00
     -2.290  0.3024E-02  0.3865E-01  0.3429E+00  0.3243E+00
     -2.213  0.4442E-01  0.4205E-01  0.3444E+00  0.3283E+00
     -2.136  0.4455E-01  0.4125E-01  0.3501E+00  0.3320E+00
     -2.059  0.7633E-02  0.1444E+00  0.3532E+00  0.3356E+00
     -1.982  0.1811E-02  0.3860E-02  0.3535E+00  0.3427E+00
     -1.905  0.0000E+00  0.3115E-02  0.3535E+00  0.3429E+00
     -1.829  0.0000E+00  0.4318E-01  0.3535E+00  0.3445E+00
     -1.752  0.0000E+00  0.4331E-01  0.3535E+00  0.3500E+00
     -1.675  0.0000E+00  0.7840E-02  0.3535E+00  0.3532E+00
     -1.598  0.0000E+00  0.1198E-02  0.3535E+00  0.3535E+00
     -1.521  0.0000E+00  0.0000E+00  0.3535E+00  0.3535E+00
     -1.444  0.0000E+00  0.0000E+00  0.3535E+00  0.3535E+00
     -1.367  0.0000E+00  0.0000E+00  0.3535E+00  0.3535E+00
     -1.291  0.0000E+00  0.0000E+00  0.3535E+00  0.3535E+00
     -1.214  0.0000E+00  0.0000E+00  0.3535E+00  0.3535E+00
     -1.137  0.0000E+00  0.0000E+00  0.3535E+00  0.3535E+00
     -1.060  0.0000E+00  0.0000E+00  0.3535E+00  0.3535E+00
     -0.983  0.0000E+00  0.0000E+00  0.3535E+00  0.3535E+00
     -0.906  0.0000E+00  0.0000E+00  0.3535E+00  0.3535E+00
     -0.829  0.0000E+00  0.0000E+00  0.3535E+00  0.3535E+00
     -0.753  0.0000E+00  0.0000E+00  0.3535E+00  0.3535E+00
     -0.676  0.0000E+00  0.0000E+00  0.3535E+00  0.3535E+00
     -0.599  0.0000E+00  0.0000E+00  0.3535E+00  0.3535E+00
     -0.522  0.0000E+00  0.0000E+00  0.3535E+00  0.3535E+00
     -0.445  0.6140E-02  0.0000E+00  0.3543E+00  0.3535E+00
     -0.368  0.8577E-02  0.5506E-02  0.3548E+00  0.3541E+00
     -0.291  0.1101E-01  0.7722E-02  0.3556E+00  0.3546E+00
     -0.215  0.1345E-01  0.1009E-01  0.3565E+00  0.3553E+00
     -0.138  0.1590E-01  0.1246E-01  0.3577E+00  0.3562E+00
     -0.061  0.1905E-01  0.1483E-01  0.3590E+00  0.3572E+00
      0.016  0.6277E-01  0.1783E-01  0.3623E+00  0.3585E+00
      0.093  0.8502E-01  0.2746E-01  0.3681E+00  0.3600E+00
      0.170  0.1979E-01  0.6939E-01  0.3703E+00  0.3646E+00
      0.247  0.1784E-01  0.2891E-01  0.3717E+00  0.3693E+00
      0.323  0.1589E-01  0.2049E-01  0.3730E+00  0.3710E+00
      0.400  0.0000E+00  0.1794E-01  0.3737E+00  0.3725E+00
      0.477  0.5469E-02  0.0000E+00  0.3742E+00  0.3737E+00
      0.554  0.6562E-02  0.5666E-02  0.3746E+00  0.3742E+00
      0.631  0.7655E-02  0.6830E-02  0.3752E+00  0.3747E+00
      0.708  0.8748E-02  0.7995E-02  0.3758E+00  0.3753E+00
      0.785  0.9841E-02  0.9159E-02  0.3765E+00  0.3759E+00
      0.861  0.2070E-01  0.1997E-01  0.3784E+00  0.3771E+00
      0.938  0.2459E-01  0.2146E-01  0.3801E+00  0.3787E+00
      1.015  0.3628E-01  0.2773E-01  0.3824E+00  0.3805E+00
      1.092  0.3429E-01  0.4133E-01  0.3852E+00  0.3831E+00
      1.169  0.3655E-01  0.3312E-01  0.3878E+00  0.3858E+00
      1.246  0.3560E-01  0.3683E-01  0.3906E+00  0.3885E+00
      1.323  0.9442E-02  0.3576E-01  0.3938E+00  0.3913E+00
      1.399  0.1252E-01  0.7612E-02  0.3950E+00  0.3938E+00
      1.476  0.1840E-01  0.1226E-01  0.3962E+00  0.3949E+00
      1.553  0.2500E-01  0.1802E-01  0.3978E+00  0.3961E+00
      1.630  0.5639E-01  0.2709E-01  0.4010E+00  0.3978E+00
      1.707  0.8692E-01  0.6840E-01  0.4067E+00  0.4013E+00
      1.784  0.5556E-01  0.4509E-01  0.4113E+00  0.4077E+00
      1.861  0.2400E-01  0.5816E-01  0.4160E+00  0.4112E+00
      1.937  0.3798E-01  0.2193E-01  0.4184E+00  0.4158E+00
      2.014  0.3614E-01  0.4205E-01  0.4213E+00  0.4180E+00
      2.091  0.1946E-01  0.4368E-01  0.4235E+00  0.4213E+00
      2.168  0.3682E-01  0.6519E-01  0.4268E+00  0.4244E+00
      2.245  0.1863E-01  0.2833E-01  0.4291E+00  0.4278E+00
      2.322  0.1664E-01  0.1487E-01  0.4303E+00  0.4293E+00
      2.399  0.1603E+00  0.1626E-01  0.4318E+00  0.4306E+00
      2.475  0.3740E-01  0.4271E-01  0.4367E+00  0.4348E+00
      2.552  0.2625E-01  0.3134E-01  0.4391E+00  0.4376E+00
      2.629  0.8769E-01  0.5432E-01  0.4449E+00  0.4399E+00
      2.706  0.4236E-01  0.7739E-01  0.4504E+00  0.4461E+00
      2.783  0.1916E-01  0.3949E-01  0.4533E+00  0.4511E+00
      2.860  0.4706E-01  0.1849E-01  0.4571E+00  0.4537E+00
      2.937  0.3978E-01  0.5694E-01  0.4604E+00  0.4583E+00
      3.013  0.4675E-01  0.4738E-01  0.4640E+00  0.4622E+00
      3.090  0.4188E-01  0.0000E+00  0.4671E+00  0.4646E+00
      3.167  0.3690E-01  0.3689E-01  0.4699E+00  0.4677E+00
      3.244  0.4534E-01  0.4239E-01  0.4731E+00  0.4707E+00
      3.321  0.2329E-01  0.5100E-01  0.4771E+00  0.4742E+00
      3.398  0.1379E+00  0.2400E-01  0.4806E+00  0.4778E+00
      3.475  0.1202E-01  0.4366E-01  0.4826E+00  0.4819E+00
      3.551  0.1147E-01  0.1276E-01  0.4835E+00  0.4831E+00
      3.628  0.1091E-01  0.1305E-01  0.4844E+00  0.4841E+00
      3.705  0.0000E+00  0.0000E+00  0.4848E+00  0.4848E+00
      3.782  0.0000E+00  0.0000E+00  0.4848E+00  0.4848E+00
      3.859  0.0000E+00  0.0000E+00  0.4848E+00  0.4848E+00
      3.936  0.0000E+00  0.0000E+00  0.4848E+00  0.4848E+00
      4.013  0.0000E+00  0.0000E+00  0.4848E+00  0.4848E+00
      4.089  0.0000E+00  0.0000E+00  0.4848E+00  0.4848E+00
      4.166  0.0000E+00  0.0000E+00  0.4848E+00  0.4848E+00
      4.243  0.0000E+00  0.0000E+00  0.4848E+00  0.4848E+00
      4.320  0.0000E+00  0.0000E+00  0.4848E+00  0.4848E+00
      4.397  0.0000E+00  0.0000E+00  0.4848E+00  0.4848E+00
      4.474  0.0000E+00  0.0000E+00  0.4848E+00  0.4848E+00
      4.551  0.0000E+00  0.0000E+00  0.4848E+00  0.4848E+00
      4.627  0.0000E+00  0.0000E+00  0.4848E+00  0.4848E+00
      4.704  0.0000E+00  0.0000E+00  0.4848E+00  0.4848E+00
      4.70425850    -18.35288323  301     -2.57278278      1.00000000
    -18.353  0.0000E+00  0.0000E+00  0.0000E+00  0.0000E+00  0.0000E+00  0.0000E+00  0.0000E+00  0.0000E+00  0.0000E+00  0.0000E+00  0.0000E+00  0.0000E+00  0.0000E+00  0.0000E+00  0.0000E+00  0.0000E+00  0.0000E+00  0.0000E+00
    -18.276  0.0000E+00  0.0000E+00  0.0000E+00  0.0000E+00  0.0000E+00  0.0000E+00  0.0000E+00  0.0000E+00  0.0000E+00  0.0000E+00  0.0000E+00  0.0000E+00  0.0000E+00  0.0000E+00  0.0000E+00  0.0000E+00  0.0000E+00  0.0000E+00
    -18.199  0.0000E+00  0.0000E+00  0.0000E+00  0.0000E+00  0.0000E+00  0.0000E+00  0.0000E+00  0.0000E+00  0.0000E+00  0.0000E+00  0.0000E+00  0.0000E+00  0.0000E+00  0.0000E+00  0.0000E+00  0.0000E+00  0.0000E+00  0.0000E+00
    -18.122  0.0000E+00  0.0000E+00  0.0000E+00  0.0000E+00  0.0000E+00  0.0000E+00  0.0000E+00  0.0000E+00  0.0000E+00  0.0000E+00  0.0000E+00  0.0000E+00  0.0000E+00  0.0000E+00  0.0000E+00  0.0000E+00  0.0000E+00  0.0000E+00
    -18.045  0.0000E+00  0.0000E+00  0.0000E+00  0.0000E+00  0.0000E+00  0.0000E+00  0.0000E+00  0.0000E+00  0.0000E+00  0.0000E+00  0.0000E+00  0.0000E+00  0.0000E+00  0.0000E+00  0.0000E+00  0.0000E+00  0.0000E+00  0.0000E+00
    -17.969  0.0000E+00  0.0000E+00  0.0000E+00  0.0000E+00  0.0000E+00  0.0000E+00  0.0000E+00  0.0000E+00  0.0000E+00  0.0000E+00  0.0000E+00  0.0000E+00  0.0000E+00  0.0000E+00  0.0000E+00  0.0000E+00  0.0000E+00  0.0000E+00
    -17.892  0.0000E+00  0.0000E+00  0.0000E+00  0.0000E+00  0.0000E+00  0.0000E+00  0.0000E+00  0.0000E+00  0.0000E+00  0.0000E+00  0.0000E+00  0.0000E+00  0.0000E+00  0.0000E+00  0.0000E+00  0.0000E+00  0.0000E+00  0.0000E+00
    -17.815  0.0000E+00  0.0000E+00  0.0000E+00  0.0000E+00  0.0000E+00  0.0000E+00  0.0000E+00  0.0000E+00  0.0000E+00  0.0000E+00  0.0000E+00  0.0000E+00  0.0000E+00  0.0000E+00  0.0000E+00  0.0000E+00  0.0000E+00  0.0000E+00
    -17.738  0.0000E+00  0.0000E+00  0.0000E+00  0.0000E+00  0.0000E+00  0.0000E+00  0.0000E+00  0.0000E+00  0.0000E+00  0.0000E+00  0.0000E+00  0.0000E+00  0.0000E+00  0.0000E+00  0.0000E+00  0.0000E+00  0.0000E+00  0.0000E+00
    -17.661  0.0000E+00  0.0000E+00  0.0000E+00  0.0000E+00  0.0000E+00  0.0000E+00  0.0000E+00  0.0000E+00  0.0000E+00  0.0000E+00  0.0000E+00  0.0000E+00  0.0000E+00  0.0000E+00  0.0000E+00  0.0000E+00  0.0000E+00  0.0000E+00
    -17.584  0.0000E+00  0.0000E+00  0.0000E+00  0.0000E+00  0.0000E+00  0.0000E+00  0.0000E+00  0.0000E+00  0.0000E+00  0.0000E+00  0.0000E+00  0.0000E+00  0.0000E+00  0.0000E+00  0.0000E+00  0.0000E+00  0.0000E+00  0.0000E+00
    -17.507  0.0000E+00  0.0000E+00  0.0000E+00  0.0000E+00  0.0000E+00  0.0000E+00  0.0000E+00  0.0000E+00  0.0000E+00  0.0000E+00  0.0000E+00  0.0000E+00  0.0000E+00  0.0000E+00  0.0000E+00  0.0000E+00  0.0000E+00  0.0000E+00
    -17.431  0.0000E+00  0.0000E+00  0.0000E+00  0.0000E+00  0.0000E+00  0.0000E+00  0.0000E+00  0.0000E+00  0.0000E+00  0.0000E+00  0.0000E+00  0.0000E+00  0.0000E+00  0.0000E+00  0.0000E+00  0.0000E+00  0.0000E+00  0.0000E+00
    -17.354  0.0000E+00  0.0000E+00  0.0000E+00  0.0000E+00  0.0000E+00  0.0000E+00  0.0000E+00  0.0000E+00  0.0000E+00  0.0000E+00  0.0000E+00  0.0000E+00  0.0000E+00  0.0000E+00  0.0000E+00  0.0000E+00  0.0000E+00  0.0000E+00
    -17.277  0.5352E-02  0.0000E+00  0.2788E-04  0.0000E+00  0.1946E-09  0.0000E+00  0.8364E-04  0.0000E+00  0.5326E-06  0.0000E+00  0.1068E-05  0.0000E+00  0.5378E-05  0.0000E+00  0.3617E-06  0.0000E+00  0.1750E-06  0.0000E+00
    -17.200  0.1986E-01  0.5937E-02  0.1301E-03  0.3119E-04  0.7620E-09  0.2150E-09  0.3902E-03  0.9355E-04  0.2485E-05  0.5735E-06  0.4984E-05  0.1132E-05  0.2057E-04  0.5694E-05  0.1687E-05  0.3832E-06  0.8164E-06  0.1884E-06
    -17.123  0.1369E-01  0.2047E-01  0.1264E-03  0.1350E-03  0.1995E-06  0.7818E-09  0.8436E-03  0.4048E-03  0.3615E-05  0.2482E-05  0.1108E-04  0.4897E-05  0.1740E-04  0.2025E-04  0.1213E-04  0.1658E-05  0.9367E-05  0.8151E-06
    -17.046  0.1445E-01  0.1379E-01  0.1765E-03  0.1284E-03  0.2558E-06  0.2050E-06  0.1125E-02  0.8562E-03  0.6998E-05  0.3590E-05  0.1875E-04  0.1077E-04  0.1965E-04  0.1683E-04  0.1707E-04  0.1150E-04  0.1280E-04  0.9057E-05
    -16.969  0.1516E-01  0.1455E-01  0.2357E-03  0.1789E-03  0.3037E-06  0.2619E-06  0.1414E-02  0.1138E-02  0.1093E-04  0.6824E-05  0.2731E-04  0.1800E-04  0.2193E-04  0.1902E-04  0.2196E-04  0.1611E-04  0.1607E-04  0.1232E-04
    -16.893  0.1583E-01  0.1526E-01  0.3041E-03  0.2385E-03  0.3431E-06  0.3102E-06  0.1711E-02  0.1428E-02  0.1542E-04  0.1058E-04  0.3678E-04  0.2608E-04  0.2422E-04  0.2123E-04  0.2679E-04  0.2067E-04  0.1918E-04  0.1543E-04
    -16.816  0.1402E-01  0.1593E-01  0.6201E-03  0.3073E-03  0.1017E-05  0.3501E-06  0.2508E-02  0.1726E-02  0.2434E-04  0.1486E-04  0.8241E-04  0.3499E-04  0.2399E-04  0.2346E-04  0.6346E-04  0.2518E-04  0.3269E-04  0.1838E-04
    -16.739  0.1872E-01  0.1405E-01  0.1497E-02  0.6303E-03  0.2146E-05  0.1044E-05  0.4722E-02  0.2536E-02  0.5681E-04  0.2318E-04  0.1943E-03  0.7854E-04  0.3587E-04  0.2322E-04  0.1361E-03  0.6009E-04  0.5953E-04  0.3125E-04
    -16.662  0.1362E-01  0.1872E-01  0.1282E-02  0.1501E-02  0.2077E-05  0.2165E-05  0.3911E-02  0.4730E-02  0.4444E-04  0.5330E-04  0.1690E-03  0.1822E-03  0.2644E-04  0.3462E-04  0.1247E-03  0.1271E-03  0.5253E-04  0.5607E-04
    -16.585  0.8987E-02  0.1362E-01  0.1022E-02  0.1284E-02  0.1855E-05  0.2093E-05  0.3021E-02  0.3915E-02  0.3202E-04  0.4153E-04  0.1370E-03  0.1584E-03  0.1774E-04  0.2552E-04  0.1063E-03  0.1163E-03  0.4335E-04  0.4938E-04
    -16.508  0.4813E-02  0.8980E-02  0.7174E-03  0.1023E-02  0.1481E-05  0.1867E-05  0.2053E-02  0.3022E-02  0.1954E-04  0.2977E-04  0.9820E-04  0.1282E-03  0.9769E-05  0.1711E-04  0.8086E-04  0.9902E-04  0.3197E-04  0.4067E-04
    -16.431  0.8255E-09  0.4800E-02  0.5069E-05  0.7177E-03  0.2888E-02  0.1488E-05  0.1760E-05  0.2052E-02  0.1163E-04  0.1801E-04  0.3636E-04  0.9181E-04  0.3213E-08  0.9408E-05  0.1089E-03  0.7522E-04  0.3466E-04  0.2993E-04
    -16.355  0.2970E-08  0.6085E-09  0.3076E-04  0.3477E-05  0.1305E-01  0.2090E-02  0.1068E-04  0.1207E-05  0.7056E-04  0.7598E-05  0.2207E-03  0.2396E-04  0.1464E-07  0.2286E-08  0.6607E-03  0.7174E-04  0.2103E-03  0.2265E-04
    -16.278  0.2448E-01  0.2859E-08  0.1706E-02  0.2752E-04  0.1077E-01  0.1226E-01  0.3268E-02  0.9557E-05  0.4810E-03  0.6015E-04  0.5033E-03  0.1897E-03  0.8257E-04  0.1352E-07  0.2379E-02  0.5679E-03  0.9453E-03  0.1793E-03
    -16.201  0.4170E-01  0.2357E-01  0.3303E-02  0.1631E-02  0.1337E-01  0.1072E-01  0.7740E-02  0.3099E-02  0.9716E-03  0.4377E-03  0.1067E-02  0.4479E-03  0.1466E-03  0.7739E-04  0.3720E-02  0.2157E-02  0.1503E-02  0.8558E-03
    -16.124  0.0000E+00  0.4120E-01  0.0000E+00  0.3237E-02  0.0000E+00  0.1342E-01  0.0000E+00  0.7558E-02  0.0000E+00  0.9051E-03  0.0000E+00  0.9669E-03  0.0000E+00  0.1411E-03  0.0000E+00  0.3414E-02  0.0000E+00  0.1381E-02
    -16.047  0.2361E-02  0.0000E+00  0.1997E-02  0.0000E+00  0.5140E-02  0.0000E+00  0.6824E-03  0.0000E+00  0.4079E-03  0.0000E+00  0.9683E-03  0.0000E+00  0.1168E-04  0.0000E+00  0.2669E-02  0.0000E+00  0.1076E-02  0.0000E+00
    -15.970  0.5750E-02  0.0000E+00  0.4865E-02  0.0000E+00  0.4711E-02  0.0000E+00  0.1772E-02  0.0000E+00  0.8199E-03  0.0000E+00  0.1745E-02  0.0000E+00  0.2930E-04  0.0000E+00  0.2682E-02  0.0000E+00  0.1185E-02  0.0000E+00
    -15.893  0.1903E-01  0.5894E-02  0.1550E-01  0.4821E-02  0.3565E-02  0.4922E-02  0.5142E-02  0.1747E-02  0.1994E-02  0.7449E-03  0.3827E-02  0.1568E-02  0.9641E-04  0.2933E-04  0.3419E-02  0.2474E-02  0.1994E-02  0.1089E-02
    -15.817  0.1136E-01  0.2272E-01  0.4809E-02  0.1779E-01  0.4781E-02  0.3861E-02  0.6754E-02  0.5832E-02  0.2137E-02  0.2024E-02  0.4000E-02  0.3746E-02  0.6019E-04  0.1123E-03  0.5114E-02  0.3196E-02  0.1795E-02  0.1969E-02
    -15.740  0.9222E-02  0.1154E-01  0.6763E-02  0.4690E-02  0.5339E-02  0.4865E-02  0.7081E-02  0.6960E-02  0.1816E-02  0.2140E-02  0.3245E-02  0.4010E-02  0.4980E-04  0.5995E-04  0.4349E-02  0.5350E-02  0.1774E-02  0.1867E-02
    -15.663  0.8043E-02  0.9178E-02  0.1316E-01  0.6705E-02  0.1465E-01  0.5287E-02  0.8809E-02  0.7122E-02  0.2767E-02  0.1725E-02  0.6164E-02  0.3045E-02  0.4544E-04  0.4862E-04  0.6984E-02  0.4154E-02  0.2812E-02  0.1698E-02
    -15.586  0.5005E-02  0.8121E-02  0.1606E-01  0.1266E-01  0.1340E-01  0.1430E-01  0.8322E-02  0.8709E-02  0.2535E-02  0.2563E-02  0.6209E-02  0.5628E-02  0.2996E-04  0.4495E-04  0.6156E-02  0.6453E-02  0.2460E-02  0.2612E-02
    -15.509  0.1901E-01  0.5235E-02  0.1303E-01  0.1557E-01  0.1591E-01  0.1345E-01  0.7056E-02  0.8363E-02  0.1429E-01  0.2372E-02  0.3427E-01  0.5738E-02  0.1522E-03  0.3069E-04  0.1944E-01  0.5788E-02  0.7594E-02  0.2324E-02
    -15.432  0.6149E-02  0.1453E-01  0.8599E-02  0.1295E-01  0.5862E-02  0.1472E-01  0.6496E-02  0.6858E-02  0.6669E-02  0.1074E-01  0.1514E-01  0.2593E-01  0.5068E-04  0.1139E-03  0.1580E-01  0.1503E-01  0.6206E-02  0.5890E-02
    -15.355  0.1291E-02  0.6986E-02  0.3215E-02  0.9357E-02  0.1441E-02  0.6181E-02  0.2411E-02  0.6923E-02  0.3390E-02  0.6634E-02  0.8709E-02  0.1492E-01  0.1084E-04  0.5668E-04  0.1302E-01  0.1500E-01  0.4772E-02  0.5928E-02
    -15.279  0.0000E+00  0.2164E-02  0.0000E+00  0.4908E-02  0.0000E+00  0.2516E-02  0.0000E+00  0.3758E-02  0.0000E+00  0.4983E-02  0.0000E+00  0.1272E-01  0.0000E+00  0.1797E-04  0.0000E+00  0.1879E-01  0.0000E+00  0.6897E-02
    -15.202  0.0000E+00  0.0000E+00  0.0000E+00  0.0000E+00  0.0000E+00  0.0000E+00  0.0000E+00  0.0000E+00  0.0000E+00  0.0000E+00  0.0000E+00  0.0000E+00  0.0000E+00  0.0000E+00  0.0000E+00  0.0000E+00  0.0000E+00  0.0000E+00
    -15.125  0.0000E+00  0.0000E+00  0.0000E+00  0.0000E+00  0.0000E+00  0.0000E+00  0.0000E+00  0.0000E+00  0.0000E+00  0.0000E+00  0.0000E+00  0.0000E+00  0.0000E+00  0.0000E+00  0.0000E+00  0.0000E+00  0.0000E+00  0.0000E+00
    -15.048  0.0000E+00  0.0000E+00  0.0000E+00  0.0000E+00  0.0000E+00  0.0000E+00  0.0000E+00  0.0000E+00  0.0000E+00  0.0000E+00  0.0000E+00  0.0000E+00  0.0000E+00  0.0000E+00  0.0000E+00  0.0000E+00  0.0000E+00  0.0000E+00
    -14.971  0.0000E+00  0.0000E+00  0.0000E+00  0.0000E+00  0.0000E+00  0.0000E+00  0.0000E+00  0.0000E+00  0.0000E+00  0.0000E+00  0.0000E+00  0.0000E+00  0.0000E+00  0.0000E+00  0.0000E+00  0.0000E+00  0.0000E+00  0.0000E+00
    -14.894  0.0000E+00  0.0000E+00  0.0000E+00  0.0000E+00  0.0000E+00  0.0000E+00  0.0000E+00  0.0000E+00  0.0000E+00  0.0000E+00  0.0000E+00  0.0000E+00  0.0000E+00  0.0000E+00  0.0000E+00  0.0000E+00  0.0000E+00  0.0000E+00
    -14.817  0.0000E+00  0.0000E+00  0.0000E+00  0.0000E+00  0.0000E+00  0.0000E+00  0.0000E+00  0.0000E+00  0.0000E+00  0.0000E+00  0.0000E+00  0.0000E+00  0.0000E+00  0.0000E+00  0.0000E+00  0.0000E+00  0.0000E+00  0.0000E+00
    -14.741  0.0000E+00  0.0000E+00  0.0000E+00  0.0000E+00  0.0000E+00  0.0000E+00  0.0000E+00  0.0000E+00  0.0000E+00  0.0000E+00  0.0000E+00  0.0000E+00  0.0000E+00  0.0000E+00  0.0000E+00  0.0000E+00  0.0000E+00  0.0000E+00
    -14.664  0.0000E+00  0.0000E+00  0.0000E+00  0.0000E+00  0.0000E+00  0.0000E+00  0.0000E+00  0.0000E+00  0.0000E+00  0.0000E+00  0.0000E+00  0.0000E+00  0.0000E+00  0.0000E+00  0.0000E+00  0.0000E+00  0.0000E+00  0.0000E+00
    -14.587  0.0000E+00  0.0000E+00  0.0000E+00  0.0000E+00  0.0000E+00  0.0000E+00  0.0000E+00  0.0000E+00  0.0000E+00  0.0000E+00  0.0000E+00  0.0000E+00  0.0000E+00  0.0000E+00  0.0000E+00  0.0000E+00  0.0000E+00  0.0000E+00
    -14.510  0.0000E+00  0.0000E+00  0.0000E+00  0.0000E+00  0.0000E+00  0.0000E+00  0.0000E+00  0.0000E+00  0.0000E+00  0.0000E+00  0.0000E+00  0.0000E+00  0.0000E+00  0.0000E+00  0.0000E+00  0.0000E+00  0.0000E+00  0.0000E+00