       N       E                     dE             d eps       ncg     rms          rms(c)
DAV:   1     0.411029002726E+03    0.41103E+03   -0.19764E+04   960   0.951E+02
DAV:   2     0.273049629002E+02   -0.38372E+03   -0.35759E+03  1360   0.189E+02
DAV:   3    -0.403245531909E+02   -0.67630E+02   -0.64545E+02  1264   0.766E+01
DAV:   4    -0.428590551264E+02   -0.25345E+01   -0.25175E+01  1200   0.189E+01
DAV:   5    -0.429204296561E+02   -0.61375E-01   -0.61358E-01  1280   0.295E+00    0.384E+01
DAV:   6    -0.118718556346E+03   -0.75798E+02   -0.10126E+03  1232   0.269E+02    0.665E+01
DAV:   7    -0.644451853610E+02    0.54273E+02   -0.75895E+01  1040   0.508E+01    0.405E+01
DAV:   8    -0.322256096268E+02    0.32220E+02   -0.62659E+01  1216   0.909E+01    0.147E+01
DAV:   9    -0.323130291411E+02   -0.87420E-01   -0.76835E+00  1392   0.177E+01    0.839E+00
DAV:  10    -0.365113631648E+02   -0.41983E+01   -0.26344E+01  1344   0.289E+01    0.172E+01
DAV:  11    -0.326527627797E+02    0.38586E+01   -0.23063E+02  1104   0.622E+01    0.158E+01
DAV:  12    -0.335149945528E+02   -0.86223E+00   -0.10048E+01  1392   0.163E+01    0.100E+01
DAV:  13    -0.344093096152E+02   -0.89432E+00   -0.77627E-01  1312   0.954E+00    0.117E+01
DAV:  14    -0.338335552762E+02    0.57575E+00   -0.12490E+00  1280   0.176E+01    0.459E+00
DAV:  15    -0.344158772281E+02   -0.58232E+00   -0.38628E-01  1248   0.759E+00    0.518E+00
DAV:  16    -0.346990281237E+02   -0.28315E+00   -0.35347E-01  1344   0.729E+00    0.133E+00
DAV:  17    -0.348357667936E+02   -0.13674E+00   -0.12210E-01  1072   0.160E+00    0.735E-01
DAV:  18    -0.348759770512E+02   -0.40210E-01   -0.47775E-02  1152   0.274E+00    0.121E+00
DAV:  19    -0.348759508157E+02    0.26236E-04   -0.20809E-02  1056   0.168E+00    0.517E-01
DAV:  20    -0.348802977201E+02   -0.43469E-02   -0.84375E-03  1248   0.102E+00    0.461E-01
DAV:  21    -0.348865480438E+02   -0.62503E-02   -0.47023E-03  1120   0.649E-01    0.225E-01
DAV:  22    -0.348922365594E+02   -0.56885E-02   -0.11623E-03  1088   0.198E-01    0.188E-01
DAV:  23    -0.348980969836E+02   -0.58604E-02   -0.77161E-04  1152   0.251E-01    0.156E-01
DAV:  24    -0.349045735885E+02   -0.64766E-02   -0.10338E-03  1072   0.175E-01    0.101E-01
DAV:  25    -0.349112841578E+02   -0.67106E-02   -0.18453E-03   992   0.214E-01    0.728E-02
DAV:  26    -0.349150022935E+02   -0.37181E-02   -0.22963E-03   976   0.241E-01    0.478E-02
DAV:  27    -0.349155849424E+02   -0.58265E-03   -0.50045E-04   960   0.125E-01    0.270E-02
DAV:  28    -0.349156192253E+02   -0.34283E-04   -0.48862E-04   928   0.117E-01
   1 F= -.34915619E+02 E0= -.34915619E+02  d E =-.349156E+02  mag=     1.9997
       N       E                     dE             d eps       ncg     rms          rms(c)
DAV:   1    -0.127460802855E+03   -0.92545E+02   -0.87316E+02  1312   0.259E+02    0.102E+02
DAV:   2    -0.347984481852E+03   -0.22052E+03   -0.21912E+03  1504   0.367E+02    0.646E+01
DAV:   3    -0.806628534242E+02    0.26732E+03   -0.61158E+02  1200   0.129E+02    0.383E+01
DAV:   4    -0.433160857217E+02    0.37347E+02   -0.38280E+02  1392   0.216E+02    0.278E+01
DAV:   5    -0.405446622651E+02    0.27714E+01   -0.45832E+01  1312   0.347E+01    0.124E+01
DAV:   6    -0.393929572887E+02    0.11517E+01   -0.10039E+01  1184   0.383E+01    0.663E+00
DAV:   7    -0.391010901726E+02    0.29187E+00   -0.25878E+00  1392   0.252E+01    0.296E+00
DAV:   8    -0.390669865831E+02    0.34104E-01   -0.35361E-01  1248   0.546E+00    0.113E+00
DAV:   9    -0.390690609407E+02   -0.20744E-02   -0.64074E-02  1488   0.373E+00    0.720E-01
DAV:  10    -0.390680806357E+02    0.98030E-03   -0.26785E-02  1152   0.180E+00    0.393E-01
DAV:  11    -0.390670744575E+02    0.10062E-02   -0.69587E-03  1424   0.741E-01    0.572E-01
DAV:  12    -0.390665113960E+02    0.56306E-03   -0.77684E-04  1152   0.196E-01    0.612E-01
DAV:  13    -0.390656498423E+02    0.86155E-03   -0.34450E-03  1056   0.622E-01    0.484E-01
DAV:  14    -0.390665481261E+02   -0.89828E-03   -0.22766E-03  1120   0.618E-01    0.655E-01
DAV:  15    -0.390674375846E+02   -0.88946E-03   -0.70241E-03  1040   0.139E+00    0.343E-01
DAV:  16    -0.390685568522E+02   -0.11193E-02   -0.53279E-03  1504   0.815E-01    0.520E-01
DAV:  17    -0.390635709646E+02    0.49859E-02   -0.34629E-03  1296   0.709E-01    0.271E-01
DAV:  18    -0.390573634652E+02    0.62075E-02   -0.52026E-03  1216   0.738E-01    0.731E-02
DAV:  19    -0.390538915556E+02    0.34719E-02   -0.21890E-03  1040   0.433E-01    0.411E-02
DAV:  20    -0.390512807332E+02    0.26108E-02   -0.14271E-03  1136   0.250E-01    0.851E-02
DAV:  21    -0.390514708028E+02   -0.19007E-03   -0.21220E-04   928   0.877E-02    0.547E-02
DAV:  22    -0.390519693560E+02   -0.49855E-03   -0.23537E-04   880   0.692E-02    0.479E-02
DAV:  23    -0.390521639143E+02   -0.19456E-03   -0.44761E-04  1024   0.893E-02    0.309E-02
DAV:  24    -0.390513085831E+02    0.85533E-03   -0.17844E-04   896   0.898E-02    0.249E-02
DAV:  25    -0.390513646775E+02   -0.56094E-04   -0.98787E-05   864   0.989E-02
   2 F= -.39051365E+02 E0= -.39051365E+02  d E =-.413575E+01  mag=     1.7801
       N       E                     dE             d eps       ncg     rms          rms(c)
DAV:   1    -0.397391816506E+02   -0.68787E+00   -0.72311E+00  1200   0.262E+01    0.745E+00
DAV:   2    -0.424098271592E+02   -0.26706E+01   -0.13587E+01  1168   0.630E+01    0.165E+01
DAV:   3    -0.392242565455E+02    0.31856E+01   -0.86951E+00  1040   0.356E+01    0.287E+00
DAV:   4    -0.391314437209E+02    0.92813E-01   -0.61306E-01  1152   0.689E+00    0.444E-01
DAV:   5    -0.391256602749E+02    0.57834E-02   -0.25771E-02  1232   0.866E-01    0.248E-01
DAV:   6    -0.391225435232E+02    0.31168E-02   -0.37073E-03  1232   0.446E-01    0.136E-01
DAV:   7    -0.391213947724E+02    0.11488E-02   -0.69743E-04  1040   0.251E-01    0.969E-02
DAV:   8    -0.391222397295E+02   -0.84496E-03   -0.51441E-04   928   0.140E-01    0.605E-02
DAV:   9    -0.391220239266E+02    0.21580E-03   -0.27628E-04   864   0.669E-02    0.504E-02
DAV:  10    -0.391210600639E+02    0.96386E-03   -0.14168E-04   768   0.597E-02    0.348E-02
DAV:  11    -0.391208265352E+02    0.23353E-03   -0.23512E-04   880   0.673E-02    0.228E-02
DAV:  12    -0.391208065621E+02    0.19973E-04   -0.87829E-05   864   0.450E-02
   3 F= -.39120807E+02 E0= -.39120807E+02  d E =-.420519E+01  mag=     1.8981
       N       E                     dE             d eps       ncg     rms          rms(c)
DAV:   1    -0.391480826943E+02   -0.27256E-01   -0.29176E-01   960   0.522E+00    0.151E+00
DAV:   2    -0.392542718166E+02   -0.10619E+00   -0.58231E-01   992   0.127E+01    0.360E+00
DAV:   3    -0.391221167071E+02    0.13216E+00   -0.35936E-01   992   0.962E+00    0.440E-01
DAV:   4    -0.391202150384E+02    0.19017E-02   -0.21004E-02  1072   0.935E-01    0.151E-01
DAV:   5    -0.391203149583E+02   -0.99920E-04   -0.65399E-04  1344   0.245E-01
   4 F= -.39120315E+02 E0= -.39120315E+02  d E =-.420470E+01  mag=     1.9028
       N       E                     dE             d eps       ncg     rms          rms(c)
DAV:   1    -0.391232601380E+02   -0.30451E-02   -0.14358E-01  1024   0.130E+00    0.137E-01
DAV:   2    -0.391236403346E+02   -0.38020E-03   -0.98681E-03  1120   0.889E-01    0.227E-01
DAV:   3    -0.391234156513E+02    0.22468E-03   -0.18447E-03  1056   0.671E-01    0.696E-02
DAV:   4    -0.391234022418E+02    0.13409E-04   -0.20873E-04   768   0.140E-01
   5 F= -.39123402E+02 E0= -.39123402E+02  d E =-.308728E-02  mag=     1.9060
       N       E                     dE             d eps       ncg     rms          rms(c)
DAV:   1    -0.391238788643E+02   -0.46321E-03   -0.28037E-01  1024   0.185E+00    0.200E-01
DAV:   2    -0.391251402545E+02   -0.12614E-02   -0.20617E-02  1104   0.136E+00    0.344E-01
DAV:   3    -0.391243935775E+02    0.74668E-03   -0.37429E-03  1008   0.992E-01    0.953E-02
DAV:   4    -0.391244143413E+02   -0.20764E-04   -0.51255E-04  1024   0.193E-01
   6 F= -.39124414E+02 E0= -.39124414E+02  d E =-.409938E-02  mag=     1.9058
       N       E                     dE             d eps       ncg     rms          rms(c)
DAV:   1    -0.391275703308E+02   -0.31768E-02   -0.10821E-01  1232   0.212E+00    0.558E-01
DAV:   2    -0.391448197803E+02   -0.17249E-01   -0.79165E-02  1072   0.446E+00    0.127E+00
DAV:   3    -0.391250109677E+02    0.19809E-01   -0.43536E-02   992   0.373E+00    0.165E-01
DAV:   4    -0.391256461452E+02   -0.63518E-03   -0.35930E-03  1056   0.280E-01    0.108E-01
DAV:   5    -0.391256333446E+02    0.12801E-04   -0.22540E-04   928   0.221E-01
   7 F= -.39125633E+02 E0= -.39125633E+02  d E =-.121900E-02  mag=     1.9026
       N       E                     dE             d eps       ncg     rms          rms(c)
DAV:   1    -0.391258499203E+02   -0.20378E-03   -0.16520E-02  1040   0.805E-01    0.216E-01
DAV:   2    -0.391290953894E+02   -0.32455E-02   -0.11583E-02  1184   0.171E+00    0.485E-01
DAV:   3    -0.391254478026E+02    0.36476E-02   -0.65220E-03  1024   0.143E+00    0.684E-02
DAV:   4    -0.391258623068E+02   -0.41450E-03   -0.53380E-04  1008   0.113E-01    0.414E-02
DAV:   5    -0.391258772583E+02   -0.14952E-04   -0.32590E-05   768   0.866E-02
   8 F= -.39125877E+02 E0= -.39125877E+02  d E =-.146292E-02  mag=     1.8999
       N       E                     dE             d eps       ncg     rms          rms(c)
DAV:   1    -0.391265033634E+02   -0.64106E-03   -0.89121E-03  1088   0.404E-01    0.917E-02
DAV:   2    -0.391273106473E+02   -0.80728E-03   -0.20140E-03  1024   0.694E-01    0.200E-01
DAV:   3    -0.391265183446E+02    0.79230E-03   -0.10742E-03  1056   0.574E-01    0.321E-02
DAV:   4    -0.391266473489E+02   -0.12900E-03   -0.13206E-04   784   0.556E-02    0.134E-02
DAV:   5    -0.391266574257E+02   -0.10077E-04   -0.14482E-05   896   0.340E-02
   9 F= -.39126657E+02 E0= -.39126657E+02  d E =-.780167E-03  mag=     1.8990
       N       E                     dE             d eps       ncg     rms          rms(c)
DAV:   1    -0.391267313212E+02   -0.83972E-04   -0.89716E-03  1056   0.413E-01    0.945E-02
DAV:   2    -0.391275601161E+02   -0.82879E-03   -0.21741E-03  1024   0.726E-01    0.209E-01
DAV:   3    -0.391267026401E+02    0.85748E-03   -0.11506E-03  1024   0.595E-01    0.319E-02
DAV:   4    -0.391268311303E+02   -0.12849E-03   -0.13198E-04   752   0.580E-02    0.128E-02
DAV:   5    -0.391268453641E+02   -0.14234E-04   -0.21637E-05   688   0.367E-02
  10 F= -.39126845E+02 E0= -.39126845E+02  d E =-.968106E-03  mag=     1.8989
