 vasp.5.4.4.18Apr17-6-g9f103f2a35 (build May  1 2020 15:48:39) complex           
 executed on             LinuxGNU date 2020.06.17  15:45:43
 running on   16 total cores
 distrk:  each k-point on   16 cores,    1 groups
 distr:  one band on NCORES_PER_BAND=   1 cores,   16 groups


--------------------------------------------------------------------------------------------------------


 INCAR:
 POTCAR:   PAW_PBE Ni 06Sep2000                   
 POTCAR:   PAW_PBE Si 05Jan2001                   
 POTCAR:   PAW_PBE Se 06Sep2000                   

 ----------------------------------------------------------------------------- 
|                                                                             |
|           W    W    AA    RRRRR   N    N  II  N    N   GGGG   !!!           |
|           W    W   A  A   R    R  NN   N  II  NN   N  G    G  !!!           |
|           W    W  A    A  R    R  N N  N  II  N N  N  G       !!!           |
|           W WW W  AAAAAA  RRRRR   N  N N  II  N  N N  G  GGG   !            |
|           WW  WW  A    A  R   R   N   NN  II  N   NN  G    G                |
|           W    W  A    A  R    R  N    N  II  N    N   GGGG   !!!           |
|                                                                             |
|      For optimal performance we recommend to set                            |
|        NCORE= 4 - approx SQRT( number of cores)                             |
|      NCORE specifies how many cores store one orbital (NPAR=cpu/NCORE).     |
|      This setting can  greatly improve the performance of VASP for DFT.     |
|      The default,   NCORE=1            might be grossly inefficient         |
|      on modern multi-core architectures or massively parallel machines.     |
|      Do your own testing !!!!                                               |
|      Unfortunately you need to use the default for GW and RPA calculations. |
|      (for HF NCORE is supported but not extensively tested yet)             |
|                                                                             |
 ----------------------------------------------------------------------------- 


 ----------------------------------------------------------------------------- 
|                                                                             |
|  ADVICE TO THIS USER RUNNING 'VASP/VAMP'   (HEAR YOUR MASTER'S VOICE ...):  |
|                                                                             |
|      You have switched on vdW-DFT.                                          |
|      This routine was written and supplied by Jiri Klimes.                  |
|      We recommed that you carefully read and cite the following             |
|      publication                                                            |
|      J. Klimes, D.R. Bowler, A. Michelides                                  |
|        J. Phys.: Cond Matt. 22 022201 (2010)                                |
|      J. Klimes, D.R. Bowler, A. Michelides                                  |
|        Phys. Rev. B. 83, 195131 (2011)                                      |
|      and references therein.                                                |
|                                                                             |
 ----------------------------------------------------------------------------- 

 POTCAR:   PAW_PBE Ni 06Sep2000                   
   VRHFIN =Ni:                                                                  
   LEXCH  = PE                                                                  
   EATOM  =  1077.9025 eV,   79.2236 Ry                                         
                                                                                
   TITEL  = PAW_PBE Ni 06Sep2000                                                
   LULTRA =        F    use ultrasoft PP ?                                      
   IUNSCR =        1    unscreen: 0-lin 1-nonlin 2-no                           
   RPACOR =    2.000    partial core radius                                     
   POMASS =   58.690; ZVAL   =   10.000    mass and valenz                      
   RCORE  =    2.300    outmost cutoff radius                                   
   RWIGS  =    2.430; RWIGS  =    1.286    wigner-seitz radius (au A)           
   ENMAX  =  269.533; ENMIN  =  202.150 eV                                      
   RCLOC  =    1.681    cutoff for local pot                                    
   LCOR   =        T    correct aug charges                                     
   LPAW   =        T    paw PP                                                  
   EAUG   =  544.565                                                            
   DEXC   =    -.009                                                            
   RMAX   =    2.808    core radius for proj-oper                               
   RAUG   =    1.300    factor for augmentation sphere                          
   RDEP   =    2.390    radius for radial grids                                 
   QCUT   =   -4.451; QGAM   =    8.902    optimization parameters              
                                                                                
   Description                                                                  
     l     E      TYP  RCUT    TYP  RCUT                                        
     2   .000     23  2.300                                                     
     2   .000     23  2.300                                                     
     0   .000     23  2.300                                                     
     0   .000     23  2.300                                                     
     1  -.200     23  2.300                                                     
     1   .000     23  2.300                                                     
     3   .000      7   .000                                                     
  local pseudopotential read in
  partial core-charges read in
  atomic valenz-charges read in
  non local Contribution for L=           2  read in
    real space projection operators read in
  non local Contribution for L=           2  read in
    real space projection operators read in
  non local Contribution for L=           0  read in
    real space projection operators read in
  non local Contribution for L=           0  read in
    real space projection operators read in
  non local Contribution for L=           1  read in
    real space projection operators read in
  non local Contribution for L=           1  read in
    real space projection operators read in
    PAW grid and wavefunctions read in

   number of l-projection  operators is LMAX  =           6
   number of lm-projection operators is LMMAX =          18

 POTCAR:   PAW_PBE Si 05Jan2001                   
   VRHFIN =Si: s2p2                                                             
   LEXCH  = PE                                                                  
   EATOM  =   103.0669 eV,    7.5752 Ry                                         
                                                                                
   TITEL  = PAW_PBE Si 05Jan2001                                                
   LULTRA =        F    use ultrasoft PP ?                                      
   IUNSCR =        1    unscreen: 0-lin 1-nonlin 2-no                           
   RPACOR =    1.500    partial core radius                                     
   POMASS =   28.085; ZVAL   =    4.000    mass and valenz                      
   RCORE  =    1.900    outmost cutoff radius                                   
   RWIGS  =    2.480; RWIGS  =    1.312    wigner-seitz radius (au A)           
   ENMAX  =  245.345; ENMIN  =  184.009 eV                                      
   ICORE  =        2    local potential                                         
   LCOR   =        T    correct aug charges                                     
   LPAW   =        T    paw PP                                                  
   EAUG   =  322.069                                                            
   DEXC   =    -.007                                                            
   RMAX   =    2.944    core radius for proj-oper                               
   RAUG   =    1.300    factor for augmentation sphere                          
   RDEP   =    1.993    radius for radial grids                                 
   QCUT   =   -4.246; QGAM   =    8.493    optimization parameters              
                                                                                
   Description                                                                  
     l     E      TYP  RCUT    TYP  RCUT                                        
     0   .000     23  1.900                                                     
     0   .000     23  1.900                                                     
     1   .000     23  1.900                                                     
     1   .000     23  1.900                                                     
     2   .000      7  1.900                                                     
  local pseudopotential read in
  partial core-charges read in
  atomic valenz-charges read in
  non local Contribution for L=           0  read in
    real space projection operators read in
  non local Contribution for L=           0  read in
    real space projection operators read in
  non local Contribution for L=           1  read in
    real space projection operators read in
  non local Contribution for L=           1  read in
    real space projection operators read in
    PAW grid and wavefunctions read in

   number of l-projection  operators is LMAX  =           4
   number of lm-projection operators is LMMAX =           8

 POTCAR:   PAW_PBE Se 06Sep2000                   
   VRHFIN =Se: s2p4                                                             
   LEXCH  = PE                                                                  
   EATOM  =   256.9644 eV,   18.8864 Ry                                         
                                                                                
   TITEL  = PAW_PBE Se 06Sep2000                                                
   LULTRA =        F    use ultrasoft PP ?                                      
   IUNSCR =        1    unscreen: 0-lin 1-nonlin 2-no                           
   RPACOR =    1.900    partial core radius                                     
   POMASS =   78.960; ZVAL   =    6.000    mass and valenz                      
   RCORE  =    2.100    outmost cutoff radius                                   
   RWIGS  =    2.200; RWIGS  =    1.164    wigner-seitz radius (au A)           
   ENMAX  =  211.534; ENMIN  =  158.651 eV                                      
   ICORE  =        3    local potential                                         
   LCOR   =        T    correct aug charges                                     
   LPAW   =        T    paw PP                                                  
   EAUG   =  446.842                                                            
   DEXC   =    -.031                                                            
   RMAX   =    3.170    core radius for proj-oper                               
   RAUG   =    1.300    factor for augmentation sphere                          
   RDEP   =    2.177    radius for radial grids                                 
   QCUT   =   -3.943; QGAM   =    7.886    optimization parameters              
                                                                                
   Description                                                                  
     l     E      TYP  RCUT    TYP  RCUT                                        
     0   .000     23  2.100                                                     
     0   .000     23  2.100                                                     
     1   .000     23  2.100                                                     
     1   .000     23  2.100                                                     
     2   .000     23  2.100                                                     
     3  -.100      7  2.100                                                     
  local pseudopotential read in
  partial core-charges read in
  atomic valenz-charges read in
  non local Contribution for L=           0  read in
    real space projection operators read in
  non local Contribution for L=           0  read in
    real space projection operators read in
  non local Contribution for L=           1  read in
    real space projection operators read in
  non local Contribution for L=           1  read in
    real space projection operators read in
  non local Contribution for L=           2  read in
    real space projection operators read in
    PAW grid and wavefunctions read in

   number of l-projection  operators is LMAX  =           5
   number of lm-projection operators is LMMAX =          13

 Optimization of the real space projectors (new method)

 maximal supplied QI-value         = 16.25
 optimisation between [QCUT,QGAM] = [ 11.54, 23.24] = [ 37.28,151.24] Ry 
 Optimized for a Real-space Cutoff    1.49 Angstroem

   l    n(q)    QCUT    max X(q) W(low)/X(q) W(high)/X(q)  e(spline) 
   2      9    11.539     4.811    0.20E-04    0.14E-04    0.45E-07
   2      9    11.539    15.146    0.24E-03    0.12E-03    0.20E-06
   0     10    11.539    14.357    0.18E-04    0.12E-05    0.14E-07
   0     10    11.539    43.282    0.39E-04    0.17E-04    0.23E-06
   1     10    11.539     5.514    0.99E-05    0.13E-04    0.19E-07
   1     10    11.539     7.697    0.38E-04    0.79E-04    0.91E-07
 Optimization of the real space projectors (new method)

 maximal supplied QI-value         = 19.84
 optimisation between [QCUT,QGAM] = [ 11.51, 23.22] = [ 37.09,150.92] Ry 
 Optimized for a Real-space Cutoff    1.21 Angstroem

   l    n(q)    QCUT    max X(q) W(low)/X(q) W(high)/X(q)  e(spline) 
   0      8    11.508     8.708    0.18E-04    0.44E-05    0.47E-08
   0      8    11.508   106.241    0.70E-04    0.15E-03    0.51E-07
   1      8    11.508     5.901    0.63E-05    0.23E-04    0.21E-07
   1      8    11.508    73.241    0.15E-03    0.36E-04    0.79E-07
 Optimization of the real space projectors (new method)

 maximal supplied QI-value         = 17.95
 optimisation between [QCUT,QGAM] = [ 11.67, 23.34] = [ 38.13,152.52] Ry 
 Optimized for a Real-space Cutoff    1.25 Angstroem

   l    n(q)    QCUT    max X(q) W(low)/X(q) W(high)/X(q)  e(spline) 
   0      9    11.669     6.499    0.13E-04    0.81E-05    0.11E-07
   0      9    11.669    52.623    0.18E-03    0.46E-04    0.72E-07
   1      8    11.669     4.229    0.40E-04    0.45E-04    0.31E-07
   1      8    11.669    29.991    0.22E-03    0.36E-03    0.10E-06
   2      8    11.669     3.719    0.19E-03    0.46E-04    0.50E-07

 ----------------------------------------------------------------------------- 
|                                                                             |
|  ADVICE TO THIS USER RUNNING 'VASP/VAMP'   (HEAR YOUR MASTER'S VOICE ...):  |
|                                                                             |
|      You enforced a specific xc-type in the INCAR file,                     |
|      a different type was found on the POTCAR file                          |
|          I HOPE YOU KNOW, WHAT YOU ARE  DOING                               |
|                                                                             |
 ----------------------------------------------------------------------------- 

 PAW_PBE Ni 06Sep2000                   :
 energy of atom  1       EATOM=-1077.9025
 kinetic energy error for atom=    0.0030 (will be added to EATOM!!)
 PAW_PBE Si 05Jan2001                   :
 energy of atom  2       EATOM= -103.0669
 kinetic energy error for atom=    0.0005 (will be added to EATOM!!)
 PAW_PBE Se 06Sep2000                   :
 energy of atom  3       EATOM= -256.9644
 kinetic energy error for atom=    0.0007 (will be added to EATOM!!)


 POSCAR: Ni2 Si2 Se6                             
  positions in direct lattice
  velocities in cartesian coordinates
  No initial velocities read in
 exchange correlation table for  LEXCH =       42
   RHO(1)=    0.500       N(1)  =     2000
   RHO(2)=  100.500       N(2)  =     4000



--------------------------------------------------------------------------------------------------------


 ion  position               nearest neighbor table
   1  0.333  0.333  0.500-   6 2.78   5 2.78   7 2.78   8 2.78  10 2.78   9 2.78
   2  0.667  0.667  0.500-   9 2.78   8 2.78  10 2.78   5 2.78   7 2.78   6 2.78
   3  0.000  0.000  0.448-   4 2.43   8 2.63  10 2.63   9 2.63
   4  0.000  0.000  0.552-   3 2.43   5 2.63   7 2.63   6 2.63
   5  0.626  0.000  0.574-   4 2.63   1 2.78   2 2.78
   6  0.000  0.373  0.574-   4 2.63   1 2.78   2 2.78
   7  0.373  0.626  0.574-   4 2.63   1 2.78   2 2.78
   8  0.374  1.000  0.426-   3 2.63   2 2.78   1 2.78
   9  1.000  0.627  0.426-   3 2.63   2 2.78   1 2.78
  10  0.627  0.374  0.426-   3 2.63   2 2.78   1 2.78

  LATTYP: Found a hexagonal cell.
 ALAT       =     6.9077769333
 C/A-ratio  =     3.3939410937
  
  Lattice vectors:
  
 A1 = (   3.4538890000,  -5.9823100000,   0.0000000000)
 A2 = (  -6.9077770000,   0.0000000000,   0.0000000000)
 A3 = (   0.0000000000,   0.0000000000, -23.4445880000)


Analysis of symmetry for initial positions (statically):
=====================================================================
 Subroutine PRICEL returns:
 Original cell was already a primitive cell.
 

 Routine SETGRP: Setting up the symmetry group for a 
 hexagonal supercell.


 Subroutine GETGRP returns: Found  6 space group operations
 (whereof  6 operations were pure point group operations)
 out of a pool of 24 trial point group operations.


The static configuration has the point symmetry S_6 .


Analysis of symmetry for dynamics (positions and initial velocities):
=====================================================================
 Subroutine PRICEL returns:
 Original cell was already a primitive cell.
 

 Routine SETGRP: Setting up the symmetry group for a 
 hexagonal supercell.


 Subroutine GETGRP returns: Found  6 space group operations
 (whereof  6 operations were pure point group operations)
 out of a pool of 24 trial point group operations.


The dynamic configuration has the point symmetry S_6 .


Analysis of constrained symmetry for selective dynamics:
=====================================================================
 Subroutine PRICEL returns:
 Original cell was already a primitive cell.
 

 Routine SETGRP: Setting up the symmetry group for a 
 hexagonal supercell.


 Subroutine GETGRP returns: Found  6 space group operations
 (whereof  6 operations were pure point group operations)
 out of a pool of 24 trial point group operations.


The constrained configuration has the point symmetry S_6 .


Analysis of structural, dynamic, and magnetic symmetry:
=====================================================================
 Subroutine PRICEL returns:
 Original cell was already a primitive cell.
 

 Routine SETGRP: Setting up the symmetry group for a 
 hexagonal supercell.


 Subroutine GETGRP returns: Found  6 space group operations
 (whereof  6 operations were pure point group operations)
 out of a pool of 24 trial point group operations.


The magnetic configuration has the point symmetry S_6 .


 Subroutine INISYM returns: Found  6 space group operations
 (whereof  6 operations are pure point group operations),
 and found     1 'primitive' translations



 KPOINTS: Kpoints from vasprun.xml                

Automatic generation of k-mesh.
Space group operators:
 irot       det(A)        alpha          n_x          n_y          n_z        tau_x        tau_y        tau_z
    1     1.000000     0.000000     1.000000     0.000000     0.000000     0.000000     0.000000     0.000000
    2    -1.000000     0.000000     1.000000     0.000000     0.000000     0.000000     0.000000     0.000000
    3     1.000000   120.000000     0.000000     0.000000     1.000000     0.000000     0.000000     0.000000
    4    -1.000000   120.000000     0.000000     0.000000     1.000000     0.000000     0.000000     0.000000
    5     1.000000   120.000000     0.000000     0.000000    -1.000000     0.000000     0.000000     0.000000
    6    -1.000000   120.000000     0.000000     0.000000    -1.000000     0.000000     0.000000     0.000000
 
 Subroutine IBZKPT returns following result:
 ===========================================
 
 Found      5 irreducible k-points:
 
 Following reciprocal coordinates:
            Coordinates               Weight
  0.000000  0.000000  0.000000      1.000000
  0.200000  0.000000  0.000000      6.000000
  0.400000  0.000000  0.000000      6.000000
  0.400000  0.200000  0.000000      6.000000
 -0.400000  0.200000  0.000000      6.000000
 
 Following cartesian coordinates:
            Coordinates               Weight
  0.000000  0.000000  0.000000      1.000000
  0.028953 -0.016716  0.000000      6.000000
  0.057906 -0.033432  0.000000      6.000000
  0.057906  0.000000  0.000000      6.000000
 -0.057906  0.066864  0.000000      6.000000
 
 TETIRR: Found     15 inequivalent tetrahedra from      150


--------------------------------------------------------------------------------------------------------




 Dimension of arrays:
   k-points           NKPTS =      5   k-points in BZ     NKDIM =      5   number of bands    NBANDS=     48
   number of dos      NEDOS =    301   number of ions     NIONS =     10
   non local maximal  LDIM  =      6   non local SUM 2l+1 LMDIM =     18
   total plane-waves  NPLWV = 524880
   max r-space proj   IRMAX =   7543   max aug-charges    IRDMAX=  23823
   dimension x,y,z NGX =    54 NGY =   54 NGZ =  180
   dimension x,y,z NGXF=   108 NGYF=  108 NGZF=  360
   support grid    NGXF=   108 NGYF=  108 NGZF=  360
   ions per type =               2   2   6
   NGX,Y,Z   is equivalent  to a cutoff of  13.00, 13.00, 12.76 a.u.
   NGXF,Y,Z  is equivalent  to a cutoff of  25.99, 25.99, 25.53 a.u.

 SYSTEM =  unknown system                          
 POSCAR =  Ni2 Si2 Se6                             

 Startparameter for this run:
   NWRITE =      2    write-flag & timer
   PREC   = accura    normal or accurate (medium, high low for compatibility)
   ISTART =      0    job   : 0-new  1-cont  2-samecut
   ICHARG =      2    charge: 1-file 2-atom 10-const
   ISPIN  =      2    spin polarized calculation?
   LNONCOLLINEAR =      F non collinear calculations
   LSORBIT =      F    spin-orbit coupling
   INIWAV =      1    electr: 0-lowe 1-rand  2-diag
   LASPH  =      F    aspherical Exc in radial PAW
   METAGGA=      F    non-selfconsistent MetaGGA calc.

 Electronic Relaxation 1
   ENCUT  =  520.0 eV  38.22 Ry    6.18 a.u.  12.84 12.84 43.59*2*pi/ulx,y,z
   ENINI  =  520.0     initial cutoff
   ENAUG  =  544.6 eV  augmentation charge cutoff
   NELM   =    400;   NELMIN=  2; NELMDL=  0     # of ELM steps 
   EDIFF  = 0.1E-03   stopping-criterion for ELM
   LREAL  =      T    real-space projection
   NLSPLINE    = F    spline interpolate recip. space projectors
   LCOMPAT=      F    compatible to vasp.4.4
   GGA_COMPAT  = T    GGA compatible to vasp.4.4-vasp.4.6
   LMAXPAW     = -100 max onsite density
   LMAXMIX     =    2 max onsite mixed and CHGCAR
   VOSKOWN=      0    Vosko Wilk Nusair interpolation
   ROPT   =   -0.00025  -0.00025  -0.00025
 Ionic relaxation
   EDIFFG = 0.1E-02   stopping-criterion for IOM
   NSW    =     99    number of steps for IOM
   NBLOCK =      1;   KBLOCK =     99    inner block; outer block 
   IBRION =      2    ionic relax: 0-MD 1-quasi-New 2-CG
   NFREE  =      1    steps in history (QN), initial steepest desc. (CG)
   ISIF   =      3    stress and relaxation
   IWAVPR =     11    prediction:  0-non 1-charg 2-wave 3-comb
   ISYM   =      2    0-nonsym 1-usesym 2-fastsym
   LCORR  =      T    Harris-Foulkes like correction to forces

   POTIM  = 0.5000    time-step for ionic-motion
   TEIN   =    0.0    initial temperature
   TEBEG  =    0.0;   TEEND  =   0.0 temperature during run
   SMASS  =  -3.00    Nose mass-parameter (am)
   estimated Nose-frequenzy (Omega)   =  0.10E-29 period in steps =****** mass=  -0.109E-26a.u.
   SCALEE = 1.0000    scale energy and forces
   NPACO  =    256;   APACO  = 16.0  distance and # of slots for P.C.
   PSTRESS=    0.0 pullay stress

  Mass of Ions in am
   POMASS =  58.69 28.09 78.96
  Ionic Valenz
   ZVAL   =  10.00  4.00  6.00
  Atomic Wigner-Seitz radii
   RWIGS  =  -1.00 -1.00 -1.00
  virtual crystal weights 
   VCA    =   1.00  1.00  1.00
   NELECT =      64.0000    total number of electrons
   NUPDOWN=      -1.0000    fix difference up-down

 DOS related values:
   EMIN   =  10.00;   EMAX   =-10.00  energy-range for DOS
   EFERMI =   0.00
   ISMEAR =    -5;   SIGMA  =   0.05  broadening in eV -4-tet -1-fermi 0-gaus

 Electronic relaxation 2 (details)
   IALGO  =     38    algorithm
   LDIAG  =      T    sub-space diagonalisation (order eigenvalues)
   LSUBROT=      F    optimize rotation matrix (better conditioning)
   TURBO    =      0    0=normal 1=particle mesh
   IRESTART =      0    0=no restart 2=restart with 2 vectors
   NREBOOT  =      0    no. of reboots
   NMIN     =      0    reboot dimension
   EREF     =   0.00    reference energy to select bands
   IMIX   =      4    mixing-type and parameters
     AMIX     =   0.40;   BMIX     =  1.00
     AMIX_MAG =   1.60;   BMIX_MAG =  1.00
     AMIN     =   0.01
     WC   =   100.;   INIMIX=   1;  MIXPRE=   1;  MAXMIX= -45

 Intra band minimization:
   WEIMIN = 0.0010     energy-eigenvalue tresh-hold
   EBREAK =  0.52E-06  absolut break condition
   DEPER  =   0.30     relativ break condition  

   TIME   =   0.40     timestep for ELM

  volume/ion in A,a.u.               =      96.88       653.80
  Fermi-wavevector in a.u.,A,eV,Ry     =   0.661787  1.250596  5.958835  0.437962
  Thomas-Fermi vector in A             =   1.734655

 Write flags
   LWAVE        =      F    write WAVECAR
   LDOWNSAMPLE  =      F    k-point downsampling of WAVECAR
   LCHARG       =      T    write CHGCAR
   LVTOT        =      F    write LOCPOT, total local potential
   LVHAR        =      F    write LOCPOT, Hartree potential only
   LELF         =      F    write electronic localiz. function (ELF)
   LORBIT       =     11    0 simple, 1 ext, 2 COOP (PROOUT), +10 PAW based schemes


 Dipole corrections
   LMONO  =      F    monopole corrections only (constant potential shift)
   LDIPOL =      F    correct potential (dipole corrections)
   IDIPOL =      0    1-x, 2-y, 3-z, 4-all directions 
   EPSILON=  1.0000000 bulk dielectric constant

 Exchange correlation treatment:
   GGA     =    BO    GGA type
   LEXCH   =    42    internal setting for exchange type
   VOSKOWN=      0    Vosko Wilk Nusair interpolation
   LHFCALC =     F    Hartree Fock is set to
   LHFONE  =     F    Hartree Fock one center treatment
   AEXX    =    0.0000 exact exchange contribution

 vdW DFT:
   LUSE_VDW   =     T    switch on vdW DFT
   Zab_VDW    =-.8491    correlation parameter
   PARAM1     =0.1833
   PARAM2     =0.2200
   PARAM3     =0.0000
   -- rVV10 --
   BPARAM     = 6.3000
   CPARAM     = 0.0093

 Linear response parameters
   LEPSILON=     F    determine dielectric tensor
   LRPA    =     F    only Hartree local field effects (RPA)
   LNABLA  =     F    use nabla operator in PAW spheres
   LVEL    =     F    velocity operator in full k-point grid
   LINTERFAST=   F  fast interpolation
   KINTER  =     0    interpolate to denser k-point grid
   CSHIFT  =0.1000    complex shift for real part using Kramers Kronig
   OMEGAMAX=  -1.0    maximum frequency
   DEG_THRESHOLD= 0.2000000E-02 threshold for treating states as degnerate
   RTIME   =   -0.100 relaxation time in fs
  (WPLASMAI=    0.000 imaginary part of plasma frequency in eV, 0.658/RTIME)
   DFIELD  = 0.0000000 0.0000000 0.0000000 field for delta impulse in time

 Orbital magnetization related:
   ORBITALMAG=     F  switch on orbital magnetization
   LCHIMAG   =     F  perturbation theory with respect to B field
   DQ        =  0.001000  dq finite difference perturbation B field
   LLRAUG    =     F  two centre corrections for induced B field



--------------------------------------------------------------------------------------------------------


 conjugate gradient relaxation of ions
   using selective dynamics as specified on POSCAR
 charge density and potential will be updated during run
 spin polarized calculation
 Variant of blocked Davidson
 Davidson routine will perform the subspace rotation
 perform sub-space diagonalisation
    after iterative eigenvector-optimisation
 modified Broyden-mixing scheme, WC =      100.0
 initial mixing is a Kerker type mixing with AMIX =  0.4000 and BMIX =      1.0000
 Hartree-type preconditioning will be used
 using additional bands           16
 real space projection scheme for non local part
 use partial core corrections
 calculate Harris-corrections to forces   (improved forces if not selfconsistent)
 use gradient corrections 
 use of overlap-Matrix (Vanderbilt PP)
 Fermi weights with tetrahedron method with Bloechl corrections


--------------------------------------------------------------------------------------------------------


  energy-cutoff  :      520.00
  volume of cell :      968.84
      direct lattice vectors                 reciprocal lattice vectors
     6.907777000 -0.000000000  0.000000000     0.144764372 -0.083579742  0.000000000
     3.453888000  5.982310000  0.000000000     0.000000000  0.167159509 -0.000000000
     0.000000000  0.000000000 23.444588000    -0.000000000  0.000000000  0.042653767

  length of vectors
     6.907777000  6.907776433 23.444588000     0.167159495  0.167159509  0.042653767



 k-points in units of 2pi/SCALE and weight: Kpoints from vasprun.xml                
   0.00000000  0.00000000  0.00000000       0.040
   0.02895287 -0.01671595  0.00000000       0.240
   0.05790575 -0.03343190  0.00000000       0.240
   0.05790575  0.00000000  0.00000000       0.240
  -0.05790575  0.06686380  0.00000000       0.240

 k-points in reciprocal lattice and weights: Kpoints from vasprun.xml                
   0.00000000  0.00000000  0.00000000       0.040
   0.20000000  0.00000000  0.00000000       0.240
   0.40000000  0.00000000  0.00000000       0.240
   0.40000000  0.20000000  0.00000000       0.240
  -0.40000000  0.20000000  0.00000000       0.240

 position of ions in fractional coordinates (direct lattice) 
   0.33333300  0.33333300  0.49992500
   0.66666700  0.66666700  0.50007500
   0.00000000  0.00000000  0.44821600
   0.00000000  0.00000000  0.55178400
   0.62635700  0.00042000  0.57375200
   0.00042000  0.37322400  0.57375200
   0.37322400  0.62635700  0.57375200
   0.37364300  0.99958000  0.42624800
   0.99958000  0.62677600  0.42624800
   0.62677600  0.37364300  0.42624800

 position of ions in cartesian coordinates  (Angst):
   3.45388488  1.99410134 11.72053566
   6.90778012  3.98820866 11.72405234
   0.00000000  0.00000000 10.50823946
   0.00000000  0.00000000 12.93634854
   4.32818511  0.00251257 13.45137925
   1.29197516  2.23274167 13.45137925
   4.74151509  3.74706174 13.45137925
   6.03347989  5.97979743  9.99320875
   9.06968984  3.74956833  9.99320875
   5.62014991  2.23524826  9.99320875



--------------------------------------------------------------------------------------------------------


 k-point  1 :   0.0000 0.0000 0.0000  plane waves:   26073
 k-point  2 :   0.2000 0.0000 0.0000  plane waves:   26070
 k-point  3 :   0.4000 0.0000 0.0000  plane waves:   26086
 k-point  4 :   0.4000 0.2000 0.0000  plane waves:   26085
 k-point  5 :  -0.4000 0.2000 0.0000  plane waves:   26115

 maximum and minimum number of plane-waves per node :     26115    26070

 maximum number of plane-waves:     26115
 maximum index in each direction: 
   IXMAX=   13   IYMAX=   12   IZMAX=   43
   IXMIN=  -13   IYMIN=  -13   IZMIN=  -43


 serial   3D FFT for wavefunctions
 parallel 3D FFT for charge:
    minimum data exchange during FFTs selected (reduces bandwidth)


 total amount of memory used by VASP MPI-rank0   127362. kBytes
=======================================================================

   base      :      30000. kBytes
   nonlr-proj:       7052. kBytes
   fftplans  :      11247. kBytes
   grid      :      66142. kBytes
   one-center:        311. kBytes
   wavefun   :      12610. kBytes

     INWAV:  cpu time    0.0000: real time    0.0004
 Broyden mixing: mesh for mixing (old mesh)
   NGX = 25   NGY = 25   NGZ = 87
  (NGX  =108   NGY  =108   NGZ  =360)
  gives a total of  54375 points

 initial charge density was supplied:
 charge density of overlapping atoms calculated
 number of electron      64.0000000 magnetization      14.8000000
 keeping initial charge density in first step


--------------------------------------------------------------------------------------------------------


 Maximum index for non-local projection operator         7247
 Maximum index for augmentation-charges         1715 (set IRDMAX)


--------------------------------------------------------------------------------------------------------


 First call to EWALD:  gamma=   0.179
 Maximum number of real-space cells 4x 4x 1
 Maximum number of reciprocal cells 2x 2x 6

    FEWALD:  cpu time    0.0000: real time    0.0014


--------------------------------------- Iteration      1(   1)  ---------------------------------------


vdW kernel read from vdw_kernel.bindat
  0.0000  0.2424  0.5071  0.7962  1.1119  1.4567  1.8333  2.2446  2.6937  3.1842
  3.7199  4.3049  4.9438  5.6415  6.4036  7.2358  8.1446  9.1372 10.2212 11.4050
 12.6979 14.1099 15.6519 17.3360 19.1751 21.1837 23.3773 25.7729 28.3892 31.2465
 34.3669 37.7748 41.4965 45.5611 50.0000

    POTLOK:  cpu time   52.2200: real time   52.9004
    SETDIJ:  cpu time    0.0440: real time    0.0429
     EDDAV:  cpu time   22.4560: real time   22.6905
 BZINTS: Fermi energy:  4.768451; 64.000000 electrons
         Band energy: -44.831181;  BLOECHL correction: -0.026450
       DOS:  cpu time    0.0040: real time    0.0049
    --------------------------------------------
      LOOP:  cpu time   74.7240: real time   75.6388

 eigenvalue-minimisations  :   960
 total energy-change (2. order) : 0.4110290E+03  (-0.1976445E+04)
 number of electron      64.0000000 magnetization      14.8000000
 augmentation part       64.0000000 magnetization      14.8000000

 Free energy of the ion-electron system (eV)
  ---------------------------------------------------
  alpha Z        PSCENC =        37.45488097
  Ewald energy   TEWEN  =      8065.03639907
  -Hartree energ DENC   =    -11594.84238862
  -exchange      EXHF   =         0.00000000
  -V(xc)+E(xc)   XCENC  =        35.37302597
  PAW double counting   =      2437.14492367    -2445.27135101
  entropy T*S    EENTRO =         0.00000000
  eigenvalues    EBANDS =       -44.83118116
  atomic energy  EATOM  =      3920.96469382
  Solvation  Ediel_sol  =         0.00000000
  ---------------------------------------------------
  free energy    TOTEN  =       411.02900273 eV

  energy without entropy =      411.02900273  energy(sigma->0) =      411.02900273


--------------------------------------------------------------------------------------------------------




--------------------------------------- Iteration      1(   2)  ---------------------------------------


     EDDAV:  cpu time   30.9320: real time   31.0829
 BZINTS: Fermi energy: -1.013220; 64.000000 electrons
         Band energy:-428.555221;  BLOECHL correction: -0.081930
       DOS:  cpu time    0.0080: real time    0.0072
    --------------------------------------------
      LOOP:  cpu time   30.9400: real time   31.0900

 eigenvalue-minimisations  :  1360
 total energy-change (2. order) :-0.3837240E+03  (-0.3575855E+03)
 number of electron      64.0000000 magnetization      14.8000000
 augmentation part       64.0000000 magnetization      14.8000000

 Free energy of the ion-electron system (eV)
  ---------------------------------------------------
  alpha Z        PSCENC =        37.45488097
  Ewald energy   TEWEN  =      8065.03639907
  -Hartree energ DENC   =    -11594.84238862
  -exchange      EXHF   =         0.00000000
  -V(xc)+E(xc)   XCENC  =        35.37302597
  PAW double counting   =      2437.14492367    -2445.27135101
  entropy T*S    EENTRO =         0.00000000
  eigenvalues    EBANDS =      -428.55522098
  atomic energy  EATOM  =      3920.96469382
  Solvation  Ediel_sol  =         0.00000000
  ---------------------------------------------------
  free energy    TOTEN  =        27.30496290 eV

  energy without entropy =       27.30496290  energy(sigma->0) =       27.30496290


--------------------------------------------------------------------------------------------------------




--------------------------------------- Iteration      1(   3)  ---------------------------------------


     EDDAV:  cpu time   29.0840: real time   29.1631
 BZINTS: Fermi energy: -2.082823; 64.000000 electrons
         Band energy:-496.184737;  BLOECHL correction:  0.000000
       DOS:  cpu time    0.0000: real time    0.0032
    --------------------------------------------
      LOOP:  cpu time   29.0840: real time   29.1664

 eigenvalue-minimisations  :  1264
 total energy-change (2. order) :-0.6762952E+02  (-0.6454472E+02)
 number of electron      64.0000000 magnetization      14.8000000
 augmentation part       64.0000000 magnetization      14.8000000

 Free energy of the ion-electron system (eV)
  ---------------------------------------------------
  alpha Z        PSCENC =        37.45488097
  Ewald energy   TEWEN  =      8065.03639907
  -Hartree energ DENC   =    -11594.84238862
  -exchange      EXHF   =         0.00000000
  -V(xc)+E(xc)   XCENC  =        35.37302597
  PAW double counting   =      2437.14492367    -2445.27135101
  entropy T*S    EENTRO =         0.00000000
  eigenvalues    EBANDS =      -496.18473708
  atomic energy  EATOM  =      3920.96469382
  Solvation  Ediel_sol  =         0.00000000
  ---------------------------------------------------
  free energy    TOTEN  =       -40.32455319 eV

  energy without entropy =      -40.32455319  energy(sigma->0) =      -40.32455319


--------------------------------------------------------------------------------------------------------




--------------------------------------- Iteration      1(   4)  ---------------------------------------


     EDDAV:  cpu time   27.6360: real time   27.7774
 BZINTS: Fermi energy: -2.119103; 64.000000 electrons
         Band energy:-498.719239;  BLOECHL correction:  0.000000
       DOS:  cpu time    0.0040: real time    0.0011
    --------------------------------------------
      LOOP:  cpu time   27.6400: real time   27.7784

 eigenvalue-minimisations  :  1200
 total energy-change (2. order) :-0.2534502E+01  (-0.2517475E+01)
 number of electron      64.0000000 magnetization      14.8000000
 augmentation part       64.0000000 magnetization      14.8000000

 Free energy of the ion-electron system (eV)
  ---------------------------------------------------
  alpha Z        PSCENC =        37.45488097
  Ewald energy   TEWEN  =      8065.03639907
  -Hartree energ DENC   =    -11594.84238862
  -exchange      EXHF   =         0.00000000
  -V(xc)+E(xc)   XCENC  =        35.37302597
  PAW double counting   =      2437.14492367    -2445.27135101
  entropy T*S    EENTRO =         0.00000000
  eigenvalues    EBANDS =      -498.71923901
  atomic energy  EATOM  =      3920.96469382
  Solvation  Ediel_sol  =         0.00000000
  ---------------------------------------------------
  free energy    TOTEN  =       -42.85905513 eV

  energy without entropy =      -42.85905513  energy(sigma->0) =      -42.85905513


--------------------------------------------------------------------------------------------------------




--------------------------------------- Iteration      1(   5)  ---------------------------------------


     EDDAV:  cpu time   29.3120: real time   29.3593
 BZINTS: Fermi energy: -2.121421; 64.000000 electrons
         Band energy:-498.780614;  BLOECHL correction:  0.000000
       DOS:  cpu time    0.0000: real time    0.0020
    CHARGE:  cpu time    2.0960: real time    2.0979
    MIXING:  cpu time    0.0400: real time    0.0408
    --------------------------------------------
      LOOP:  cpu time   31.4480: real time   31.5000

 eigenvalue-minimisations  :  1280
 total energy-change (2. order) :-0.6137453E-01  (-0.6135820E-01)
 number of electron      63.9999996 magnetization      14.2853500
 augmentation part       -0.4584436 magnetization      11.1064186

 Broyden mixing:
  rms(total) = 0.38427E+01    rms(broyden)= 0.38427E+01
  rms(prec ) = 0.42469E+01
  weight for this iteration     100.00

 Free energy of the ion-electron system (eV)
  ---------------------------------------------------
  alpha Z        PSCENC =        37.45488097
  Ewald energy   TEWEN  =      8065.03639907
  -Hartree energ DENC   =    -11594.84238862
  -exchange      EXHF   =         0.00000000
  -V(xc)+E(xc)   XCENC  =        35.37302597
  PAW double counting   =      2437.14492367    -2445.27135101
  entropy T*S    EENTRO =         0.00000000
  eigenvalues    EBANDS =      -498.78061354
  atomic energy  EATOM  =      3920.96469382
  Solvation  Ediel_sol  =         0.00000000
  ---------------------------------------------------
  free energy    TOTEN  =       -42.92042966 eV

  energy without entropy =      -42.92042966  energy(sigma->0) =      -42.92042966


--------------------------------------------------------------------------------------------------------




--------------------------------------- Iteration      1(   6)  ---------------------------------------


    POTLOK:  cpu time   52.1120: real time   52.1307
    SETDIJ:  cpu time    0.0440: real time    0.0437
     EDDAV:  cpu time   27.7800: real time   28.5007
 BZINTS: Fermi energy: -4.098575; 64.000000 electrons
         Band energy:-856.632684;  BLOECHL correction: -0.033858
       DOS:  cpu time    0.0080: real time    0.0052
    CHARGE:  cpu time    2.1200: real time    2.1257
    MIXING:  cpu time    0.0400: real time    0.0414
    --------------------------------------------
      LOOP:  cpu time   82.1040: real time   82.8475

 eigenvalue-minimisations  :  1232
 total energy-change (2. order) :-0.7579813E+02  (-0.1012551E+03)
 number of electron      63.9999994 magnetization      13.7896841
 augmentation part        9.8082032 magnetization      12.2661642

 Broyden mixing:
  rms(total) = 0.66517E+01    rms(broyden)= 0.66516E+01
  rms(prec ) = 0.69409E+01
  weight for this iteration     100.00

 eigenvalues of (default mixing * dielectric matrix)
  average eigenvalue GAMMA=   0.2137
  0.2137

 Free energy of the ion-electron system (eV)
  ---------------------------------------------------
  alpha Z        PSCENC =        37.45488097
  Ewald energy   TEWEN  =      8065.03639907
  -Hartree energ DENC   =    -11346.88355907
  -exchange      EXHF   =         0.00000000
  -V(xc)+E(xc)   XCENC  =        30.22616183
  PAW double counting   =      2041.41942355    -2010.30387239
  entropy T*S    EENTRO =         0.00000000
  eigenvalues    EBANDS =      -856.63268413
  atomic energy  EATOM  =      3920.96469382
  Solvation  Ediel_sol  =         0.00000000
  ---------------------------------------------------
  free energy    TOTEN  =      -118.71855635 eV

  energy without entropy =     -118.71855635  energy(sigma->0) =     -118.71855635


--------------------------------------------------------------------------------------------------------




--------------------------------------- Iteration      1(   7)  ---------------------------------------


    POTLOK:  cpu time   51.6240: real time   52.3757
    SETDIJ:  cpu time    0.0480: real time    0.0456
     EDDAV:  cpu time   24.3760: real time   24.4440
 BZINTS: Fermi energy: -4.361782; 64.000000 electrons
         Band energy:-677.606900;  BLOECHL correction: -0.031587
       DOS:  cpu time    0.0080: real time    0.0068
    CHARGE:  cpu time    2.1320: real time    2.1405
    MIXING:  cpu time    0.0440: real time    0.0414
    --------------------------------------------
      LOOP:  cpu time   78.2320: real time   79.0539

 eigenvalue-minimisations  :  1040
 total energy-change (2. order) : 0.5427337E+02  (-0.7589494E+01)
 number of electron      63.9999994 magnetization      13.0206006
 augmentation part        9.0769480 magnetization      10.2648324

 Broyden mixing:
  rms(total) = 0.40519E+01    rms(broyden)= 0.40519E+01
  rms(prec ) = 0.42990E+01
  weight for this iteration     100.00

 eigenvalues of (default mixing * dielectric matrix)
  average eigenvalue GAMMA=   0.6507
  0.6507  0.6507

 Free energy of the ion-electron system (eV)
  ---------------------------------------------------
  alpha Z        PSCENC =        37.45488097
  Ewald energy   TEWEN  =      8065.03639907
  -Hartree energ DENC   =    -11442.15373083
  -exchange      EXHF   =         0.00000000
  -V(xc)+E(xc)   XCENC  =        28.47200689
  PAW double counting   =      2211.42954211    -2208.04207730
  entropy T*S    EENTRO =         0.00000000
  eigenvalues    EBANDS =      -677.60690010
  atomic energy  EATOM  =      3920.96469382
  Solvation  Ediel_sol  =         0.00000000
  ---------------------------------------------------
  free energy    TOTEN  =       -64.44518536 eV

  energy without entropy =      -64.44518536  energy(sigma->0) =      -64.44518536


--------------------------------------------------------------------------------------------------------




--------------------------------------- Iteration      1(   8)  ---------------------------------------


    POTLOK:  cpu time   52.1080: real time   52.2661
    SETDIJ:  cpu time    0.0400: real time    0.0411
     EDDAV:  cpu time   27.7200: real time   27.8434
 BZINTS: Fermi energy: -4.305395; 64.000000 electrons
         Band energy:-522.106662;  BLOECHL correction: -0.016040
       DOS:  cpu time    0.0040: real time    0.0069
    CHARGE:  cpu time    2.0920: real time    2.0918
    MIXING:  cpu time    0.0400: real time    0.0409
    --------------------------------------------
      LOOP:  cpu time   82.0040: real time   82.2901

 eigenvalue-minimisations  :  1216
 total energy-change (2. order) : 0.3221958E+02  (-0.6265873E+01)
 number of electron      63.9999993 magnetization      12.7316257
 augmentation part        6.2235245 magnetization      10.8874665

 Broyden mixing:
  rms(total) = 0.14675E+01    rms(broyden)= 0.14672E+01
  rms(prec ) = 0.15103E+01
  weight for this iteration     100.00

 eigenvalues of (default mixing * dielectric matrix)
  average eigenvalue GAMMA=   0.6480
  0.7570  0.7570  0.4302

 Free energy of the ion-electron system (eV)
  ---------------------------------------------------
  alpha Z        PSCENC =        37.45488097
  Ewald energy   TEWEN  =      8065.03639907
  -Hartree energ DENC   =    -11548.93455119
  -exchange      EXHF   =         0.00000000
  -V(xc)+E(xc)   XCENC  =        30.76826473
  PAW double counting   =      2387.98295432    -2403.39158968
  entropy T*S    EENTRO =         0.00000000
  eigenvalues    EBANDS =      -522.10666167
  atomic energy  EATOM  =      3920.96469382
  Solvation  Ediel_sol  =         0.00000000
  ---------------------------------------------------
  free energy    TOTEN  =       -32.22560963 eV

  energy without entropy =      -32.22560963  energy(sigma->0) =      -32.22560963


--------------------------------------------------------------------------------------------------------




--------------------------------------- Iteration      1(   9)  ---------------------------------------


    POTLOK:  cpu time   51.2600: real time   51.2867
    SETDIJ:  cpu time    0.0400: real time    0.0404
     EDDAV:  cpu time   30.9480: real time   31.1452
 BZINTS: Fermi energy: -4.124377; 64.000000 electrons
         Band energy:-510.088476;  BLOECHL correction: -0.004935
       DOS:  cpu time    0.0080: real time    0.0072
    CHARGE:  cpu time    2.0960: real time    2.1010
    MIXING:  cpu time    0.0440: real time    0.0417
    --------------------------------------------
      LOOP:  cpu time   84.3960: real time   84.6223

 eigenvalue-minimisations  :  1392
 total energy-change (2. order) :-0.8741951E-01  (-0.7683485E+00)
 number of electron      63.9999993 magnetization      12.4434976
 augmentation part        5.0309043 magnetization      10.7456767

 Broyden mixing:
  rms(total) = 0.83915E+00    rms(broyden)= 0.83902E+00
  rms(prec ) = 0.84661E+00
  weight for this iteration     100.00

 eigenvalues of (default mixing * dielectric matrix)
  average eigenvalue GAMMA=   0.5925
  0.6492  0.6492  0.5358  0.5358

 Free energy of the ion-electron system (eV)
  ---------------------------------------------------
  alpha Z        PSCENC =        37.45488097
  Ewald energy   TEWEN  =      8065.03639907
  -Hartree energ DENC   =    -11560.76319143
  -exchange      EXHF   =         0.00000000
  -V(xc)+E(xc)   XCENC  =        30.93675506
  PAW double counting   =      2409.96433473    -2425.81842497
  entropy T*S    EENTRO =         0.00000000
  eigenvalues    EBANDS =      -510.08847640
  atomic energy  EATOM  =      3920.96469382
  Solvation  Ediel_sol  =         0.00000000
  ---------------------------------------------------
  free energy    TOTEN  =       -32.31302914 eV

  energy without entropy =      -32.31302914  energy(sigma->0) =      -32.31302914


--------------------------------------------------------------------------------------------------------




--------------------------------------- Iteration      1(  10)  ---------------------------------------


    POTLOK:  cpu time   51.2120: real time   51.6011
    SETDIJ:  cpu time    0.0440: real time    0.0450
     EDDAV:  cpu time   29.7280: real time   30.3716
 BZINTS: Fermi energy: -4.357592; 64.000000 electrons
         Band energy:-533.833458;  BLOECHL correction: -0.016597
       DOS:  cpu time    0.0080: real time    0.0068
    CHARGE:  cpu time    2.1440: real time    2.1476
    MIXING:  cpu time    0.0440: real time    0.0424
    --------------------------------------------
      LOOP:  cpu time   83.1800: real time   84.2145

 eigenvalue-minimisations  :  1344
 total energy-change (2. order) :-0.4198334E+01  (-0.2634448E+01)
 number of electron      63.9999993 magnetization      12.2525692
 augmentation part        6.7645600 magnetization      10.0387764

 Broyden mixing:
  rms(total) = 0.17206E+01    rms(broyden)= 0.17197E+01
  rms(prec ) = 0.18000E+01
  weight for this iteration     100.00

 eigenvalues of (default mixing * dielectric matrix)
  average eigenvalue GAMMA=   0.5065
  0.6672  0.6672  0.5175  0.5175  0.1630

 Free energy of the ion-electron system (eV)
  ---------------------------------------------------
  alpha Z        PSCENC =        37.45488097
  Ewald energy   TEWEN  =      8065.03639907
  -Hartree energ DENC   =    -11542.92403416
  -exchange      EXHF   =         0.00000000
  -V(xc)+E(xc)   XCENC  =        30.32655046
  PAW double counting   =      2383.71679317    -2397.25318877
  entropy T*S    EENTRO =         0.00000000
  eigenvalues    EBANDS =      -533.83345773
  atomic energy  EATOM  =      3920.96469382
  Solvation  Ediel_sol  =         0.00000000
  ---------------------------------------------------
  free energy    TOTEN  =       -36.51136316 eV

  energy without entropy =      -36.51136316  energy(sigma->0) =      -36.51136316


--------------------------------------------------------------------------------------------------------




--------------------------------------- Iteration      1(  11)  ---------------------------------------


    POTLOK:  cpu time   51.0960: real time   51.4178
    SETDIJ:  cpu time    0.0400: real time    0.0421
     EDDAV:  cpu time   25.3480: real time   25.5271
 BZINTS: Fermi energy: -4.312831; 64.000000 electrons
         Band energy:-528.303276;  BLOECHL correction: -0.019950
       DOS:  cpu time    0.0080: real time    0.0070
    CHARGE:  cpu time    2.1000: real time    2.1036
    MIXING:  cpu time    0.0400: real time    0.0434
    --------------------------------------------
      LOOP:  cpu time   78.6320: real time   79.1410

 eigenvalue-minimisations  :  1104
 total energy-change (2. order) : 0.3858600E+01  (-0.2306350E+02)
 number of electron      63.9999993 magnetization      10.6224781
 augmentation part        6.7391557 magnetization       8.1043967

 Broyden mixing:
  rms(total) = 0.15798E+01    rms(broyden)= 0.15792E+01
  rms(prec ) = 0.16566E+01
  weight for this iteration     100.00

 eigenvalues of (default mixing * dielectric matrix)
  average eigenvalue GAMMA=   0.6236
  1.0009  1.0009  0.5539  0.5539  0.4332  0.1989

 Free energy of the ion-electron system (eV)
  ---------------------------------------------------
  alpha Z        PSCENC =        37.45488097
  Ewald energy   TEWEN  =      8065.03639907
  -Hartree energ DENC   =    -11544.91684535
  -exchange      EXHF   =         0.00000000
  -V(xc)+E(xc)   XCENC  =        30.24699414
  PAW double counting   =      2387.11583647    -2400.25144616
  entropy T*S    EENTRO =         0.00000000
  eigenvalues    EBANDS =      -528.30327576
  atomic energy  EATOM  =      3920.96469382
  Solvation  Ediel_sol  =         0.00000000
  ---------------------------------------------------
  free energy    TOTEN  =       -32.65276278 eV

  energy without entropy =      -32.65276278  energy(sigma->0) =      -32.65276278


--------------------------------------------------------------------------------------------------------




--------------------------------------- Iteration      1(  12)  ---------------------------------------


    POTLOK:  cpu time   51.0680: real time   51.1109
    SETDIJ:  cpu time    0.0440: real time    0.0419
     EDDAV:  cpu time   31.1840: real time   31.2315
 BZINTS: Fermi energy: -4.166229; 64.000000 electrons
         Band energy:-514.530864;  BLOECHL correction: -0.012528
       DOS:  cpu time    0.0080: real time    0.0074
    CHARGE:  cpu time    2.1400: real time    2.1416
    MIXING:  cpu time    0.0440: real time    0.0436
    --------------------------------------------
      LOOP:  cpu time   84.4880: real time   84.5769

 eigenvalue-minimisations  :  1392
 total energy-change (2. order) :-0.8622318E+00  (-0.1004772E+01)
 number of electron      63.9999993 magnetization       9.1433018
 augmentation part        6.1849391 magnetization       7.4015863

 Broyden mixing:
  rms(total) = 0.10014E+01    rms(broyden)= 0.10014E+01
  rms(prec ) = 0.10476E+01
  weight for this iteration     100.00

 eigenvalues of (default mixing * dielectric matrix)
  average eigenvalue GAMMA=   0.7355
  1.8563  0.9603  0.5735  0.5735  0.4937  0.4937  0.1974

 Free energy of the ion-electron system (eV)
  ---------------------------------------------------
  alpha Z        PSCENC =        37.45488097
  Ewald energy   TEWEN  =      8065.03639907
  -Hartree energ DENC   =    -11562.12628056
  -exchange      EXHF   =         0.00000000
  -V(xc)+E(xc)   XCENC  =        29.96419310
  PAW double counting   =      2425.64171858    -2435.91973551
  entropy T*S    EENTRO =         0.00000000
  eigenvalues    EBANDS =      -514.53086404
  atomic energy  EATOM  =      3920.96469382
  Solvation  Ediel_sol  =         0.00000000
  ---------------------------------------------------
  free energy    TOTEN  =       -33.51499455 eV

  energy without entropy =      -33.51499455  energy(sigma->0) =      -33.51499455


--------------------------------------------------------------------------------------------------------




--------------------------------------- Iteration      1(  13)  ---------------------------------------


    POTLOK:  cpu time   50.7560: real time   50.8563
    SETDIJ:  cpu time    0.0440: real time    0.0413
     EDDAV:  cpu time   29.5280: real time   29.5923
 BZINTS: Fermi energy: -4.149432; 64.000000 electrons
         Band energy:-517.616654;  BLOECHL correction: -0.011426
       DOS:  cpu time    0.0080: real time    0.0070
    CHARGE:  cpu time    2.1160: real time    2.1180
    MIXING:  cpu time    0.0440: real time    0.0449
    --------------------------------------------
      LOOP:  cpu time   82.4960: real time   82.6597

 eigenvalue-minimisations  :  1312
 total energy-change (2. order) :-0.8943151E+00  (-0.7762658E-01)
 number of electron      63.9999994 magnetization       7.4451680
 augmentation part        6.5952235 magnetization       5.7681180

 Broyden mixing:
  rms(total) = 0.11743E+01    rms(broyden)= 0.11743E+01
  rms(prec ) = 0.12498E+01
  weight for this iteration     100.00

 eigenvalues of (default mixing * dielectric matrix)
  average eigenvalue GAMMA=   0.8829
  1.9911  1.9911  0.5339  0.5339  0.6568  0.6568  0.5014  0.1980

 Free energy of the ion-electron system (eV)
  ---------------------------------------------------
  alpha Z        PSCENC =        37.45488097
  Ewald energy   TEWEN  =      8065.03639907
  -Hartree energ DENC   =    -11562.48537776
  -exchange      EXHF   =         0.00000000
  -V(xc)+E(xc)   XCENC  =        29.71069948
  PAW double counting   =      2429.36546726    -2436.83941861
  entropy T*S    EENTRO =         0.00000000
  eigenvalues    EBANDS =      -517.61665386
  atomic energy  EATOM  =      3920.96469382
  Solvation  Ediel_sol  =         0.00000000
  ---------------------------------------------------
  free energy    TOTEN  =       -34.40930962 eV

  energy without entropy =      -34.40930962  energy(sigma->0) =      -34.40930962


--------------------------------------------------------------------------------------------------------




--------------------------------------- Iteration      1(  14)  ---------------------------------------


    POTLOK:  cpu time   51.4360: real time   51.6616
    SETDIJ:  cpu time    0.0400: real time    0.0409
     EDDAV:  cpu time   28.9600: real time   29.2218
 BZINTS: Fermi energy: -3.878474; 64.000000 electrons
         Band energy:-499.895122;  BLOECHL correction: -0.005465
       DOS:  cpu time    0.0040: real time    0.0076
    CHARGE:  cpu time    2.1160: real time    2.1223
    MIXING:  cpu time    0.0480: real time    0.0495
    --------------------------------------------
      LOOP:  cpu time   82.6040: real time   83.1036

 eigenvalue-minimisations  :  1280
 total energy-change (2. order) : 0.5757543E+00  (-0.1248973E+00)
 number of electron      63.9999993 magnetization       5.4000309
 augmentation part        5.4167085 magnetization       4.5166973

 Broyden mixing:
  rms(total) = 0.45933E+00    rms(broyden)= 0.45893E+00
  rms(prec ) = 0.46286E+00
  weight for this iteration     100.00

 eigenvalues of (default mixing * dielectric matrix)
  average eigenvalue GAMMA=   0.9490
  3.2163  1.5469  0.7569  0.7569  0.5535  0.5535  0.4797  0.4797  0.1980

 Free energy of the ion-electron system (eV)
  ---------------------------------------------------
  alpha Z        PSCENC =        37.45488097
  Ewald energy   TEWEN  =      8065.03639907
  -Hartree energ DENC   =    -11579.21936936
  -exchange      EXHF   =         0.00000000
  -V(xc)+E(xc)   XCENC  =        29.96736137
  PAW double counting   =      2449.77240009    -2457.91479950
  entropy T*S    EENTRO =         0.00000000
  eigenvalues    EBANDS =      -499.89512175
  atomic energy  EATOM  =      3920.96469382
  Solvation  Ediel_sol  =         0.00000000
  ---------------------------------------------------
  free energy    TOTEN  =       -33.83355528 eV

  energy without entropy =      -33.83355528  energy(sigma->0) =      -33.83355528


--------------------------------------------------------------------------------------------------------




--------------------------------------- Iteration      1(  15)  ---------------------------------------


    POTLOK:  cpu time   51.1800: real time   51.2102
    SETDIJ:  cpu time    0.0440: real time    0.0409
     EDDAV:  cpu time   28.1040: real time   28.2220
 BZINTS: Fermi energy: -3.883613; 64.000000 electrons
         Band energy:-502.744604;  BLOECHL correction: -0.003450
       DOS:  cpu time    0.0040: real time    0.0067
    CHARGE:  cpu time    2.1640: real time    2.1659
    MIXING:  cpu time    0.0440: real time    0.0472
    --------------------------------------------
      LOOP:  cpu time   81.5400: real time   81.6928

 eigenvalue-minimisations  :  1248
 total energy-change (2. order) :-0.5823220E+00  (-0.3862835E-01)
 number of electron      63.9999993 magnetization       3.2997070
 augmentation part        5.8650397 magnetization       2.2370233

 Broyden mixing:
  rms(total) = 0.51797E+00    rms(broyden)= 0.51795E+00
  rms(prec ) = 0.55035E+00
  weight for this iteration     100.00

 eigenvalues of (default mixing * dielectric matrix)
  average eigenvalue GAMMA=   1.1936
  5.3229  1.3800  1.3800  0.5468  0.5468  0.7723  0.7723  0.5086  0.5086  0.1980

 Free energy of the ion-electron system (eV)
  ---------------------------------------------------
  alpha Z        PSCENC =        37.45488097
  Ewald energy   TEWEN  =      8065.03639907
  -Hartree energ DENC   =    -11577.55094169
  -exchange      EXHF   =         0.00000000
  -V(xc)+E(xc)   XCENC  =        29.55805098
  PAW double counting   =      2442.62429385    -2449.75865017
  entropy T*S    EENTRO =         0.00000000
  eigenvalues    EBANDS =      -502.74460406
  atomic energy  EATOM  =      3920.96469382
  Solvation  Ediel_sol  =         0.00000000
  ---------------------------------------------------
  free energy    TOTEN  =       -34.41587723 eV

  energy without entropy =      -34.41587723  energy(sigma->0) =      -34.41587723


--------------------------------------------------------------------------------------------------------




--------------------------------------- Iteration      1(  16)  ---------------------------------------


    POTLOK:  cpu time   50.5480: real time   50.8294
    SETDIJ:  cpu time    0.0400: real time    0.0411
     EDDAV:  cpu time   30.0440: real time   30.1752
 BZINTS: Fermi energy: -3.765113; 64.000000 electrons
         Band energy:-497.947535;  BLOECHL correction: -0.005919
       DOS:  cpu time    0.0040: real time    0.0075
    CHARGE:  cpu time    2.1400: real time    2.1396
    MIXING:  cpu time    0.0480: real time    0.0481
    --------------------------------------------
      LOOP:  cpu time   82.8240: real time   83.2409

 eigenvalue-minimisations  :  1344
 total energy-change (2. order) :-0.2831509E+00  (-0.3534730E-01)
 number of electron      63.9999993 magnetization       2.3796822
 augmentation part        5.3423662 magnetization       1.5417014

 Broyden mixing:
  rms(total) = 0.13319E+00    rms(broyden)= 0.13291E+00
  rms(prec ) = 0.13637E+00
  weight for this iteration     100.00

 eigenvalues of (default mixing * dielectric matrix)
  average eigenvalue GAMMA=   1.4773
  7.9985  2.1369  1.4598  0.8425  0.8425  0.5468  0.5468  0.6520  0.5132  0.5132
  0.1980

 Free energy of the ion-electron system (eV)
  ---------------------------------------------------
  alpha Z        PSCENC =        37.45488097
  Ewald energy   TEWEN  =      8065.03639907
  -Hartree energ DENC   =    -11581.10109652
  -exchange      EXHF   =         0.00000000
  -V(xc)+E(xc)   XCENC  =        29.36536280
  PAW double counting   =      2438.02858030    -2446.50031309
  entropy T*S    EENTRO =         0.00000000
  eigenvalues    EBANDS =      -497.94753549
  atomic energy  EATOM  =      3920.96469382
  Solvation  Ediel_sol  =         0.00000000
  ---------------------------------------------------
  free energy    TOTEN  =       -34.69902812 eV

  energy without entropy =      -34.69902812  energy(sigma->0) =      -34.69902812


--------------------------------------------------------------------------------------------------------




--------------------------------------- Iteration      1(  17)  ---------------------------------------


    POTLOK:  cpu time   50.8200: real time   50.9975
    SETDIJ:  cpu time    0.0400: real time    0.0408
     EDDAV:  cpu time   24.6760: real time   24.7298
 BZINTS: Fermi energy: -3.779269; 64.000000 electrons
         Band energy:-499.420392;  BLOECHL correction: -0.005101
       DOS:  cpu time    0.0040: real time    0.0070
    CHARGE:  cpu time    2.1400: real time    2.1447
    MIXING:  cpu time    0.0480: real time    0.0482
    --------------------------------------------
      LOOP:  cpu time   77.7280: real time   77.9680

 eigenvalue-minimisations  :  1072
 total energy-change (2. order) :-0.1367387E+00  (-0.1221033E-01)
 number of electron      63.9999993 magnetization       2.0924534
 augmentation part        5.3001570 magnetization       1.2683658

 Broyden mixing:
  rms(total) = 0.73454E-01    rms(broyden)= 0.73417E-01
  rms(prec ) = 0.75834E-01
  weight for this iteration     100.00

 eigenvalues of (default mixing * dielectric matrix)
  average eigenvalue GAMMA=   1.5583
  9.1704  2.5910  1.2039  0.5467  0.5467  1.0897  0.8473  0.8473  0.1980  0.5119
  0.5119  0.6353

 Free energy of the ion-electron system (eV)
  ---------------------------------------------------
  alpha Z        PSCENC =        37.45488097
  Ewald energy   TEWEN  =      8065.03639907
  -Hartree energ DENC   =    -11578.78226173
  -exchange      EXHF   =         0.00000000
  -V(xc)+E(xc)   XCENC  =        29.24657050
  PAW double counting   =      2431.16205098    -2440.49770855
  entropy T*S    EENTRO =         0.00000000
  eigenvalues    EBANDS =      -499.42039186
  atomic energy  EATOM  =      3920.96469382
  Solvation  Ediel_sol  =         0.00000000
  ---------------------------------------------------
  free energy    TOTEN  =       -34.83576679 eV

  energy without entropy =      -34.83576679  energy(sigma->0) =      -34.83576679


--------------------------------------------------------------------------------------------------------




--------------------------------------- Iteration      1(  18)  ---------------------------------------


    POTLOK:  cpu time   51.2040: real time   51.2484
    SETDIJ:  cpu time    0.0440: real time    0.0413
     EDDAV:  cpu time   26.3760: real time   26.5049
 BZINTS: Fermi energy: -3.738864; 64.000000 electrons
         Band energy:-497.546783;  BLOECHL correction: -0.004781
       DOS:  cpu time    0.0040: real time    0.0073
    CHARGE:  cpu time    2.1120: real time    2.1289
    MIXING:  cpu time    0.0480: real time    0.0494
    --------------------------------------------
      LOOP:  cpu time   79.7880: real time   79.9802

 eigenvalue-minimisations  :  1152
 total energy-change (2. order) :-0.4021026E-01  (-0.4777465E-02)
 number of electron      63.9999993 magnetization       1.9663571
 augmentation part        5.1126985 magnetization       1.2060362

 Broyden mixing:
  rms(total) = 0.12066E+00    rms(broyden)= 0.12062E+00
  rms(prec ) = 0.13009E+00
  weight for this iteration     100.00

 eigenvalues of (default mixing * dielectric matrix)
  average eigenvalue GAMMA=   1.6322
 10.0082  2.7074  1.7621  1.1355  1.1355  0.5468  0.5468  0.7685  0.7685  0.1980
  0.5123  0.5123  0.6171

 Free energy of the ion-electron system (eV)
  ---------------------------------------------------
  alpha Z        PSCENC =        37.45488097
  Ewald energy   TEWEN  =      8065.03639907
  -Hartree energ DENC   =    -11580.45751300
  -exchange      EXHF   =         0.00000000
  -V(xc)+E(xc)   XCENC  =        29.28929282
  PAW double counting   =      2435.30781149    -2444.92475964
  entropy T*S    EENTRO =         0.00000000
  eigenvalues    EBANDS =      -497.54678260
  atomic energy  EATOM  =      3920.96469382
  Solvation  Ediel_sol  =         0.00000000
  ---------------------------------------------------
  free energy    TOTEN  =       -34.87597705 eV

  energy without entropy =      -34.87597705  energy(sigma->0) =      -34.87597705


--------------------------------------------------------------------------------------------------------




--------------------------------------- Iteration      1(  19)  ---------------------------------------


    POTLOK:  cpu time   50.9320: real time   51.0883
    SETDIJ:  cpu time    0.0440: real time    0.0433
     EDDAV:  cpu time   24.2960: real time   24.4753
 BZINTS: Fermi energy: -3.764436; 64.000000 electrons
         Band energy:-499.004973;  BLOECHL correction: -0.004466
       DOS:  cpu time    0.0040: real time    0.0054
    CHARGE:  cpu time    2.0920: real time    2.1509
    MIXING:  cpu time    0.0520: real time    0.0525
    --------------------------------------------
      LOOP:  cpu time   77.4200: real time   77.8156

 eigenvalue-minimisations  :  1056
 total energy-change (2. order) : 0.2623556E-04  (-0.2080922E-02)
 number of electron      63.9999993 magnetization       1.9828525
 augmentation part        5.2355423 magnetization       1.1720024

 Broyden mixing:
  rms(total) = 0.51712E-01    rms(broyden)= 0.51687E-01
  rms(prec ) = 0.52906E-01
  weight for this iteration     100.00

 eigenvalues of (default mixing * dielectric matrix)
  average eigenvalue GAMMA=   1.6108
 10.1100  2.8892  1.9376  1.2262  1.2262  0.5468  0.5468  0.8204  0.8204  0.1980
  0.5151  0.5151  0.5996  0.5996

 Free energy of the ion-electron system (eV)
  ---------------------------------------------------
  alpha Z        PSCENC =        37.45488097
  Ewald energy   TEWEN  =      8065.03639907
  -Hartree energ DENC   =    -11579.04477547
  -exchange      EXHF   =         0.00000000
  -V(xc)+E(xc)   XCENC  =        29.24047612
  PAW double counting   =      2435.98070320    -2445.50335571
  entropy T*S    EENTRO =         0.00000000
  eigenvalues    EBANDS =      -499.00497283
  atomic energy  EATOM  =      3920.96469382
  Solvation  Ediel_sol  =         0.00000000
  ---------------------------------------------------
  free energy    TOTEN  =       -34.87595082 eV

  energy without entropy =      -34.87595082  energy(sigma->0) =      -34.87595082


--------------------------------------------------------------------------------------------------------




--------------------------------------- Iteration      1(  20)  ---------------------------------------


    POTLOK:  cpu time   51.4040: real time   52.0199
    SETDIJ:  cpu time    0.0440: real time    0.0417
     EDDAV:  cpu time   28.0680: real time   28.2351
 BZINTS: Fermi energy: -3.778567; 64.000000 electrons
         Band energy:-499.851925;  BLOECHL correction: -0.004425
       DOS:  cpu time    0.0040: real time    0.0074
    CHARGE:  cpu time    2.0800: real time    2.1442
    MIXING:  cpu time    0.0520: real time    0.0522
    --------------------------------------------
      LOOP:  cpu time   81.6520: real time   82.5004

 eigenvalue-minimisations  :  1248
 total energy-change (2. order) :-0.4346904E-02  (-0.8437525E-03)
 number of electron      63.9999993 magnetization       2.0008188
 augmentation part        5.3060682 magnetization       1.1715044

 Broyden mixing:
  rms(total) = 0.46091E-01    rms(broyden)= 0.46074E-01
  rms(prec ) = 0.49013E-01
  weight for this iteration     100.00

 eigenvalues of (default mixing * dielectric matrix)
  average eigenvalue GAMMA=   1.5775
 10.0608  3.0333  1.8009  1.3786  1.3786  0.5469  0.5469  0.1980  0.8317  0.8317
  0.7067  0.7067  0.5116  0.5116  0.6189

 Free energy of the ion-electron system (eV)
  ---------------------------------------------------
  alpha Z        PSCENC =        37.45488097
  Ewald energy   TEWEN  =      8065.03639907
  -Hartree energ DENC   =    -11578.35321063
  -exchange      EXHF   =         0.00000000
  -V(xc)+E(xc)   XCENC  =        29.22416859
  PAW double counting   =      2435.81439636    -2445.16970118
  entropy T*S    EENTRO =         0.00000000
  eigenvalues    EBANDS =      -499.85192472
  atomic energy  EATOM  =      3920.96469382
  Solvation  Ediel_sol  =         0.00000000
  ---------------------------------------------------
  free energy    TOTEN  =       -34.88029772 eV

  energy without entropy =      -34.88029772  energy(sigma->0) =      -34.88029772


--------------------------------------------------------------------------------------------------------




--------------------------------------- Iteration      1(  21)  ---------------------------------------


    POTLOK:  cpu time   50.8040: real time   51.0003
    SETDIJ:  cpu time    0.0440: real time    0.0413
     EDDAV:  cpu time   25.5800: real time   25.6320
 BZINTS: Fermi energy: -3.771063; 64.000000 electrons
         Band energy:-499.399900;  BLOECHL correction: -0.004482
       DOS:  cpu time    0.0040: real time    0.0071
    CHARGE:  cpu time    2.1240: real time    2.1271
    MIXING:  cpu time    0.0520: real time    0.0536
    --------------------------------------------
      LOOP:  cpu time   78.6080: real time   78.8615

 eigenvalue-minimisations  :  1120
 total energy-change (2. order) :-0.6250324E-02  (-0.4702265E-03)
 number of electron      63.9999993 magnetization       2.0055594
 augmentation part        5.2647707 magnetization       1.2007493

 Broyden mixing:
  rms(total) = 0.22520E-01    rms(broyden)= 0.22514E-01
  rms(prec ) = 0.23326E-01
  weight for this iteration     100.00

 eigenvalues of (default mixing * dielectric matrix)
  average eigenvalue GAMMA=   1.5806
 10.0928  3.2467  1.6833  1.5604  1.5604  0.9801  0.9801  0.5469  0.5469  0.1980
  0.7845  0.7845  0.5124  0.5124  0.6663  0.6345

 Free energy of the ion-electron system (eV)
  ---------------------------------------------------
  alpha Z        PSCENC =        37.45488097
  Ewald energy   TEWEN  =      8065.03639907
  -Hartree energ DENC   =    -11578.90051624
  -exchange      EXHF   =         0.00000000
  -V(xc)+E(xc)   XCENC  =        29.24770806
  PAW double counting   =      2437.57777039    -2446.86758445
  entropy T*S    EENTRO =         0.00000000
  eigenvalues    EBANDS =      -499.39989967
  atomic energy  EATOM  =      3920.96469382
  Solvation  Ediel_sol  =         0.00000000
  ---------------------------------------------------
  free energy    TOTEN  =       -34.88654804 eV

  energy without entropy =      -34.88654804  energy(sigma->0) =      -34.88654804


--------------------------------------------------------------------------------------------------------




--------------------------------------- Iteration      1(  22)  ---------------------------------------


    POTLOK:  cpu time   50.9160: real time   51.0130
    SETDIJ:  cpu time    0.0400: real time    0.0414
     EDDAV:  cpu time   24.8640: real time   24.9152
 BZINTS: Fermi energy: -3.772971; 64.000000 electrons
         Band energy:-499.444150;  BLOECHL correction: -0.004450
       DOS:  cpu time    0.0080: real time    0.0070
    CHARGE:  cpu time    2.0920: real time    2.1005
    MIXING:  cpu time    0.0560: real time    0.0554
    --------------------------------------------
      LOOP:  cpu time   77.9760: real time   78.1325

 eigenvalue-minimisations  :  1088
 total energy-change (2. order) :-0.5688516E-02  (-0.1162306E-03)
 number of electron      63.9999993 magnetization       2.0016754
 augmentation part        5.2584525 magnetization       1.2005763

 Broyden mixing:
  rms(total) = 0.18769E-01    rms(broyden)= 0.18769E-01
  rms(prec ) = 0.19464E-01
  weight for this iteration     100.00

 eigenvalues of (default mixing * dielectric matrix)
  average eigenvalue GAMMA=   1.5979
 10.1121  3.3479  2.2844  1.7416  1.7416  1.0245  1.0245  0.5469  0.5469  0.1980
  0.8159  0.8159  0.5123  0.5123  0.6631  0.6631  0.6143

 Free energy of the ion-electron system (eV)
  ---------------------------------------------------
  alpha Z        PSCENC =        37.45488097
  Ewald energy   TEWEN  =      8065.03639907
  -Hartree energ DENC   =    -11578.85591553
  -exchange      EXHF   =         0.00000000
  -V(xc)+E(xc)   XCENC  =        29.25120570
  PAW double counting   =      2437.96033321    -2447.25968397
  entropy T*S    EENTRO =         0.00000000
  eigenvalues    EBANDS =      -499.44414984
  atomic energy  EATOM  =      3920.96469382
  Solvation  Ediel_sol  =         0.00000000
  ---------------------------------------------------
  free energy    TOTEN  =       -34.89223656 eV

  energy without entropy =      -34.89223656  energy(sigma->0) =      -34.89223656


--------------------------------------------------------------------------------------------------------




--------------------------------------- Iteration      1(  23)  ---------------------------------------


    POTLOK:  cpu time   51.1880: real time   51.3423
    SETDIJ:  cpu time    0.0440: real time    0.0421
     EDDAV:  cpu time   26.3560: real time   26.6203
 BZINTS: Fermi energy: -3.777261; 64.000000 electrons
         Band energy:-499.721479;  BLOECHL correction: -0.004410
       DOS:  cpu time    0.0040: real time    0.0072
    CHARGE:  cpu time    2.0360: real time    2.0943
    MIXING:  cpu time    0.0600: real time    0.0577
    --------------------------------------------
      LOOP:  cpu time   79.6880: real time   80.1639

 eigenvalue-minimisations  :  1152
 total energy-change (2. order) :-0.5860424E-02  (-0.7716147E-04)
 number of electron      63.9999993 magnetization       2.0051238
 augmentation part        5.2715312 magnetization       1.2012472

 Broyden mixing:
  rms(total) = 0.15614E-01    rms(broyden)= 0.15613E-01
  rms(prec ) = 0.16348E-01
  weight for this iteration     100.00

 eigenvalues of (default mixing * dielectric matrix)
  average eigenvalue GAMMA=   1.6235
 10.0895  3.9019  2.6694  1.8510  1.8510  1.0719  1.0719  0.5469  0.5469  0.1980
  0.8321  0.8321  0.5123  0.5123  0.7335  0.7335  0.6344  0.6344

 Free energy of the ion-electron system (eV)
  ---------------------------------------------------
  alpha Z        PSCENC =        37.45488097
  Ewald energy   TEWEN  =      8065.03639907
  -Hartree energ DENC   =    -11578.60871295
  -exchange      EXHF   =         0.00000000
  -V(xc)+E(xc)   XCENC  =        29.24917331
  PAW double counting   =      2437.89632470    -2447.16937729
  entropy T*S    EENTRO =         0.00000000
  eigenvalues    EBANDS =      -499.72147862
  atomic energy  EATOM  =      3920.96469382
  Solvation  Ediel_sol  =         0.00000000
  ---------------------------------------------------
  free energy    TOTEN  =       -34.89809698 eV

  energy without entropy =      -34.89809698  energy(sigma->0) =      -34.89809698


--------------------------------------------------------------------------------------------------------




--------------------------------------- Iteration      1(  24)  ---------------------------------------


    POTLOK:  cpu time   51.0600: real time   51.1427
    SETDIJ:  cpu time    0.0520: real time    0.0515
     EDDAV:  cpu time   24.6880: real time   24.8117
 BZINTS: Fermi energy: -3.777604; 64.000000 electrons
         Band energy:-499.772429;  BLOECHL correction: -0.004400
       DOS:  cpu time    0.0080: real time    0.0072
    CHARGE:  cpu time    2.1200: real time    2.1228
    MIXING:  cpu time    0.0600: real time    0.0607
    --------------------------------------------
      LOOP:  cpu time   77.9880: real time   78.1966

 eigenvalue-minimisations  :  1072
 total energy-change (2. order) :-0.6476605E-02  (-0.1033802E-03)
 number of electron      63.9999993 magnetization       2.0086520
 augmentation part        5.2664931 magnetization       1.2088419

 Broyden mixing:
  rms(total) = 0.10080E-01    rms(broyden)= 0.10080E-01
  rms(prec ) = 0.10508E-01
  weight for this iteration     100.00

 eigenvalues of (default mixing * dielectric matrix)
  average eigenvalue GAMMA=   1.6932
[...]
     34      -2.0230      0.00000
     35      -1.7743      0.00000
     36       0.1192      0.00000
     37       0.2537      0.00000
     38       0.9848      0.00000
     39       1.1105      0.00000
     40       1.7256      0.00000
     41       1.8510      0.00000
     42       2.0975      0.00000
     43       2.2490      0.00000
     44       2.4645      0.00000
     45       2.6595      0.00000
     46       2.8642      0.00000
     47       3.3203      0.00000
     48       3.4720      0.00000

 k-point     5 :      -0.4000    0.2000    0.0000
  band No.  band energies     occupation 
      1     -16.4036      1.00000
      2     -16.2210      1.00000
      3     -15.8289      1.00000
      4     -15.7780      1.00000
      5     -15.6465      1.00000
      6     -15.4541      1.00000
      7     -10.8815      1.00000
      8      -9.3064      1.00000
      9      -7.9155      1.00000
     10      -7.4124      1.00000
     11      -7.3940      1.00000
     12      -6.9120      1.00000
     13      -6.6036      1.00000
     14      -6.3419      1.00000
     15      -6.0000      1.00000
     16      -5.6940      1.00000
     17      -5.6311      1.00000
     18      -5.5354      1.00000
     19      -5.5021      1.00000
     20      -5.3094      1.00000
     21      -5.1152      1.00000
     22      -4.5865      1.00000
     23      -4.4457      1.00000
     24      -4.3671      1.00000
     25      -4.2742      1.00000
     26      -4.0518      1.00000
     27      -4.0205      1.00000
     28      -3.8868      1.00000
     29      -3.8729      1.00000
     30      -3.6561      1.00000
     31      -3.6105      1.00000
     32      -2.3805     -0.04138
     33      -2.3140      0.00000
     34      -2.0666      0.00000
     35      -1.6806      0.00000
     36      -0.4076      0.00000
     37       0.1077      0.00000
     38       0.5385      0.00000
     39       0.8590      0.00000
     40       1.4179      0.00000
     41       1.6713      0.00000
     42       1.8636      0.00000
     43       2.7109      0.00000
     44       2.8291      0.00000
     45       2.8615      0.00000
     46       3.0155      0.00000
     47       3.1430      0.00000
     48       3.6562      0.00000


--------------------------------------------------------------------------------------------------------


 soft charge-density along one line, spin component           1
         0         1         2         3         4         5         6         7         8         9
 total charge-density along one line

 soft charge-density along one line, spin component           2
         0         1         2         3         4         5         6         7         8         9
 total charge-density along one line

 pseudopotential strength for first ion, spin component:           1
-10.787  -0.145  -0.000   0.000  -0.000   1.482   0.061   0.000
 -0.145 -10.960   0.000  -0.000   0.000   0.061   1.554  -0.000
 -0.000   0.000 -10.724   0.000   0.000   0.000  -0.000   1.455
  0.000  -0.000   0.000 -10.960   0.145  -0.000   0.000  -0.000
 -0.000   0.000   0.000   0.145 -10.787   0.000  -0.000  -0.000
  1.482   0.061   0.000  -0.000   0.000   0.699  -0.026  -0.000
  0.061   1.554  -0.000   0.000  -0.000  -0.026   0.669   0.000
  0.000  -0.000   1.455  -0.000  -0.000  -0.000   0.000   0.710
 -0.000   0.000  -0.000   1.554  -0.061   0.000  -0.000   0.000
  0.000  -0.000  -0.000  -0.061   1.482  -0.000   0.000   0.000
  0.000  -0.000   0.008  -0.000   0.000   0.000  -0.000  -0.002
 -0.000   0.000  -0.001   0.000  -0.000   0.000  -0.000   0.000
 -0.000  -0.000   0.000  -0.000   0.000  -0.000   0.000  -0.000
 -0.000  -0.000  -0.000  -0.000   0.000  -0.000   0.000   0.000
  0.000  -0.000   0.000  -0.000   0.000   0.000  -0.000  -0.000
  0.000   0.000  -0.000   0.000  -0.000  -0.000  -0.000   0.000
  0.000   0.000  -0.000   0.000  -0.000  -0.000  -0.000  -0.000
 -0.000   0.000  -0.000   0.000  -0.000   0.000  -0.000   0.000
 pseudopotential strength for first ion, spin component:           2
-10.357   0.028  -0.000   0.000  -0.000   1.298  -0.009   0.000
  0.028 -10.349   0.000  -0.000   0.000  -0.009   1.297  -0.000
 -0.000   0.000 -10.401   0.000  -0.000   0.000  -0.000   1.314
  0.000  -0.000   0.000 -10.349  -0.028  -0.000   0.000  -0.000
 -0.000   0.000  -0.000  -0.028 -10.357   0.000  -0.000  -0.000
  1.298  -0.009   0.000  -0.000   0.000   0.778   0.002  -0.000
 -0.009   1.297  -0.000   0.000  -0.000   0.002   0.777   0.000
  0.000  -0.000   1.314  -0.000  -0.000  -0.000   0.000   0.773
 -0.000   0.000  -0.000   1.297   0.009   0.000  -0.000   0.000
  0.000  -0.000  -0.000   0.009   1.298  -0.000   0.000   0.000
  0.000  -0.000   0.002  -0.000   0.000   0.000  -0.000  -0.000
 -0.000   0.000  -0.000   0.000  -0.000   0.000  -0.000   0.000
  0.000  -0.000   0.000  -0.000   0.000  -0.000   0.000  -0.000
 -0.000  -0.000  -0.000  -0.000  -0.000  -0.000   0.000   0.000
  0.000  -0.000   0.000  -0.000  -0.000   0.000  -0.000  -0.000
  0.000   0.000  -0.000   0.000  -0.000  -0.000  -0.000   0.000
  0.000   0.000   0.000   0.000   0.000  -0.000  -0.000  -0.000
 -0.000   0.000  -0.000   0.000   0.000   0.000  -0.000   0.000
 total augmentation occupancy for first ion, spin component:           1
  1.810  -0.186   0.000   0.000  -0.000   0.007   0.093  -0.000  -0.000  -0.000  -0.000  -0.000  -0.000  -0.000   0.002   0.000
 -0.186   1.640  -0.000  -0.000   0.000   0.091   0.097   0.000  -0.000  -0.000   0.000   0.000  -0.000  -0.000   0.004   0.000
  0.000  -0.000   1.947  -0.000  -0.000  -0.000   0.000  -0.065   0.000   0.000  -0.014  -0.007  -0.000  -0.000   0.000   0.000
  0.000  -0.000  -0.000   1.640   0.186  -0.000   0.000   0.000   0.097  -0.091   0.000  -0.000  -0.004   0.000  -0.000   0.000
 -0.000   0.000  -0.000   0.186   1.810   0.000  -0.000   0.000  -0.093   0.007   0.000   0.000   0.002   0.000   0.000  -0.001
  0.007   0.091  -0.000  -0.000   0.000   0.071   0.049   0.000  -0.000  -0.000   0.000  -0.000  -0.000   0.000   0.012   0.000
  0.093   0.097   0.000   0.000  -0.000   0.049   0.131   0.000  -0.000  -0.000  -0.000   0.000  -0.000  -0.000  -0.003   0.000
 -0.000   0.000  -0.065   0.000   0.000   0.000   0.000   0.062   0.000  -0.000   0.033  -0.015  -0.000   0.000   0.000   0.000
 -0.000  -0.000   0.000   0.097  -0.093  -0.000  -0.000   0.000   0.131  -0.049  -0.000   0.000   0.003  -0.000  -0.000  -0.000
 -0.000  -0.000   0.000  -0.091   0.007  -0.000  -0.000  -0.000  -0.049   0.071  -0.000   0.000   0.012  -0.000   0.000  -0.002
 -0.000   0.000  -0.014   0.000   0.000   0.000   0.000   0.033  -0.000  -0.000   1.005  -0.276  -0.000  -0.000   0.000   0.000
 -0.000   0.000  -0.007   0.000   0.000  -0.000   0.000  -0.015   0.000   0.000  -0.276   0.135  -0.000   0.000   0.000   0.000
 -0.000  -0.000  -0.000  -0.004   0.002  -0.000  -0.000  -0.000   0.003   0.012   0.000   0.000   0.183  -0.000  -0.000  -0.013
 -0.000   0.000  -0.000   0.000   0.000   0.000   0.000   0.000  -0.000  -0.000  -0.000   0.000  -0.000   0.194   0.000   0.000
  0.002   0.004   0.000  -0.000   0.000   0.012  -0.003   0.000  -0.000   0.000   0.000   0.000  -0.000   0.000   0.183   0.000
  0.000   0.000   0.000   0.000  -0.001   0.000   0.000   0.000  -0.000  -0.002   0.000  -0.000  -0.013   0.000   0.000   0.002
  0.000   0.000   0.000  -0.000  -0.000  -0.000   0.000  -0.000   0.000   0.000   0.000  -0.000   0.000  -0.016  -0.000  -0.000
 -0.001  -0.000  -0.000   0.000  -0.000  -0.002   0.000  -0.000   0.000  -0.000   0.000  -0.000  -0.000  -0.000  -0.013  -0.000
 total augmentation occupancy for first ion, spin component:           2
  0.054   0.098   0.000  -0.000  -0.000  -0.051  -0.047  -0.000   0.000   0.000   0.000   0.000   0.000  -0.000  -0.001   0.000
  0.098   0.157   0.000  -0.000  -0.000  -0.047  -0.103  -0.000   0.000   0.000  -0.000  -0.000   0.000   0.000  -0.000   0.000
  0.000   0.000  -0.005   0.000  -0.000  -0.000  -0.000  -0.024  -0.000   0.000   0.003   0.002   0.000  -0.000  -0.000  -0.000
 -0.000  -0.000   0.000   0.157  -0.098   0.000  -0.000  -0.000  -0.103   0.047  -0.000  -0.000   0.000  -0.000   0.000  -0.000
 -0.000  -0.000  -0.000  -0.098   0.054  -0.000   0.000   0.000   0.047  -0.051  -0.000  -0.000  -0.001   0.000  -0.000   0.000
 -0.051  -0.047  -0.000   0.000  -0.000   0.011   0.017   0.000  -0.000  -0.000  -0.000   0.000  -0.000   0.000   0.000  -0.000
 -0.047  -0.103  -0.000  -0.000   0.000   0.017   0.032   0.000  -0.000  -0.000   0.000   0.000  -0.000   0.000  -0.000  -0.000
 -0.000  -0.000  -0.024  -0.000   0.000   0.000   0.000   0.003   0.000  -0.000  -0.000   0.000  -0.000   0.000   0.000  -0.000
  0.000   0.000  -0.000  -0.103   0.047  -0.000  -0.000   0.000   0.032  -0.017   0.000   0.000   0.000  -0.000  -0.000   0.000
  0.000   0.000   0.000   0.047  -0.051  -0.000  -0.000  -0.000  -0.017   0.011   0.000  -0.000   0.000  -0.000   0.000   0.000
  0.000  -0.000   0.003  -0.000  -0.000  -0.000  -0.000  -0.000   0.000   0.000   0.005   0.019   0.000  -0.000   0.000   0.000
  0.000  -0.000   0.002  -0.000  -0.000   0.000   0.000   0.000   0.000  -0.000   0.019  -0.010   0.000  -0.000   0.000   0.000
  0.000   0.000   0.000   0.000  -0.001  -0.000  -0.000  -0.000   0.000   0.000   0.000   0.000   0.000   0.000  -0.000   0.001
 -0.000   0.000  -0.000  -0.000   0.000   0.000   0.000   0.000  -0.000  -0.000  -0.000  -0.000  -0.000   0.001  -0.000  -0.000
 -0.001  -0.000  -0.000   0.000  -0.000   0.000  -0.000   0.000  -0.000   0.000   0.000   0.000  -0.000   0.000   0.000  -0.000
  0.000   0.000  -0.000  -0.000   0.000  -0.000  -0.000  -0.000   0.000   0.000  -0.000  -0.000   0.001  -0.000  -0.000  -0.000
 -0.000   0.000  -0.000   0.000   0.000   0.000   0.000   0.000  -0.000  -0.000  -0.000   0.000  -0.000   0.001   0.000   0.000
  0.000   0.000   0.000   0.000  -0.000   0.000  -0.000   0.000  -0.000   0.000   0.000   0.000   0.000   0.000   0.001   0.000


------------------------ aborting loop because EDIFF is reached ----------------------------------------





 total charge     

# of ion       s       p       d       tot
------------------------------------------
    1        0.388   0.427   8.330   9.145
    2        0.388   0.427   8.330   9.145
    3        0.758   0.869   0.000   1.628
    4        0.758   0.869   0.000   1.628
    5        1.490   2.252   0.045   3.787
    6        1.485   2.324   0.046   3.854
    7        1.488   2.273   0.045   3.806
    8        1.490   2.252   0.045   3.787
    9        1.485   2.324   0.046   3.854
   10        1.488   2.273   0.045   3.806
--------------------------------------------------
tot         11.218  16.289  16.933  44.440



 magnetization (x)

# of ion       s       p       d       tot
------------------------------------------
    1       -0.001  -0.001   0.563   0.562
    2       -0.001  -0.001   0.563   0.562
    3        0.002   0.004   0.000   0.006
    4        0.002   0.004   0.000   0.006
    5        0.007   0.050   0.001   0.059
    6        0.008   0.067   0.002   0.078
    7        0.007   0.059   0.002   0.068
    8        0.007   0.050   0.001   0.059
    9        0.008   0.067   0.002   0.078
   10        0.007   0.059   0.002   0.068
--------------------------------------------------
tot          0.048   0.360   1.138   1.545

    CHARGE:  cpu time    2.1440: real time    2.1448
    FORLOC:  cpu time    0.0600: real time    0.0592
    FORNL :  cpu time    6.6160: real time    6.6238
    STRESS:  cpu time   19.9560: real time   20.0618
    FORCOR:  cpu time   51.5400: real time   51.6705
    FORHAR:  cpu time    0.3200: real time    0.3217
    MIXING:  cpu time    0.0400: real time    0.0414
    OFIELD:  cpu time    0.0000: real time    0.0000

  FORCE on cell =-STRESS in cart. coord.  units (eV):
  Direction    XX          YY          ZZ          XY          YZ          ZX
  --------------------------------------------------------------------------------------
  Alpha Z    50.00004    50.00004    50.00004
  Ewald   12171.25167 12171.24933-14343.50734    -0.00227    -0.00058    -0.00105
  Hartree 12919.59994 12919.60108-12293.48405    -0.00051     0.00008     0.00013
  E(xc)    -272.93969  -272.93981  -272.57520     0.00013    -0.00000     0.00002
  Local  -25823.69924-25823.69934 25876.35657     0.00240     0.00031     0.00059
  n-local   260.53986   260.92045   261.95138     0.03547     0.52584     0.32775
  augment    68.36914    68.36874    64.74952     0.00049    -0.00032     0.00026
  Kinetic   631.43820   621.97473   656.56403    -4.87972    -0.92824    -1.38345
  Fock        0.00000     0.00000     0.00000     0.00000     0.00000     0.00000
  -------------------------------------------------------------------------------------
  Total       0.01757     0.01757     0.05496    -0.00000     0.00000     0.00000
  in kB       0.03878     0.03878     0.12133    -0.00000     0.00000     0.00000
  external pressure =        0.07 kB  Pullay stress =        0.00 kB


 VOLUME and BASIS-vectors are now :
 -----------------------------------------------------------------------------
  energy-cutoff  :      520.00
  volume of cell :      725.75
      direct lattice vectors                 reciprocal lattice vectors
     6.159355893  0.000000266  0.000000000     0.162354643 -0.093735481 -0.000000000
     3.079677378  5.334158560 -0.000000000    -0.000000008  0.187470997  0.000000000
     0.000000000 -0.000000000 22.089539915    -0.000000000  0.000000000  0.045270296

  length of vectors
     6.159355893  6.159355510 22.089539915     0.187470986  0.187470997  0.045270296


 FORCES acting on ions
    electron-ion (+dipol)            ewald-force                    non-local-force                 convergence-correction
 -----------------------------------------------------------------------------------------------
   -.160E-03 -.106E-03 0.646E+00   0.802E-03 0.479E-03 -.652E+00   0.208E-16 -.139E-16 0.977E-02   0.373E-07 0.107E-06 0.440E-03
   0.160E-03 0.106E-03 -.646E+00   -.802E-03 -.479E-03 0.652E+00   0.694E-17 0.236E-20 -.977E-02   -.373E-07 -.107E-06 -.440E-03
   -.849E-04 0.544E-04 0.246E+03   -.187E-03 -.104E-03 -.240E+03   0.268E-16 0.143E-17 -.593E+01   -.485E-08 -.463E-08 0.132E-02
   0.849E-04 -.544E-04 -.246E+03   0.187E-03 0.104E-03 0.240E+03   0.966E-18 -.143E-17 0.593E+01   0.485E-08 0.463E-08 -.132E-02
   -.279E+02 -.316E-01 -.538E+03   0.260E+02 0.327E-01 0.540E+03   0.191E+01 -.164E-02 -.230E+01   -.135E-02 0.995E-05 -.310E-04
   0.139E+02 0.241E+02 -.538E+03   -.130E+02 -.225E+02 0.540E+03   -.955E+00 -.165E+01 -.230E+01   0.683E-03 0.116E-02 -.310E-04
   0.140E+02 -.241E+02 -.538E+03   -.130E+02 0.225E+02 0.540E+03   -.952E+00 0.165E+01 -.230E+01   0.666E-03 -.117E-02 -.310E-04
   0.279E+02 0.316E-01 0.538E+03   -.260E+02 -.327E-01 -.540E+03   -.191E+01 0.164E-02 0.230E+01   0.135E-02 -.995E-05 0.310E-04
   -.139E+02 -.241E+02 0.538E+03   0.130E+02 0.225E+02 -.540E+03   0.955E+00 0.165E+01 0.230E+01   -.683E-03 -.116E-02 0.310E-04
   -.140E+02 0.241E+02 0.538E+03   0.130E+02 -.225E+02 -.540E+03   0.952E+00 -.165E+01 0.230E+01   -.666E-03 0.117E-02 0.310E-04
 -----------------------------------------------------------------------------------------------
   -.805E-09 0.625E-09 0.145E-08   0.355E-14 0.000E+00 -.114E-12   -.111E-15 0.222E-15 0.888E-15   0.479E-12 -.127E-11 0.987E-11


 POSITION                                       TOTAL-FORCE (eV/Angst)
 -----------------------------------------------------------------------------------
      3.07967      1.77805     11.04368        -0.000000      0.000000      0.004634
      6.15936      3.55611     11.04586        -0.000000     -0.000000     -0.004634
      0.00000     -0.00000      9.90317        -0.000000      0.000000     -0.004959
      0.00000     -0.00000     12.18637        -0.000000     -0.000000      0.004959
      3.88214      0.00064     12.61264         0.019680      0.000212      0.003567
      1.13916      1.97182     12.61264        -0.009656     -0.017149      0.003567
      4.21774      3.36171     12.61264        -0.010023      0.016937      0.003567
      5.35689      5.33352      9.47690        -0.019680     -0.000212     -0.003567
      8.09987      3.36234      9.47690         0.009656      0.017149     -0.003567
      5.02129      1.97245      9.47690         0.010023     -0.016937     -0.003567
 -----------------------------------------------------------------------------------
    total drift:                               -0.000000      0.000000      0.000000


--------------------------------------------------------------------------------------------------------



  FREE ENERGIE OF THE ION-ELECTRON SYSTEM (eV)
  ---------------------------------------------------
  free  energy   TOTEN  =       -39.12684536 eV

  energy  without entropy=      -39.12684536  energy(sigma->0) =      -39.12684536

 d Force = 0.2384526E-03[ 0.277E-06, 0.477E-03]  d Energy = 0.1879383E-03 0.505E-04
 d Force =-0.1227743E+01[-0.123E+01,-0.123E+01]  d Ewald  = 0.7749472E+01-0.898E+01


--------------------------------------------------------------------------------------------------------


    POTLOK:  cpu time   51.5960: real time   51.7247


--------------------------------------------------------------------------------------------------------




--------------------------------------------------------------------------------------------------------


  
 reached required accuracy - stopping structural energy minimisation
     LOOP+:  cpu time  509.1520: real time  512.5087
    4ORBIT:  cpu time    0.0000: real time    0.0000



 total charge     

# of ion       s       p       d       tot
------------------------------------------
    1        0.388   0.427   8.330   9.145
    2        0.388   0.427   8.330   9.145
    3        0.758   0.869   0.000   1.628
    4        0.758   0.869   0.000   1.628
    5        1.490   2.252   0.045   3.787
    6        1.485   2.324   0.046   3.854
    7        1.488   2.273   0.045   3.806
    8        1.490   2.252   0.045   3.787
    9        1.485   2.324   0.046   3.854
   10        1.488   2.273   0.045   3.806
--------------------------------------------------
tot         11.218  16.289  16.933  44.440



 magnetization (x)

# of ion       s       p       d       tot
------------------------------------------
    1       -0.001  -0.001   0.563   0.562
    2       -0.001  -0.001   0.563   0.562
    3        0.002   0.004   0.000   0.006
    4        0.002   0.004   0.000   0.006
    5        0.007   0.050   0.001   0.059
    6        0.008   0.067   0.002   0.078
    7        0.007   0.059   0.002   0.068
    8        0.007   0.050   0.001   0.059
    9        0.008   0.067   0.002   0.078
   10        0.007   0.059   0.002   0.068
--------------------------------------------------
tot          0.048   0.360   1.138   1.545

 BZINTS: Fermi energy: -2.572783; 64.000000 electrons
         Band energy:-487.278940;  BLOECHL correction: -0.016835

 total amount of memory used by VASP MPI-rank0   130066. kBytes
=======================================================================

   base      :      30000. kBytes
   nonlr-proj:       9756. kBytes
   fftplans  :      11247. kBytes
   grid      :      66142. kBytes
   one-center:        311. kBytes
   wavefun   :      12610. kBytes

  
  
 General timing and accounting informations for this job:
 ========================================================
  
                  Total CPU time used (sec):     8944.976
                            User time (sec):     8736.136
                          System time (sec):      208.840
                         Elapsed time (sec):     8993.908
  
                   Maximum memory used (kb):      382240.
                   Average memory used (kb):           0.
  
                          Minor page faults:      9076761
                          Major page faults:            8
                 Voluntary context switches:         1070
