PROCAR lm decomposed
# of k-points:    5         # of bands:   48         # of ions:   10

 k-point     1 :    0.00000000 0.00000000 0.00000000     weight = 0.04000000

band     1 # energy  -17.30483133 # occ.  1.00000000

ion      s     py     pz     px    dxy    dyz    dz2    dxz  x2-y2    tot
    1  0.017  0.000  0.000  0.000  0.000  0.000  0.000  0.000  0.000  0.017
    2  0.017  0.000  0.000  0.000  0.000  0.000  0.000  0.000  0.000  0.017
    3  0.033  0.000  0.000  0.000  0.000  0.000  0.000  0.000  0.000  0.033
    4  0.033  0.000  0.000  0.000  0.000  0.000  0.000  0.000  0.000  0.033
    5  0.092  0.000  0.001  0.001  0.000  0.000  0.000  0.000  0.000  0.093
    6  0.092  0.000  0.001  0.000  0.000  0.000  0.000  0.000  0.000  0.093
    7  0.092  0.000  0.001  0.000  0.000  0.000  0.000  0.000  0.000  0.093
    8  0.092  0.000  0.001  0.001  0.000  0.000  0.000  0.000  0.000  0.093
    9  0.092  0.000  0.001  0.000  0.000  0.000  0.000  0.000  0.000  0.093
   10  0.092  0.000  0.001  0.000  0.000  0.000  0.000  0.000  0.000  0.093
tot    0.651  0.002  0.005  0.002  0.000  0.000  0.000  0.000  0.000  0.660

band     2 # energy  -16.45282402 # occ.  1.00000000

ion      s     py     pz     px    dxy    dyz    dz2    dxz  x2-y2    tot
    1  0.000  0.000  0.007  0.000  0.000  0.000  0.000  0.000  0.000  0.007
    2  0.000  0.000  0.007  0.000  0.000  0.000  0.000  0.000  0.000  0.007
    3  0.022  0.000  0.001  0.000  0.000  0.000  0.000  0.000  0.000  0.023
    4  0.022  0.000  0.001  0.000  0.000  0.000  0.000  0.000  0.000  0.023
    5  0.106  0.000  0.000  0.001  0.000  0.000  0.000  0.000  0.000  0.107
    6  0.106  0.000  0.000  0.000  0.000  0.000  0.000  0.000  0.000  0.107
    7  0.106  0.000  0.000  0.000  0.000  0.000  0.000  0.000  0.000  0.107
    8  0.106  0.000  0.000  0.001  0.000  0.000  0.000  0.000  0.000  0.107
    9  0.106  0.000  0.000  0.000  0.000  0.000  0.000  0.000  0.000  0.107
   10  0.106  0.000  0.000  0.000  0.000  0.000  0.000  0.000  0.000  0.107
tot    0.681  0.002  0.017  0.002  0.000  0.000  0.001  0.000  0.000  0.703

band     3 # energy  -15.37685310 # occ.  1.00000000

ion      s     py     pz     px    dxy    dyz    dz2    dxz  x2-y2    tot
    1  0.000  0.006  0.000  0.000  0.000  0.000  0.000  0.001  0.001  0.009
    2  0.000  0.006  0.000  0.000  0.000  0.000  0.000  0.001  0.001  0.009
    3  0.000  0.000  0.000  0.006  0.000  0.000  0.000  0.000  0.000  0.006
    4  0.000  0.000  0.000  0.006  0.000  0.000  0.000  0.000  0.000  0.006
    5  0.228  0.000  0.001  0.001  0.000  0.000  0.000  0.000  0.000  0.230
    6  0.119  0.000  0.000  0.000  0.000  0.000  0.000  0.000  0.000  0.120
    7  0.017  0.000  0.000  0.000  0.000  0.000  0.000  0.000  0.000  0.018
    8  0.228  0.000  0.001  0.001  0.000  0.000  0.000  0.000  0.000  0.230
    9  0.119  0.000  0.000  0.000  0.000  0.000  0.000  0.000  0.000  0.120
   10  0.017  0.000  0.000  0.000  0.000  0.000  0.000  0.000  0.000  0.018
tot    0.730  0.014  0.003  0.014  0.000  0.000  0.000  0.003  0.003  0.766

band     4 # energy  -15.37681823 # occ.  1.00000000

ion      s     py     pz     px    dxy    dyz    dz2    dxz  x2-y2    tot
    1  0.000  0.000  0.000  0.006  0.001  0.001  0.000  0.000  0.000  0.009
    2  0.000  0.000  0.000  0.006  0.001  0.001  0.000  0.000  0.000  0.009
    3  0.000  0.006  0.000  0.000  0.000  0.000  0.000  0.000  0.000  0.006
    4  0.000  0.006  0.000  0.000  0.000  0.000  0.000  0.000  0.000  0.006
    5  0.015  0.000  0.000  0.000  0.000  0.000  0.000  0.000  0.000  0.015
    6  0.124  0.000  0.000  0.000  0.000  0.000  0.000  0.000  0.000  0.125
    7  0.226  0.001  0.001  0.000  0.000  0.000  0.000  0.000  0.000  0.227
    8  0.015  0.000  0.000  0.000  0.000  0.000  0.000  0.000  0.000  0.015
    9  0.124  0.000  0.000  0.000  0.000  0.000  0.000  0.000  0.000  0.125
   10  0.226  0.001  0.001  0.000  0.000  0.000  0.000  0.000  0.000  0.227
tot    0.730  0.014  0.003  0.014  0.003  0.003  0.000  0.000  0.000  0.766

band     5 # energy  -15.33538846 # occ.  1.00000000

ion      s     py     pz     px    dxy    dyz    dz2    dxz  x2-y2    tot
    1  0.000  0.000  0.000  0.001  0.002  0.006  0.000  0.000  0.000  0.009
    2  0.000  0.000  0.000  0.001  0.002  0.006  0.000  0.000  0.000  0.009
    3  0.000  0.000  0.000  0.009  0.000  0.000  0.000  0.000  0.000  0.009
    4  0.000  0.000  0.000  0.009  0.000  0.000  0.000  0.000  0.000  0.009
    5  0.237  0.000  0.001  0.002  0.000  0.000  0.000  0.000  0.000  0.240
    6  0.085  0.001  0.000  0.000  0.000  0.000  0.000  0.000  0.000  0.086
    7  0.038  0.000  0.000  0.000  0.000  0.000  0.000  0.000  0.000  0.039
    8  0.237  0.000  0.001  0.002  0.000  0.000  0.000  0.000  0.000  0.240
    9  0.085  0.001  0.000  0.000  0.000  0.000  0.000  0.000  0.000  0.086
   10  0.038  0.000  0.000  0.000  0.000  0.000  0.000  0.000  0.000  0.039
tot    0.720  0.002  0.002  0.025  0.004  0.011  0.000  0.000  0.000  0.765

band     6 # energy  -15.33534693 # occ.  1.00000000

ion      s     py     pz     px    dxy    dyz    dz2    dxz  x2-y2    tot
    1  0.000  0.001  0.000  0.000  0.000  0.000  0.000  0.006  0.002  0.009
    2  0.000  0.001  0.000  0.000  0.000  0.000  0.000  0.006  0.002  0.009
    3  0.000  0.009  0.000  0.000  0.000  0.000  0.000  0.000  0.000  0.009
    4  0.000  0.009  0.000  0.000  0.000  0.000  0.000  0.000  0.000  0.009
    5  0.003  0.000  0.000  0.000  0.000  0.000  0.000  0.000  0.000  0.003
    6  0.155  0.001  0.000  0.000  0.000  0.000  0.000  0.000  0.000  0.157
    7  0.202  0.001  0.001  0.000  0.000  0.000  0.000  0.000  0.000  0.204
    8  0.003  0.000  0.000  0.000  0.000  0.000  0.000  0.000  0.000  0.003
    9  0.155  0.001  0.000  0.000  0.000  0.000  0.000  0.000  0.000  0.157
   10  0.202  0.001  0.001  0.000  0.000  0.000  0.000  0.000  0.000  0.204
tot    0.720  0.025  0.002  0.002  0.000  0.000  0.000  0.011  0.004  0.765

band     7 # energy  -11.25011149 # occ.  1.00000000

ion      s     py     pz     px    dxy    dyz    dz2    dxz  x2-y2    tot
    1  0.011  0.000  0.000  0.000  0.000  0.000  0.001  0.000  0.000  0.012
    2  0.011  0.000  0.000  0.000  0.000  0.000  0.001  0.000  0.000  0.012
    3  0.166  0.000  0.009  0.000  0.000  0.000  0.000  0.000  0.000  0.176
    4  0.166  0.000  0.009  0.000  0.000  0.000  0.000  0.000  0.000  0.176
    5  0.014  0.000  0.000  0.017  0.000  0.000  0.000  0.000  0.001  0.033
    6  0.014  0.013  0.000  0.004  0.001  0.000  0.000  0.000  0.000  0.033
    7  0.014  0.013  0.000  0.004  0.001  0.000  0.000  0.000  0.000  0.033
    8  0.014  0.000  0.000  0.017  0.000  0.000  0.000  0.000  0.001  0.033
    9  0.014  0.013  0.000  0.004  0.001  0.000  0.000  0.000  0.000  0.033
   10  0.014  0.013  0.000  0.004  0.001  0.000  0.000  0.000  0.000  0.033
tot    0.439  0.052  0.020  0.052  0.003  0.001  0.003  0.001  0.003  0.575

band     8 # energy   -9.12382673 # occ.  1.00000000

ion      s     py     pz     px    dxy    dyz    dz2    dxz  x2-y2    tot
    1  0.000  0.000  0.008  0.000  0.000  0.000  0.000  0.000  0.000  0.008
    2  0.000  0.000  0.008  0.000  0.000  0.000  0.000  0.000  0.000  0.008
    3  0.141  0.000  0.009  0.000  0.000  0.000  0.000  0.000  0.000  0.150
    4  0.141  0.000  0.009  0.000  0.000  0.000  0.000  0.000  0.000  0.150
    5  0.009  0.000  0.000  0.035  0.000  0.000  0.000  0.000  0.002  0.046
    6  0.009  0.026  0.000  0.009  0.001  0.000  0.000  0.000  0.000  0.046
    7  0.009  0.026  0.000  0.009  0.001  0.000  0.000  0.000  0.000  0.046
    8  0.009  0.000  0.000  0.035  0.000  0.000  0.000  0.000  0.002  0.046
    9  0.009  0.026  0.000  0.009  0.001  0.000  0.000  0.000  0.000  0.046
   10  0.009  0.026  0.000  0.009  0.001  0.000  0.000  0.000  0.000  0.046
tot    0.336  0.105  0.035  0.105  0.005  0.000  0.001  0.000  0.005  0.594

band     9 # energy   -7.94957428 # occ.  1.00000000

ion      s     py     pz     px    dxy    dyz    dz2    dxz  x2-y2    tot
    1  0.000  0.002  0.000  0.002  0.001  0.023  0.000  0.025  0.001  0.054
    2  0.000  0.002  0.000  0.002  0.001  0.023  0.000  0.025  0.001  0.054
    3  0.000  0.022  0.000  0.020  0.000  0.000  0.000  0.000  0.000  0.041
    4  0.000  0.022  0.000  0.020  0.000  0.000  0.000  0.000  0.000  0.041
    5  0.004  0.013  0.001  0.035  0.000  0.000  0.000  0.000  0.000  0.054
    6  0.007  0.062  0.003  0.010  0.000  0.001  0.000  0.000  0.000  0.082
    7  0.001  0.000  0.000  0.028  0.000  0.000  0.000  0.000  0.000  0.030
    8  0.004  0.013  0.001  0.035  0.000  0.000  0.000  0.000  0.000  0.054
    9  0.007  0.062  0.003  0.010  0.000  0.001  0.000  0.000  0.000  0.082
   10  0.001  0.000  0.000  0.028  0.000  0.000  0.000  0.000  0.000  0.030
tot    0.022  0.196  0.009  0.191  0.004  0.046  0.000  0.051  0.004  0.523

band    10 # energy   -7.94955331 # occ.  1.00000000

ion      s     py     pz     px    dxy    dyz    dz2    dxz  x2-y2    tot
    1  0.000  0.002  0.000  0.002  0.001  0.025  0.000  0.023  0.001  0.054
    2  0.000  0.002  0.000  0.002  0.001  0.025  0.000  0.023  0.001  0.054
    3  0.000  0.020  0.000  0.022  0.000  0.000  0.000  0.000  0.000  0.041
    4  0.000  0.020  0.000  0.022  0.000  0.000  0.000  0.000  0.000  0.041
    5  0.004  0.012  0.002  0.039  0.000  0.000  0.000  0.000  0.000  0.057
    6  0.000  0.000  0.000  0.027  0.000  0.000  0.000  0.000  0.000  0.029
    7  0.007  0.062  0.003  0.009  0.000  0.001  0.000  0.000  0.000  0.081
    8  0.004  0.012  0.002  0.039  0.000  0.000  0.000  0.000  0.000  0.057
    9  0.000  0.000  0.000  0.027  0.000  0.000  0.000  0.000  0.000  0.029
   10  0.007  0.062  0.003  0.009  0.000  0.001  0.000  0.000  0.000  0.081
tot    0.022  0.191  0.009  0.196  0.004  0.051  0.000  0.046  0.004  0.523

band    11 # energy   -7.93986948 # occ.  1.00000000

ion      s     py     pz     px    dxy    dyz    dz2    dxz  x2-y2    tot
    1  0.050  0.000  0.000  0.000  0.000  0.000  0.013  0.000  0.000  0.063
    2  0.050  0.000  0.000  0.000  0.000  0.000  0.013  0.000  0.000  0.063
    3  0.001  0.000  0.033  0.000  0.000  0.000  0.000  0.000  0.000  0.033
    4  0.001  0.000  0.033  0.000  0.000  0.000  0.000  0.000  0.000  0.033
    5  0.004  0.000  0.040  0.007  0.000  0.000  0.000  0.000  0.000  0.051
    6  0.004  0.005  0.040  0.002  0.000  0.000  0.000  0.000  0.000  0.051
    7  0.004  0.005  0.040  0.002  0.000  0.000  0.000  0.000  0.000  0.051
    8  0.004  0.000  0.040  0.007  0.000  0.000  0.000  0.000  0.000  0.051
    9  0.004  0.005  0.040  0.002  0.000  0.000  0.000  0.000  0.000  0.051
   10  0.004  0.005  0.040  0.002  0.000  0.000  0.000  0.000  0.000  0.051
tot    0.123  0.020  0.303  0.020  0.001  0.000  0.029  0.000  0.001  0.497

band    12 # energy   -7.88938490 # occ.  1.00000000

ion      s     py     pz     px    dxy    dyz    dz2    dxz  x2-y2    tot
    1  0.086  0.000  0.000  0.000  0.000  0.000  0.023  0.000  0.000  0.108
    2  0.086  0.000  0.000  0.000  0.000  0.000  0.023  0.000  0.000  0.108
    3  0.000  0.000  0.000  0.000  0.000  0.000  0.000  0.000  0.000  0.000
    4  0.000  0.000  0.000  0.000  0.000  0.000  0.000  0.000  0.000  0.000
    5  0.000  0.058  0.000  0.000  0.000  0.001  0.000  0.000  0.000  0.059
    6  0.000  0.014  0.000  0.043  0.000  0.000  0.000  0.000  0.000  0.059
    7  0.000  0.014  0.000  0.043  0.000  0.000  0.000  0.000  0.000  0.059
    8  0.000  0.058  0.000  0.000  0.000  0.001  0.000  0.000  0.000  0.059
    9  0.000  0.014  0.000  0.043  0.000  0.000  0.000  0.000  0.000  0.059
   10  0.000  0.014  0.000  0.043  0.000  0.000  0.000  0.000  0.000  0.059
tot    0.171  0.173  0.000  0.173  0.001  0.002  0.045  0.002  0.001  0.568

band    13 # energy   -7.54457721 # occ.  1.00000000

ion      s     py     pz     px    dxy    dyz    dz2    dxz  x2-y2    tot
    1  0.000  0.014  0.000  0.003  0.002  0.003  0.000  0.014  0.008  0.044
    2  0.000  0.014  0.000  0.003  0.002  0.003  0.000  0.014  0.008  0.044
    3  0.000  0.005  0.000  0.026  0.000  0.000  0.000  0.000  0.000  0.032
    4  0.000  0.005  0.000  0.026  0.000  0.000  0.000  0.000  0.000  0.032
    5  0.000  0.005  0.006  0.072  0.000  0.000  0.001  0.000  0.000  0.083
    6  0.000  0.065  0.005  0.001  0.000  0.000  0.000  0.000  0.000  0.072
    7  0.000  0.011  0.000  0.016  0.000  0.000  0.000  0.000  0.000  0.028
    8  0.000  0.005  0.006  0.072  0.000  0.000  0.001  0.000  0.000  0.083
    9  0.000  0.065  0.005  0.001  0.000  0.000  0.000  0.000  0.000  0.072
   10  0.000  0.011  0.000  0.016  0.000  0.000  0.000  0.000  0.000  0.028
tot    0.001  0.201  0.021  0.237  0.004  0.006  0.002  0.029  0.018  0.518

band    14 # energy   -7.54455307 # occ.  1.00000000

ion      s     py     pz     px    dxy    dyz    dz2    dxz  x2-y2    tot
    1  0.000  0.003  0.000  0.014  0.008  0.014  0.000  0.003  0.002  0.044
    2  0.000  0.003  0.000  0.014  0.008  0.014  0.000  0.003  0.002  0.044
    3  0.000  0.026  0.000  0.005  0.000  0.000  0.000  0.000  0.000  0.032
    4  0.000  0.026  0.000  0.005  0.000  0.000  0.000  0.000  0.000  0.032
    5  0.000  0.022  0.001  0.015  0.000  0.000  0.000  0.000  0.000  0.039
    6  0.000  0.007  0.002  0.040  0.000  0.000  0.000  0.000  0.000  0.050
    7  0.000  0.060  0.007  0.026  0.000  0.000  0.001  0.000  0.000  0.094
    8  0.000  0.022  0.001  0.015  0.000  0.000  0.000  0.000  0.000  0.039
    9  0.000  0.007  0.002  0.040  0.000  0.000  0.000  0.000  0.000  0.050
   10  0.000  0.060  0.007  0.026  0.000  0.000  0.001  0.000  0.000  0.094
tot    0.001  0.237  0.021  0.201  0.018  0.029  0.002  0.006  0.004  0.518

band    15 # energy   -6.51048884 # occ.  1.00000000

ion      s     py     pz     px    dxy    dyz    dz2    dxz  x2-y2    tot
    1  0.000  0.000  0.042  0.000  0.000  0.000  0.000  0.000  0.000  0.042
    2  0.000  0.000  0.042  0.000  0.000  0.000  0.000  0.000  0.000  0.042
    3  0.000  0.000  0.000  0.000  0.000  0.000  0.000  0.000  0.000  0.000
    4  0.000  0.000  0.000  0.000  0.000  0.000  0.000  0.000  0.000  0.000
    5  0.000  0.074  0.000  0.000  0.000  0.000  0.000  0.000  0.000  0.075
    6  0.000  0.019  0.000  0.056  0.000  0.000  0.000  0.000  0.000  0.075
    7  0.000  0.019  0.000  0.056  0.000  0.000  0.000  0.000  0.000  0.075
    8  0.000  0.074  0.000  0.000  0.000  0.000  0.000  0.000  0.000  0.075
    9  0.000  0.019  0.000  0.056  0.000  0.000  0.000  0.000  0.000  0.075
   10  0.000  0.019  0.000  0.056  0.000  0.000  0.000  0.000  0.000  0.075
tot    0.000  0.223  0.083  0.223  0.001  0.000  0.000  0.000  0.001  0.531

band    16 # energy   -6.00020467 # occ.  1.00000000

ion      s     py     pz     px    dxy    dyz    dz2    dxz  x2-y2    tot
    1  0.000  0.001  0.000  0.000  0.002  0.002  0.000  0.178  0.144  0.327
    2  0.000  0.001  0.000  0.000  0.002  0.002  0.000  0.178  0.144  0.327
    3  0.000  0.000  0.000  0.000  0.000  0.000  0.000  0.000  0.000  0.000
    4  0.000  0.000  0.000  0.000  0.000  0.000  0.000  0.000  0.000  0.000
    5  0.001  0.000  0.024  0.005  0.000  0.000  0.000  0.000  0.000  0.031
    6  0.000  0.001  0.009  0.020  0.000  0.000  0.000  0.001  0.000  0.032
    7  0.000  0.003  0.004  0.024  0.000  0.000  0.000  0.001  0.000  0.032
    8  0.001  0.000  0.024  0.005  0.000  0.000  0.000  0.000  0.000  0.031
    9  0.000  0.001  0.009  0.020  0.000  0.000  0.000  0.001  0.000  0.032
   10  0.000  0.003  0.004  0.024  0.000  0.000  0.000  0.001  0.000  0.032
tot    0.004  0.012  0.073  0.098  0.004  0.005  0.001  0.360  0.288  0.844

band    17 # energy   -6.00018520 # occ.  1.00000000

ion      s     py     pz     px    dxy    dyz    dz2    dxz  x2-y2    tot
    1  0.000  0.000  0.000  0.001  0.144  0.178  0.000  0.002  0.002  0.327
    2  0.000  0.000  0.000  0.001  0.144  0.178  0.000  0.002  0.002  0.327
    3  0.000  0.000  0.000  0.000  0.000  0.000  0.000  0.000  0.000  0.000
    4  0.000  0.000  0.000  0.000  0.000  0.000  0.000  0.000  0.000  0.000
    5  0.000  0.031  0.000  0.000  0.000  0.001  0.000  0.000  0.000  0.032
    6  0.001  0.010  0.016  0.004  0.000  0.000  0.000  0.000  0.000  0.031
    7  0.001  0.008  0.021  0.001  0.000  0.000  0.000  0.000  0.000  0.031
    8  0.000  0.031  0.000  0.000  0.000  0.001  0.000  0.000  0.000  0.032
    9  0.001  0.010  0.016  0.004  0.000  0.000  0.000  0.000  0.000  0.031
   10  0.001  0.008  0.021  0.001  0.000  0.000  0.000  0.000  0.000  0.031
tot    0.004  0.098  0.073  0.012  0.288  0.360  0.001  0.005  0.004  0.844

band    18 # energy   -5.74351037 # occ.  1.00000000

ion      s     py     pz     px    dxy    dyz    dz2    dxz  x2-y2    tot
    1  0.000  0.000  0.000  0.001  0.100  0.107  0.000  0.037  0.034  0.279
    2  0.000  0.000  0.000  0.001  0.100  0.107  0.000  0.037  0.034  0.279
    3  0.000  0.000  0.000  0.001  0.000  0.000  0.000  0.000  0.000  0.001
    4  0.000  0.000  0.000  0.001  0.000  0.000  0.000  0.000  0.000  0.001
    5  0.005  0.000  0.051  0.000  0.000  0.000  0.000  0.000  0.000  0.056
    6  0.005  0.000  0.051  0.000  0.000  0.000  0.000  0.000  0.000  0.057
    7  0.000  0.000  0.000  0.001  0.000  0.000  0.000  0.000  0.000  0.002
    8  0.005  0.000  0.051  0.000  0.000  0.000  0.000  0.000  0.000  0.056
    9  0.005  0.000  0.051  0.000  0.000  0.000  0.000  0.000  0.000  0.057
   10  0.000  0.000  0.000  0.001  0.000  0.000  0.000  0.000  0.000  0.002
tot    0.018  0.004  0.204  0.007  0.201  0.215  0.000  0.073  0.068  0.790

band    19 # energy   -5.74350292 # occ.  1.00000000

ion      s     py     pz     px    dxy    dyz    dz2    dxz  x2-y2    tot
    1  0.000  0.001  0.000  0.000  0.034  0.037  0.000  0.107  0.100  0.279
    2  0.000  0.001  0.000  0.000  0.034  0.037  0.000  0.107  0.100  0.279
    3  0.000  0.001  0.000  0.000  0.000  0.000  0.000  0.000  0.000  0.001
    4  0.000  0.001  0.000  0.000  0.000  0.000  0.000  0.000  0.000  0.001
    5  0.002  0.001  0.017  0.000  0.000  0.000  0.000  0.000  0.000  0.021
    6  0.001  0.000  0.017  0.001  0.000  0.000  0.000  0.000  0.000  0.020
    7  0.006  0.000  0.068  0.000  0.000  0.000  0.000  0.000  0.000  0.075
    8  0.002  0.001  0.017  0.000  0.000  0.000  0.000  0.000  0.000  0.021
    9  0.001  0.000  0.017  0.001  0.000  0.000  0.000  0.000  0.000  0.020
   10  0.006  0.000  0.068  0.000  0.000  0.000  0.000  0.000  0.000  0.075
tot    0.018  0.007  0.204  0.004  0.068  0.073  0.000  0.215  0.201  0.790

band    20 # energy   -4.99236587 # occ.  1.00000000

ion      s     py     pz     px    dxy    dyz    dz2    dxz  x2-y2    tot
    1  0.000  0.000  0.000  0.000  0.000  0.000  0.334  0.000  0.000  0.334
    2  0.000  0.000  0.000  0.000  0.000  0.000  0.334  0.000  0.000  0.334
    3  0.004  0.000  0.037  0.000  0.000  0.000  0.000  0.000  0.000  0.041
    4  0.004  0.000  0.037  0.000  0.000  0.000  0.000  0.000  0.000  0.041
    5  0.000  0.000  0.001  0.007  0.000  0.000  0.000  0.000  0.000  0.010
    6  0.000  0.006  0.001  0.002  0.000  0.000  0.000  0.000  0.000  0.010
    7  0.000  0.006  0.001  0.002  0.000  0.000  0.000  0.000  0.000  0.010
    8  0.000  0.000  0.001  0.007  0.000  0.000  0.000  0.000  0.000  0.010
    9  0.000  0.006  0.001  0.002  0.000  0.000  0.000  0.000  0.000  0.010
   10  0.000  0.006  0.001  0.002  0.000  0.000  0.000  0.000  0.000  0.010
tot    0.010  0.022  0.080  0.022  0.001  0.001  0.669  0.001  0.001  0.808

band    21 # energy   -4.70692152 # occ.  1.00000000

ion      s     py     pz     px    dxy    dyz    dz2    dxz  x2-y2    tot
    1  0.000  0.000  0.011  0.000  0.000  0.000  0.000  0.000  0.000  0.012
    2  0.000  0.000  0.011  0.000  0.000  0.000  0.000  0.000  0.000  0.012
    3  0.002  0.000  0.006  0.000  0.000  0.000  0.000  0.000  0.000  0.008
    4  0.002  0.000  0.006  0.000  0.000  0.000  0.000  0.000  0.000  0.008
    5  0.000  0.000  0.077  0.000  0.000  0.000  0.000  0.000  0.000  0.077
    6  0.000  0.000  0.077  0.000  0.000  0.000  0.000  0.000  0.000  0.077
    7  0.000  0.000  0.077  0.000  0.000  0.000  0.000  0.000  0.000  0.077
    8  0.000  0.000  0.077  0.000  0.000  0.000  0.000  0.000  0.000  0.077
    9  0.000  0.000  0.077  0.000  0.000  0.000  0.000  0.000  0.000  0.077
   10  0.000  0.000  0.077  0.000  0.000  0.000  0.000  0.000  0.000  0.077
tot    0.005  0.000  0.496  0.000  0.000  0.000  0.000  0.000  0.000  0.502

band    22 # energy   -4.66057158 # occ.  1.00000000

ion      s     py     pz     px    dxy    dyz    dz2    dxz  x2-y2    tot
    1  0.000  0.004  0.000  0.001  0.011  0.022  0.000  0.133  0.065  0.235
    2  0.000  0.004  0.000  0.001  0.011  0.022  0.000  0.133  0.065  0.235
    3  0.000  0.002  0.000  0.013  0.000  0.000  0.000  0.000  0.000  0.016
    4  0.000  0.002  0.000  0.013  0.000  0.000  0.000  0.000  0.000  0.016
    5  0.003  0.000  0.048  0.022  0.000  0.000  0.000  0.000  0.001  0.074
    6  0.002  0.010  0.034  0.007  0.000  0.000  0.000  0.000  0.001  0.054
    7  0.000  0.000  0.001  0.002  0.000  0.000  0.000  0.000  0.001  0.004
    8  0.003  0.000  0.048  0.022  0.000  0.000  0.000  0.000  0.001  0.074
    9  0.002  0.010  0.034  0.007  0.000  0.000  0.000  0.000  0.001  0.054
   10  0.000  0.000  0.001  0.002  0.000  0.000  0.000  0.000  0.001  0.004
tot    0.010  0.031  0.167  0.089  0.023  0.044  0.000  0.266  0.134  0.764

band    23 # energy   -4.66055374 # occ.  1.00000000

ion      s     py     pz     px    dxy    dyz    dz2    dxz  x2-y2    tot
    1  0.000  0.001  0.000  0.004  0.065  0.133  0.000  0.022  0.011  0.235
    2  0.000  0.001  0.000  0.004  0.065  0.133  0.000  0.022  0.011  0.235
    3  0.000  0.013  0.000  0.002  0.000  0.000  0.000  0.000  0.000  0.016
    4  0.000  0.013  0.000  0.002  0.000  0.000  0.000  0.000  0.000  0.016
    5  0.000  0.001  0.008  0.004  0.001  0.000  0.000  0.000  0.000  0.014
    6  0.001  0.010  0.021  0.001  0.001  0.000  0.000  0.000  0.000  0.034
    7  0.003  0.020  0.055  0.006  0.001  0.000  0.000  0.000  0.000  0.084
    8  0.000  0.001  0.008  0.004  0.001  0.000  0.000  0.000  0.000  0.014
    9  0.001  0.010  0.021  0.001  0.001  0.000  0.000  0.000  0.000  0.034
   10  0.003  0.020  0.055  0.006  0.001  0.000  0.000  0.000  0.000  0.084
tot    0.010  0.089  0.167  0.031  0.134  0.266  0.000  0.044  0.023  0.764

band    24 # energy   -4.43926400 # occ.  1.00000000

ion      s     py     pz     px    dxy    dyz    dz2    dxz  x2-y2    tot
    1  0.011  0.000  0.000  0.000  0.000  0.000  0.452  0.000  0.000  0.463
    2  0.011  0.000  0.000  0.000  0.000  0.000  0.452  0.000  0.000  0.463
    3  0.000  0.000  0.000  0.000  0.000  0.000  0.000  0.000  0.000  0.000
    4  0.000  0.000  0.000  0.000  0.000  0.000  0.000  0.000  0.000  0.000
    5  0.000  0.002  0.000  0.000  0.000  0.000  0.000  0.000  0.000  0.003
    6  0.000  0.001  0.000  0.002  0.000  0.000  0.000  0.000  0.000  0.003
    7  0.000  0.001  0.000  0.002  0.000  0.000  0.000  0.000  0.000  0.003
    8  0.000  0.002  0.000  0.000  0.000  0.000  0.000  0.000  0.000  0.003
    9  0.000  0.001  0.000  0.002  0.000  0.000  0.000  0.000  0.000  0.003
   10  0.000  0.001  0.000  0.002  0.000  0.000  0.000  0.000  0.000  0.003
tot    0.022  0.007  0.000  0.007  0.000  0.001  0.903  0.001  0.000  0.941

band    25 # energy   -4.43830951 # occ.  1.00000000

ion      s     py     pz     px    dxy    dyz    dz2    dxz  x2-y2    tot
    1  0.000  0.004  0.000  0.009  0.114  0.040  0.000  0.020  0.057  0.245
    2  0.000  0.004  0.000  0.009  0.114  0.040  0.000  0.020  0.057  0.245
    3  0.000  0.001  0.000  0.000  0.000  0.000  0.000  0.000  0.000  0.001
    4  0.000  0.001  0.000  0.000  0.000  0.000  0.000  0.000  0.000  0.001
    5  0.001  0.006  0.023  0.002  0.000  0.000  0.000  0.000  0.000  0.033
    6  0.002  0.003  0.068  0.002  0.000  0.000  0.000  0.000  0.000  0.076
    7  0.000  0.005  0.012  0.004  0.000  0.000  0.000  0.000  0.000  0.022
    8  0.001  0.006  0.023  0.002  0.000  0.000  0.000  0.000  0.000  0.033
    9  0.002  0.003  0.068  0.002  0.000  0.000  0.000  0.000  0.000  0.076
   10  0.000  0.005  0.012  0.004  0.000  0.000  0.000  0.000  0.000  0.022
tot    0.007  0.039  0.207  0.033  0.230  0.082  0.000  0.040  0.115  0.752

band    26 # energy   -4.43829990 # occ.  1.00000000

ion      s     py     pz     px    dxy    dyz    dz2    dxz  x2-y2    tot
    1  0.000  0.009  0.000  0.004  0.057  0.020  0.000  0.040  0.114  0.245
    2  0.000  0.009  0.000  0.004  0.057  0.020  0.000  0.040  0.114  0.245
    3  0.000  0.000  0.000  0.001  0.000  0.000  0.000  0.000  0.000  0.001
    4  0.000  0.000  0.000  0.001  0.000  0.000  0.000  0.000  0.000  0.001
    5  0.002  0.003  0.045  0.003  0.000  0.000  0.000  0.000  0.000  0.054
    6  0.000  0.003  0.001  0.006  0.000  0.000  0.000  0.000  0.000  0.011
    7  0.002  0.001  0.057  0.005  0.000  0.000  0.000  0.000  0.000  0.066
    8  0.002  0.003  0.045  0.003  0.000  0.000  0.000  0.000  0.000  0.054
    9  0.000  0.003  0.001  0.006  0.000  0.000  0.000  0.000  0.000  0.011
   10  0.002  0.001  0.057  0.005  0.000  0.000  0.000  0.000  0.000  0.066
tot    0.007  0.033  0.207  0.039  0.115  0.040  0.000  0.082  0.230  0.752

band    27 # energy   -4.37411387 # occ.  1.00000000

ion      s     py     pz     px    dxy    dyz    dz2    dxz  x2-y2    tot
    1  0.000  0.000  0.000  0.000  0.156  0.085  0.000  0.069  0.127  0.437
    2  0.000  0.000  0.000  0.000  0.156  0.085  0.000  0.069  0.127  0.437
    3  0.000  0.003  0.000  0.004  0.000  0.000  0.000  0.000  0.000  0.008
    4  0.000  0.003  0.000  0.004  0.000  0.000  0.000  0.000  0.000  0.008
    5  0.001  0.000  0.002  0.004  0.000  0.000  0.000  0.000  0.000  0.007
    6  0.000  0.000  0.000  0.001  0.000  0.000  0.000  0.000  0.000  0.001
    7  0.002  0.005  0.004  0.001  0.000  0.000  0.000  0.000  0.000  0.012
    8  0.001  0.000  0.002  0.004  0.000  0.000  0.000  0.000  0.000  0.007
    9  0.000  0.000  0.000  0.001  0.000  0.000  0.000  0.000  0.000  0.001
   10  0.002  0.005  0.004  0.001  0.000  0.000  0.000  0.000  0.000  0.012
tot    0.005  0.017  0.012  0.019  0.313  0.170  0.001  0.137  0.254  0.930

band    28 # energy   -4.37410745 # occ.  1.00000000

ion      s     py     pz     px    dxy    dyz    dz2    dxz  x2-y2    tot
    1  0.000  0.000  0.000  0.000  0.127  0.069  0.000  0.085  0.156  0.437
    2  0.000  0.000  0.000  0.000  0.127  0.069  0.000  0.085  0.156  0.437
    3  0.000  0.004  0.000  0.003  0.000  0.000  0.000  0.000  0.000  0.008
    4  0.000  0.004  0.000  0.003  0.000  0.000  0.000  0.000  0.000  0.008
    5  0.001  0.000  0.002  0.003  0.000  0.000  0.000  0.000  0.000  0.006
    6  0.002  0.005  0.004  0.001  0.000  0.000  0.000  0.000  0.000  0.012
    7  0.000  0.000  0.000  0.001  0.000  0.000  0.000  0.000  0.000  0.002
    8  0.001  0.000  0.002  0.003  0.000  0.000  0.000  0.000  0.000  0.006
    9  0.002  0.005  0.004  0.001  0.000  0.000  0.000  0.000  0.000  0.012
   10  0.000  0.000  0.000  0.001  0.000  0.000  0.000  0.000  0.000  0.002
tot    0.005  0.019  0.012  0.017  0.254  0.137  0.001  0.170  0.313  0.930

band    29 # energy   -3.68844492 # occ.  1.00000000

ion      s     py     pz     px    dxy    dyz    dz2    dxz  x2-y2    tot
    1  0.013  0.000  0.000  0.000  0.000  0.000  0.115  0.000  0.000  0.128
    2  0.013  0.000  0.000  0.000  0.000  0.000  0.115  0.000  0.000  0.128
    3  0.001  0.000  0.081  0.000  0.000  0.000  0.000  0.000  0.000  0.081
    4  0.001  0.000  0.081  0.000  0.000  0.000  0.000  0.000  0.000  0.081
    5  0.001  0.000  0.020  0.013  0.000  0.000  0.000  0.001  0.000  0.035
    6  0.001  0.010  0.020  0.003  0.000  0.001  0.000  0.000  0.000  0.035
    7  0.001  0.010  0.020  0.003  0.000  0.001  0.000  0.000  0.000  0.035
    8  0.001  0.000  0.020  0.013  0.000  0.000  0.000  0.001  0.000  0.035
    9  0.001  0.010  0.020  0.003  0.000  0.001  0.000  0.000  0.000  0.035
   10  0.001  0.010  0.020  0.003  0.000  0.001  0.000  0.000  0.000  0.035
tot    0.031  0.039  0.283  0.039  0.000  0.002  0.232  0.002  0.000  0.628

band    30 # energy   -3.25004846 # occ.  1.00000000

ion      s     py     pz     px    dxy    dyz    dz2    dxz  x2-y2    tot
    1  0.000  0.002  0.000  0.019  0.015  0.015  0.000  0.001  0.001  0.053
    2  0.000  0.002  0.000  0.019  0.015  0.015  0.000  0.001  0.001  0.053
    3  0.000  0.001  0.000  0.007  0.000  0.000  0.000  0.000  0.000  0.008
    4  0.000  0.001  0.000  0.007  0.000  0.000  0.000  0.000  0.000  0.008
    5  0.002  0.008  0.025  0.055  0.000  0.000  0.000  0.000  0.001  0.091
    6  0.000  0.010  0.002  0.083  0.000  0.000  0.000  0.000  0.000  0.096
    7  0.001  0.002  0.014  0.074  0.000  0.000  0.000  0.000  0.000  0.093
    8  0.002  0.008  0.025  0.055  0.000  0.000  0.000  0.000  0.001  0.091
    9  0.000  0.010  0.002  0.083  0.000  0.000  0.000  0.000  0.000  0.096
   10  0.001  0.002  0.014  0.074  0.000  0.000  0.000  0.000  0.000  0.093
tot    0.008  0.044  0.081  0.476  0.032  0.030  0.001  0.004  0.005  0.681

band    31 # energy   -3.25001878 # occ.  1.00000000

ion      s     py     pz     px    dxy    dyz    dz2    dxz  x2-y2    tot
    1  0.000  0.019  0.000  0.002  0.001  0.001  0.000  0.015  0.015  0.053
    2  0.000  0.019  0.000  0.002  0.001  0.001  0.000  0.015  0.015  0.053
    3  0.000  0.007  0.000  0.001  0.000  0.000  0.000  0.000  0.000  0.008
    4  0.000  0.007  0.000  0.001  0.000  0.000  0.000  0.000  0.000  0.008
    5  0.000  0.088  0.002  0.005  0.000  0.001  0.000  0.000  0.000  0.095
    6  0.003  0.058  0.025  0.003  0.001  0.000  0.000  0.000  0.000  0.091
    7  0.001  0.066  0.013  0.012  0.000  0.000  0.000  0.000  0.000  0.093
    8  0.000  0.088  0.002  0.005  0.000  0.001  0.000  0.000  0.000  0.095
    9  0.003  0.058  0.025  0.003  0.001  0.000  0.000  0.000  0.000  0.091