<?xml version="1.0" encoding="ISO-8859-1"?>
<modeling>
 <generator>
  <i name="program" type="string">vasp </i>
  <i name="version" type="string">5.4.4.18Apr17-6-g9f103f2a35  </i>
  <i name="subversion" type="string">(build May  1 2020 15:48:39) complex            parallel </i>
  <i name="platform" type="string">LinuxGNU </i>
  <i name="date" type="string">2020 06 17 </i>
  <i name="time" type="string">15:45:43 </i>
 </generator>
 <incar>
  <i type="int" name="ISTART">     1</i>
  <i type="string" name="PREC">accurate</i>
  <i type="string" name="ALGO"> Normal</i>
  <i type="int" name="ISPIN">     2</i>
  <i name="AMIN">      0.01000000</i>
  <i type="int" name="NELM">   400</i>
  <i type="int" name="IBRION">     2</i>
  <i name="EDIFF">      0.00010000</i>
  <i type="int" name="NSW">    99</i>
  <i type="int" name="ISIF">     3</i>
  <i name="ENCUT">    520.00000000</i>
  <v name="MAGMOM">      5.00000000      5.00000000      0.60000000      0.60000000      0.60000000      0.60000000      0.60000000      0.60000000      0.60000000      0.60000000</v>
  <i type="string" name="LREAL"> Auto</i>
  <i type="int" name="ISMEAR">    -5</i>
  <i name="SIGMA">      0.05000000</i>
  <i type="logical" name="LWAVE"> F  </i>
  <i type="int" name="LORBIT">    11</i>
  <v type="int" name="KPOINT_BSE">    -1     0     0     0</v>
  <i type="int" name="NELM">   400</i>
  <i type="string" name="GGA"> Bo</i>
  <i name="PARAM1">      0.18333333</i>
  <i name="PARAM2">      0.22000000</i>
  <i type="logical" name="LUSE_VDW"> T  </i>
  <i name="AGGAC">      0.00000000</i>
 </incar>
 <structure name="primitive_cell" >
  <crystal>
   <varray name="basis" >
    <v>       6.90777700      -0.00000000       0.00000000 </v>
    <v>       3.45388800       5.98231000       0.00000000 </v>
    <v>       0.00000000       0.00000000      23.44458800 </v>
   </varray>
   <i name="volume">    968.83501932 </i>
   <varray name="rec_basis" >
    <v>       0.14476437      -0.08357974       0.00000000 </v>
    <v>       0.00000000       0.16715951      -0.00000000 </v>
    <v>      -0.00000000       0.00000000       0.04265377 </v>
   </varray>
  </crystal>
  <varray name="positions" >
   <v>       0.33333300       0.33333300       0.49992500 </v>
   <v>       0.00042000       0.37322400      -0.42624800 </v>
   <v>      -0.37364300       0.00042000      -0.42624800 </v>
   <v>       0.37322400      -0.37364300      -0.42624800 </v>
   <v>       0.37364300      -0.00042000       0.42624800 </v>
   <v>      -0.37322400       0.37364300       0.42624800 </v>
   <v>      -0.00042000      -0.37322400       0.42624800 </v>
   <v>      -0.33333300      -0.33333300      -0.49992500 </v>
   <v>       0.00000000       0.00000000       0.44821600 </v>
   <v>       0.00000000       0.00000000      -0.44821600 </v>
  </varray>
 </structure>
 <varray name="primitive_index" >
  <v type="int" >        1 </v>
  <v type="int" >        6 </v>
  <v type="int" >        5 </v>
  <v type="int" >        7 </v>
  <v type="int" >        8 </v>
  <v type="int" >       10 </v>
  <v type="int" >        9 </v>
  <v type="int" >        2 </v>
  <v type="int" >        3 </v>
  <v type="int" >        4 </v>
 </varray>
 <kpoints>
  <generation param="Gamma">
   <v type="int" name="divisions">       5        5        1 </v>
   <v name="usershift">      0.00000000       0.00000000       0.00000000 </v>
   <v name="genvec1">      0.20000000       0.00000000       0.00000000 </v>
   <v name="genvec2">      0.00000000       0.20000000       0.00000000 </v>
   <v name="genvec3">      0.00000000       0.00000000       1.00000000 </v>
   <v name="shift">      0.00000000       0.00000000       0.00000000 </v>
  </generation>
  <varray name="kpointlist" >
   <v>       0.00000000       0.00000000       0.00000000 </v>
   <v>       0.20000000       0.00000000       0.00000000 </v>
   <v>       0.40000000       0.00000000       0.00000000 </v>
   <v>       0.40000000       0.20000000       0.00000000 </v>
   <v>      -0.40000000       0.20000000       0.00000000 </v>
  </varray>
  <varray name="weights" >
   <v>       0.04000000 </v>
   <v>       0.24000000 </v>
   <v>       0.24000000 </v>
   <v>       0.24000000 </v>
   <v>       0.24000000 </v>
  </varray>
  <varray name="tetrahedronlist"  type="int" >
   <v type="int" >        6        1        1        2        2 </v>
   <v type="int" >       12        1        2        2        2 </v>
   <v type="int" >       12        2        2        3        4 </v>
   <v type="int" >       12        2        2        2        4 </v>
   <v type="int" >       12        2        3        3        4 </v>
   <v type="int" >       12        2        3        4        4 </v>
   <v type="int" >        6        2        2        4        4 </v>
   <v type="int" >       12        3        3        3        5 </v>
   <v type="int" >       12        3        3        4        5 </v>
   <v type="int" >       12        3        4        4        5 </v>
   <v type="int" >        6        3        3        5        5 </v>
   <v type="int" >       12        3        4        5        5 </v>
   <v type="int" >        6        4        4        5        5 </v>
   <v type="int" >       12        4        5        5        5 </v>
   <v type="int" >        6        5        5        5        5 </v>
  </varray>
  <i name="volumeweight">      0.00666667 </i>
 </kpoints>
 <parameters>
  <separator name="general" >
   <i type="string" name="SYSTEM">unknown system</i>
   <i type="logical" name="LCOMPAT"> F  </i>
  </separator>
  <separator name="electronic" >
   <i type="string" name="PREC">accura</i>
   <i name="ENMAX">    520.00000000</i>
   <i name="ENAUG">    544.56500000</i>
   <i name="EDIFF">      0.00010000</i>
   <i type="int" name="IALGO">    38</i>
   <i type="int" name="IWAVPR">    11</i>
   <i type="int" name="NBANDS">    48</i>
   <i name="NELECT">     64.00000000</i>
   <i type="int" name="TURBO">     0</i>
   <i type="int" name="IRESTART">     0</i>
   <i type="int" name="NREBOOT">     0</i>
   <i type="int" name="NMIN">     0</i>
   <i name="EREF">      0.00000000</i>
   <separator name="electronic smearing" >
    <i type="int" name="ISMEAR">    -5</i>
    <i name="SIGMA">      0.05000000</i>
    <i name="KSPACING">      0.50000000</i>
    <i type="logical" name="KGAMMA"> T  </i>
   </separator>
   <separator name="electronic projectors" >
    <i type="logical" name="LREAL"> T  </i>
    <v name="ROPT">     -0.00025000     -0.00025000     -0.00025000</v>
    <i type="int" name="LMAXPAW">  -100</i>
    <i type="int" name="LMAXMIX">     2</i>
    <i type="logical" name="NLSPLINE"> F  </i>
   </separator>
   <separator name="electronic startup" >
    <i type="int" name="ISTART">     0</i>
    <i type="int" name="ICHARG">     2</i>
    <i type="int" name="INIWAV">     1</i>
   </separator>
   <separator name="electronic spin" >
    <i type="int" name="ISPIN">     2</i>
    <i type="logical" name="LNONCOLLINEAR"> F  </i>
    <v name="MAGMOM">      5.00000000      5.00000000      0.60000000      0.60000000      0.60000000      0.60000000      0.60000000      0.60000000      0.60000000      0.60000000</v>
    <i name="NUPDOWN">     -1.00000000</i>
    <i type="logical" name="LSORBIT"> F  </i>
    <v name="SAXIS">      0.00000000      0.00000000      1.00000000</v>
    <i type="logical" name="LSPIRAL"> F  </i>
    <v name="QSPIRAL">      0.00000000      0.00000000      0.00000000</v>
    <i type="logical" name="LZEROZ"> F  </i>
   </separator>
   <separator name="electronic exchange-correlation" >
    <i type="logical" name="LASPH"> F  </i>
    <i type="logical" name="LMETAGGA"> F  </i>
   </separator>
   <separator name="electronic convergence" >
    <i type="int" name="NELM">   400</i>
    <i type="int" name="NELMDL">     0</i>
    <i type="int" name="NELMIN">     2</i>
    <i name="ENINI">    520.00000000</i>
    <separator name="electronic convergence detail" >
     <i type="logical" name="LDIAG"> T  </i>
     <i type="logical" name="LSUBROT"> F  </i>
     <i name="WEIMIN">      0.00100000</i>
     <i name="EBREAK">      0.00000052</i>
     <i name="DEPER">      0.30000000</i>
     <i type="int" name="NRMM">     4</i>
     <i name="TIME">      0.40000000</i>
    </separator>
   </separator>
   <separator name="electronic mixer" >
    <i name="AMIX">      0.40000000</i>
    <i name="BMIX">      1.00000000</i>
    <i name="AMIN">      0.01000000</i>
    <i name="AMIX_MAG">      1.60000000</i>
    <i name="BMIX_MAG">      1.00000000</i>
    <separator name="electronic mixer details" >
     <i type="int" name="IMIX">     4</i>
     <i type="logical" name="MIXFIRST"> F  </i>
     <i type="int" name="MAXMIX">   -45</i>
     <i name="WC">    100.00000000</i>
     <i type="int" name="INIMIX">     1</i>
     <i type="int" name="MIXPRE">     1</i>
     <i type="int" name="MREMOVE">     5</i>
    </separator>
   </separator>
   <separator name="electronic dipolcorrection" >
    <i type="logical" name="LDIPOL"> F  </i>
    <i type="logical" name="LMONO"> F  </i>
    <i type="int" name="IDIPOL">     0</i>
    <i name="EPSILON">      1.00000000</i>
    <v name="DIPOL">   -100.00000000   -100.00000000   -100.00000000</v>
    <i name="EFIELD">      0.00000000</i>
   </separator>
  </separator>
  <separator name="grids" >
   <i type="int" name="NGX">    54</i>
   <i type="int" name="NGY">    54</i>
   <i type="int" name="NGZ">   180</i>
   <i type="int" name="NGXF">   108</i>
   <i type="int" name="NGYF">   108</i>
   <i type="int" name="NGZF">   360</i>
   <i type="logical" name="ADDGRID"> F  </i>
  </separator>
  <separator name="ionic" >
   <i type="int" name="NSW">    99</i>
   <i type="int" name="IBRION">     2</i>
   <i type="int" name="MDALGO">     0</i>
   <i type="int" name="ISIF">     3</i>
   <i name="PSTRESS">      0.00000000</i>
   <i name="EDIFFG">      0.00100000</i>
   <i type="int" name="NFREE">     1</i>
   <i name="POTIM">      0.50000000</i>
   <i name="SMASS">     -3.00000000</i>
   <i name="SCALEE">      1.00000000</i>
  </separator>
  <separator name="ionic md" >
   <i name="TEBEG">      0.00010000</i>
   <i name="TEEND">      0.00010000</i>
   <i type="int" name="NBLOCK">     1</i>
   <i type="int" name="KBLOCK">    99</i>
   <i type="int" name="NPACO">   256</i>
   <i name="APACO">     16.00000000</i>
  </separator>
  <separator name="symmetry" >
   <i type="int" name="ISYM">     2</i>
   <i name="SYMPREC">      0.00001000</i>
  </separator>
  <separator name="dos" >
   <i type="int" name="LORBIT">    11</i>
   <v name="RWIGS">     -1.00000000     -1.00000000     -1.00000000</v>
   <i type="int" name="NEDOS">   301</i>
   <i name="EMIN">     10.00000000</i>
   <i name="EMAX">    -10.00000000</i>
   <i name="EFERMI">      0.00000000</i>
  </separator>
  <separator name="writing" >
   <i type="int" name="NWRITE">     2</i>
   <i type="logical" name="LWAVE"> F  </i>
   <i type="logical" name="LDOWNSAMPLE"> F  </i>
   <i type="logical" name="LCHARG"> T  </i>
   <i type="logical" name="LPARD"> F  </i>
   <i type="logical" name="LVTOT"> F  </i>
   <i type="logical" name="LVHAR"> F  </i>
   <i type="logical" name="LELF"> F  </i>
   <i type="logical" name="LOPTICS"> F  </i>
   <v name="STM">      0.00000000      0.00000000      0.00000000      0.00000000      0.00000000      0.00000000      0.00000000</v>
  </separator>
  <separator name="performance" >
   <i type="int" name="NPAR">    16</i>
   <i type="int" name="NSIM">     4</i>
   <i type="int" name="NBLK">    -1</i>
   <i type="logical" name="LPLANE"> T  </i>
   <i type="logical" name="LSCALAPACK"> T  </i>
   <i type="logical" name="LSCAAWARE"> F  </i>
   <i type="logical" name="LSCALU"> F  </i>
   <i type="logical" name="LASYNC"> F  </i>
   <i type="logical" name="LORBITALREAL"> F  </i>
  </separator>
  <separator name="miscellaneous" >
   <i type="int" name="IDIOT">     3</i>
   <i type="int" name="ISPECIAL">     0</i>
   <i type="logical" name="LMUSIC"> F  </i>
   <v name="POMASS">     58.69000000     28.08500000     78.96000000</v>
   <v name="DARWINR">      0.00000000      0.00000000      0.00000000</v>
   <v name="DARWINV">      1.00000000      1.00000000      1.00000000</v>
   <i type="logical" name="LCORR"> T  </i>
  </separator>
  <i type="logical" name="GGA_COMPAT"> T  </i>
  <i type="logical" name="LBERRY"> F  </i>
  <i type="int" name="ICORELEVEL">     0</i>
  <i type="logical" name="LDAU"> F  </i>
  <i type="int" name="I_CONSTRAINED_M">     0</i>
  <separator name="electronic exchange-correlation" >
   <i type="string" name="GGA">BO</i>
   <i type="int" name="VOSKOWN">     0</i>
   <i type="logical" name="LHFCALC"> F  </i>
   <i type="string" name="PRECFOCK"></i>
   <i type="logical" name="LSYMGRAD"> F  </i>
   <i type="logical" name="LHFONE"> F  </i>
   <i type="logical" name="LRHFCALC"> F  </i>
   <i type="logical" name="LTHOMAS"> F  </i>
   <i type="logical" name="LMODELHF"> F  </i>
   <i name="ENCUT4O">     -1.00000000</i>
   <i type="int" name="EXXOEP">     0</i>
   <i type="int" name="FOURORBIT">     0</i>
   <i name="AEXX">      0.00000000</i>
   <i name="HFALPHA">      0.00000000</i>
   <i name="MCALPHA">      0.00000000</i>
   <i name="ALDAX">      1.00000000</i>
   <i name="AGGAX">      1.00000000</i>
   <i name="ALDAC">      1.00000000</i>
   <i name="AGGAC">      0.00000000</i>
   <i type="int" name="NKREDX">     1</i>
   <i type="int" name="NKREDY">     1</i>
   <i type="int" name="NKREDZ">     1</i>
   <i type="logical" name="SHIFTRED"> F  </i>
   <i type="logical" name="ODDONLY"> F  </i>
   <i type="logical" name="EVENONLY"> F  </i>
   <i type="int" name="LMAXFOCK">     0</i>
   <i type="int" name="NMAXFOCKAE">     0</i>
   <i type="logical" name="LFOCKAEDFT"> F  </i>
   <i name="HFSCREEN">      0.00000000</i>
   <i name="HFSCREENC">      0.00000000</i>
   <i type="int" name="NBANDSGWLOW">     0</i>
  </separator>
  <separator name="vdW DFT" >
   <i type="logical" name="LUSE_VDW"> T  </i>
   <i name="Zab_VDW">     -0.84910000</i>
   <i name="PARAM1">      0.18333333</i>
   <i name="PARAM2">      0.22000000</i>
   <i name="PARAM3">      0.00000000</i>
  </separator>
  <separator name="model GW" >
   <i type="int" name="MODEL_GW">     0</i>
   <i name="MODEL_EPS0">     58.13010116</i>
   <i name="MODEL_ALPHA">      1.00000000</i>
  </separator>
  <separator name="linear response parameters" >
   <i type="logical" name="LEPSILON"> F  </i>
   <i type="logical" name="LRPA"> F  </i>
   <i type="logical" name="LNABLA"> F  </i>
   <i type="logical" name="LVEL"> F  </i>
   <i type="int" name="KINTER">     0</i>
   <i name="CSHIFT">      0.10000000</i>
   <i name="OMEGAMAX">     -1.00000000</i>
   <i name="DEG_THRESHOLD">      0.00200000</i>
   <i name="RTIME">     -0.10000000</i>
   <i name="WPLASMAI">      0.00000000</i>
   <v name="DFIELD">      0.00000000      0.00000000      0.00000000</v>
   <v name="WPLASMA">      0.00000000      0.00000000      0.00000000      0.00000000      0.00000000      0.00000000      0.00000000      0.00000000      0.00000000</v>
  </separator>
  <separator name="orbital magnetization" >
   <i type="logical" name="NUCIND"> F  </i>
   <v name="MAGPOS">      0.00000000      0.00000000      0.00000000</v>
   <i type="logical" name="LNICSALL"> T  </i>
   <i type="logical" name="ORBITALMAG"> F  </i>
   <i type="logical" name="LMAGBLOCH"> F  </i>
   <i type="logical" name="LCHIMAG"> F  </i>
   <i type="logical" name="LGAUGE"> T  </i>
   <i type="int" name="MAGATOM">     0</i>
   <v name="MAGDIPOL">      0.00000000      0.00000000      0.00000000</v>
   <v name="AVECCONST">      0.00000000      0.00000000      0.00000000</v>
  </separator>
  <separator name="response functions" >
   <i type="logical" name="LADDER"> F  </i>
   <i type="logical" name="LRPAFORCE"> F  </i>
   <i type="logical" name="LFXC"> F  </i>
   <i type="logical" name="LHARTREE"> T  </i>
   <i type="int" name="IBSE">     0</i>
   <v type="int" name="KPOINT">    -1     0     0     0</v>
   <i type="logical" name="LTCTE"> F  </i>
   <i type="logical" name="LTETE"> F  </i>
   <i type="logical" name="LTRIPLET"> F  </i>
   <i type="logical" name="LFXCEPS"> F  </i>
   <i type="logical" name="LFXHEG"> F  </i>
   <i type="int" name="NATURALO">     2</i>
   <i type="logical" name="L2ORDER"> F  </i>
   <i type="logical" name="LMP2LT"> F  </i>
   <i type="logical" name="LUSEW"> F  </i>
   <i name="ENCUTGW">     -2.00000000</i>
   <i name="ENCUTGWSOFT">     -2.00000000</i>
   <i name="ENCUTLF">     -1.00000000</i>
   <i type="int" name="LMAXMP2">    -1</i>
   <i name="SCISSOR">      0.00000000</i>
   <i type="int" name="NOMEGA">     0</i>
   <i type="int" name="NOMEGAR">     0</i>
   <i type="int" name="NBANDSGW">    -1</i>
   <i type="int" name="NBANDSO">    -1</i>
   <i type="int" name="NBANDSV">    -1</i>
   <i type="int" name="NELM">   400</i>
   <i type="int" name="NELMHF">     1</i>
   <i type="int" name="DIM">     3</i>
   <i type="int" name="ANTIRES">     0</i>
   <i name="OMEGAMAX">    -30.00000000</i>
   <i name="OMEGAMIN">    -30.00000000</i>
   <i name="OMEGATL">   -200.00000000</i>
   <i type="int" name="OMEGAGRID">   140</i>
   <i name="CSHIFT">     -0.10000000</i>
   <i type="logical" name="SELFENERGY"> F  </i>
   <i type="logical" name="LSPECTRAL"> F  </i>
   <i type="logical" name="LSPECTRALGW"> F  </i>
   <i type="logical" name="LSINGLES"> F  </i>
   <i type="logical" name="LFERMIGW"> F  </i>
   <i type="logical" name="ODDONLYGW"> F  </i>
   <i type="logical" name="EVENONLYGW"> F  </i>
   <i type="int" name="NKREDLFX">     1</i>
   <i type="int" name="NKREDLFY">     1</i>
   <i type="int" name="NKREDLFZ">     1</i>
   <i type="int" name="MAXMEM">  2800</i>
   <i type="int" name="TELESCOPE">     0</i>
   <i type="int" name="TAUPAR">     1</i>
   <i type="int" name="OMEGAPAR">    -1</i>
   <i name="LAMBDA">      1.00000000</i>
  </separator>
  <separator name="External order field" >
   <i name="OFIELD_KAPPA">      0.00000000</i>
   <v name="OFIELD_K">      0.00000000      0.00000000      0.00000000</v>
   <i name="OFIELD_Q6_NEAR">      0.00000000</i>
   <i name="OFIELD_Q6_FAR">      0.00000000</i>
   <i name="OFIELD_A">      0.00000000</i>
  </separator>
 </parameters>
 <atominfo>
  <atoms>      10 </atoms>
  <types>       3 </types>
  <array name="atoms" >
   <dimension dim="1">ion</dimension>
   <field type="string">element</field>
   <field type="int">atomtype</field>
   <set>
    <rc><c>Ni</c><c>   1</c></rc>
    <rc><c>Ni</c><c>   1</c></rc>
    <rc><c>Si</c><c>   2</c></rc>
    <rc><c>Si</c><c>   2</c></rc>
    <rc><c>Se</c><c>   3</c></rc>
    <rc><c>Se</c><c>   3</c></rc>
    <rc><c>Se</c><c>   3</c></rc>
    <rc><c>Se</c><c>   3</c></rc>
    <rc><c>Se</c><c>   3</c></rc>
    <rc><c>Se</c><c>   3</c></rc>
   </set>
  </array>
  <array name="atomtypes" >
   <dimension dim="1">type</dimension>
   <field type="int">atomspertype</field>
   <field type="string">element</field>
   <field>mass</field>
   <field>valence</field>
   <field type="string">pseudopotential</field>
   <set>
    <rc><c>   2</c><c>Ni</c><c>     58.69000000</c><c>     10.00000000</c><c> PAW_PBE Ni 06Sep2000                   </c></rc>
    <rc><c>   2</c><c>Si</c><c>     28.08500000</c><c>      4.00000000</c><c> PAW_PBE Si 05Jan2001                   </c></rc>
    <rc><c>   6</c><c>Se</c><c>     78.96000000</c><c>      6.00000000</c><c> PAW_PBE Se 06Sep2000                   </c></rc>
   </set>
  </array>
 </atominfo>
 <structure name="initialpos" >
  <crystal>
   <varray name="basis" >
    <v>       6.90777700      -0.00000000       0.00000000 </v>
    <v>       3.45388800       5.98231000       0.00000000 </v>
    <v>       0.00000000       0.00000000      23.44458800 </v>
   </varray>
   <i name="volume">    968.83501932 </i>
   <varray name="rec_basis" >
    <v>       0.14476437      -0.08357974       0.00000000 </v>
    <v>       0.00000000       0.16715951      -0.00000000 </v>
    <v>      -0.00000000       0.00000000       0.04265377 </v>
   </varray>
  </crystal>
  <varray name="positions" >
   <v>       0.33333300       0.33333300       0.49992500 </v>
   <v>       0.66666700       0.66666700       0.50007500 </v>
   <v>       0.00000000       0.00000000       0.44821600 </v>
   <v>       0.00000000       0.00000000       0.55178400 </v>
   <v>       0.62635700       0.00042000       0.57375200 </v>
   <v>       0.00042000       0.37322400       0.57375200 </v>
   <v>       0.37322400       0.62635700       0.57375200 </v>
   <v>       0.37364300       0.99958000       0.42624800 </v>
   <v>       0.99958000       0.62677600       0.42624800 </v>
   <v>       0.62677600       0.37364300       0.42624800 </v>
  </varray>
  <varray name="selective"  type="logical" >
   <v type="logical" >  T  T  T </v>
   <v type="logical" >  T  T  T </v>
   <v type="logical" >  T  T  T </v>
   <v type="logical" >  T  T  T </v>
   <v type="logical" >  T  T  T </v>
   <v type="logical" >  T  T  T </v>
   <v type="logical" >  T  T  T </v>
   <v type="logical" >  T  T  T </v>
   <v type="logical" >  T  T  T </v>
   <v type="logical" >  T  T  T </v>
  </varray>
  <nose>
   <v>      -3.00000000       0.00000000       0.00010000       0.00010000 </v>
  </nose>
 </structure>
 <calculation>
  <scstep>
   <time name="dav">   22.46   22.69</time>
   <time name="total">   74.72   75.64</time>
   <energy>
    <i name="alphaZ">     37.45488097 </i>
    <i name="ewald">   8065.03639907 </i>
    <i name="hartreedc"> -11594.84238862 </i>
    <i name="XCdc">     35.37302597 </i>
    <i name="pawpsdc">   2437.14492367 </i>
    <i name="pawaedc">  -2445.27135101 </i>
    <i name="eentropy">      0.00000000 </i>
    <i name="bandstr">    -44.83118116 </i>
    <i name="atom">   3920.96469382 </i>
    <i name="e_fr_energy">    411.02900273 </i>
    <i name="e_wo_entrp">    411.02900273 </i>
    <i name="e_0_energy">    411.02900273 </i>
   </energy>
  </scstep>
  <scstep>
   <time name="dav">   30.93   31.08</time>
   <time name="total">   30.94   31.09</time>
   <energy>
    <i name="e_fr_energy">     27.30496290 </i>
    <i name="e_wo_entrp">     27.30496290 </i>
    <i name="e_0_energy">     27.30496290 </i>
   </energy>
  </scstep>
  <scstep>
   <time name="dav">   29.08   29.16</time>
   <time name="total">   29.08   29.17</time>
   <energy>
    <i name="e_fr_energy">    -40.32455319 </i>
    <i name="e_wo_entrp">    -40.32455319 </i>
    <i name="e_0_energy">    -40.32455319 </i>
   </energy>
  </scstep>
  <scstep>
   <time name="dav">   27.64   27.78</time>
   <time name="total">   27.64   27.78</time>
   <energy>
    <i name="e_fr_energy">    -42.85905513 </i>
    <i name="e_wo_entrp">    -42.85905513 </i>
    <i name="e_0_energy">    -42.85905513 </i>
   </energy>
  </scstep>
  <scstep>
   <time name="dav">   29.31   29.36</time>
   <time name="total">   31.45   31.50</time>
   <energy>
    <i name="e_fr_energy">    -42.92042966 </i>
    <i name="e_wo_entrp">    -42.92042966 </i>
    <i name="e_0_energy">    -42.92042966 </i>
   </energy>
  </scstep>
  <scstep>
   <time name="dav">   27.78   28.50</time>
   <time name="total">   82.10   82.85</time>
   <energy>
    <i name="e_fr_energy">   -118.71855635 </i>
    <i name="e_wo_entrp">   -118.71855635 </i>
    <i name="e_0_energy">   -118.71855635 </i>
   </energy>
  </scstep>
  <scstep>
   <time name="dav">   24.38   24.44</time>
   <time name="total">   78.23   79.05</time>
   <energy>
    <i name="e_fr_energy">    -64.44518536 </i>
    <i name="e_wo_entrp">    -64.44518536 </i>
    <i name="e_0_energy">    -64.44518536 </i>
   </energy>
  </scstep>
  <scstep>
   <time name="dav">   27.72   27.84</time>
   <time name="total">   82.00   82.29</time>
   <energy>
    <i name="e_fr_energy">    -32.22560963 </i>
    <i name="e_wo_entrp">    -32.22560963 </i>
    <i name="e_0_energy">    -32.22560963 </i>
   </energy>
  </scstep>
  <scstep>
   <time name="dav">   30.95   31.15</time>
   <time name="total">   84.40   84.62</time>
   <energy>
    <i name="e_fr_energy">    -32.31302914 </i>
    <i name="e_wo_entrp">    -32.31302914 </i>
    <i name="e_0_energy">    -32.31302914 </i>
   </energy>
  </scstep>
  <scstep>
   <time name="dav">   29.73   30.37</time>
   <time name="total">   83.18   84.21</time>
   <energy>
    <i name="e_fr_energy">    -36.51136316 </i>
    <i name="e_wo_entrp">    -36.51136316 </i>
    <i name="e_0_energy">    -36.51136316 </i>
   </energy>
  </scstep>
  <scstep>
   <time name="dav">   25.35   25.53</time>
   <time name="total">   78.63   79.14</time>
   <energy>
    <i name="e_fr_energy">    -32.65276278 </i>
    <i name="e_wo_entrp">    -32.65276278 </i>
    <i name="e_0_energy">    -32.65276278 </i>
   </energy>
  </scstep>
  <scstep>
   <time name="dav">   31.18   31.23</time>
   <time name="total">   84.49   84.58</time>
   <energy>
    <i name="e_fr_energy">    -33.51499455 </i>
    <i name="e_wo_entrp">    -33.51499455 </i>
    <i name="e_0_energy">    -33.51499455 </i>
   </energy>
  </scstep>
  <scstep>
   <time name="dav">   29.53   29.59</time>
   <time name="total">   82.50   82.66</time>
   <energy>
    <i name="e_fr_energy">    -34.40930962 </i>
    <i name="e_wo_entrp">    -34.40930962 </i>
    <i name="e_0_energy">    -34.40930962 </i>
   </energy>
  </scstep>
  <scstep>
   <time name="dav">   28.96   29.22</time>
   <time name="total">   82.60   83.10</time>
   <energy>
    <i name="e_fr_energy">    -33.83355528 </i>
    <i name="e_wo_entrp">    -33.83355528 </i>
    <i name="e_0_energy">    -33.83355528 </i>
   </energy>
  </scstep>
  <scstep>
   <time name="dav">   28.10   28.22</time>
   <time name="total">   81.54   81.69</time>
   <energy>
    <i name="e_fr_energy">    -34.41587723 </i>
    <i name="e_wo_entrp">    -34.41587723 </i>
    <i name="e_0_energy">    -34.41587723 </i>
   </energy>
  </scstep>
  <scstep>
   <time name="dav">   30.04   30.18</time>
   <time name="total">   82.82   83.24</time>
   <energy>
    <i name="e_fr_energy">    -34.69902812 </i>
    <i name="e_wo_entrp">    -34.69902812 </i>
    <i name="e_0_energy">    -34.69902812 </i>
   </energy>
  </scstep>
  <scstep>
   <time name="dav">   24.68   24.73</time>
   <time name="total">   77.73   77.97</time>
   <energy>
    <i name="e_fr_energy">    -34.83576679 </i>
    <i name="e_wo_entrp">    -34.83576679 </i>
    <i name="e_0_energy">    -34.83576679 </i>
   </energy>
  </scstep>
  <scstep>
   <time name="dav">   26.38   26.50</time>
   <time name="total">   79.79   79.98</time>
   <energy>
    <i name="e_fr_energy">    -34.87597705 </i>
    <i name="e_wo_entrp">    -34.87597705 </i>
    <i name="e_0_energy">    -34.87597705 </i>
   </energy>
  </scstep>
  <scstep>
   <time name="dav">   24.30   24.48</time>
   <time name="total">   77.42   77.82</time>
   <energy>
    <i name="e_fr_energy">    -34.87595082 </i>
    <i name="e_wo_entrp">    -34.87595082 </i>
    <i name="e_0_energy">    -34.87595082 </i>
   </energy>
  </scstep>
  <scstep>
   <time name="dav">   28.07   28.24</time>
   <time name="total">   81.65   82.50</time>
   <energy>
    <i name="e_fr_energy">    -34.88029772 </i>
    <i name="e_wo_entrp">    -34.88029772 </i>
    <i name="e_0_energy">    -34.88029772 </i>
   </energy>
  </scstep>
  <scstep>
   <time name="dav">   25.58   25.63</time>
   <time name="total">   78.61   78.86</time>
   <energy>
    <i name="e_fr_energy">    -34.88654804 </i>
    <i name="e_wo_entrp">    -34.88654804 </i>
    <i name="e_0_energy">    -34.88654804 </i>
   </energy>
  </scstep>
  <scstep>
   <time name="dav">   24.86   24.92</time>
   <time name="total">   77.98   78.13</time>
   <energy>
    <i name="e_fr_energy">    -34.89223656 </i>
    <i name="e_wo_entrp">    -34.89223656 </i>
    <i name="e_0_energy">    -34.89223656 </i>
   </energy>
  </scstep>
  <scstep>
   <time name="dav">   26.36   26.62</time>
   <time name="total">   79.69   80.16</time>
   <energy>
    <i name="e_fr_energy">    -34.89809698 </i>
    <i name="e_wo_entrp">    -34.89809698 </i>
    <i name="e_0_energy">    -34.89809698 </i>
   </energy>
  </scstep>
  <scstep>
   <time name="dav">   24.69   24.81</time>
   <time name="total">   77.99   78.20</time>
   <energy>
    <i name="e_fr_energy">    -34.90457359 </i>
    <i name="e_wo_entrp">    -34.90457359 </i>
    <i name="e_0_energy">    -34.90457359 </i>
   </energy>
  </scstep>
  <scstep>
   <time name="dav">   22.69   23.05</time>
   <time name="total">   75.91   76.49</time>
   <energy>
    <i name="e_fr_energy">    -34.91128416 </i>
    <i name="e_wo_entrp">    -34.91128416 </i>
    <i name="e_0_energy">    -34.91128416 </i>
   </energy>
  </scstep>
  <scstep>
   <time name="dav">   22.57   22.75</time>
   <time name="total">   74.97   76.70</time>
   <energy>
    <i name="e_fr_energy">    -34.91500229 </i>
    <i name="e_wo_entrp">    -34.91500229 </i>
    <i name="e_0_energy">    -34.91500229 </i>
   </energy>
  </scstep>
  <scstep>
   <time name="dav">   22.24   22.64</time>
   <time name="total">   75.22   75.97</time>
   <energy>
    <i name="e_fr_energy">    -34.91558494 </i>
    <i name="e_wo_entrp">    -34.91558494 </i>
    <i name="e_0_energy">    -34.91558494 </i>
   </energy>
  </scstep>
  <scstep>
   <time name="dav">   21.48   21.93</time>
   <time name="total">   72.28   73.01</time>
   <energy>
    <i name="alphaZ">     37.45488097 </i>
    <i name="ewald">   8065.03639907 </i>
    <i name="hartreedc"> -11578.46866518 </i>
    <i name="XCdc">     29.26231363 </i>
    <i name="pawpsdc">   2438.20228222 </i>
    <i name="pawaedc">  -2447.49638171 </i>
    <i name="eentropy">      0.00000000 </i>
    <i name="bandstr">   -499.87114205 </i>
    <i name="atom">   3920.96469382 </i>
    <i name="e_fr_energy">    -34.91561923 </i>
    <i name="e_wo_entrp">    -34.91561923 </i>
    <i name="e_0_energy">    -34.91561923 </i>
   </energy>
  </scstep>
  <structure>
   <crystal>
    <varray name="basis" >
     <v>       6.90777700      -0.00000000       0.00000000 </v>
     <v>       3.45388800       5.98231000       0.00000000 </v>
     <v>       0.00000000       0.00000000      23.44458800 </v>
    </varray>
    <i name="volume">    968.83501932 </i>
    <varray name="rec_basis" >
     <v>       0.14476437      -0.08357974       0.00000000 </v>
     <v>       0.00000000       0.16715951      -0.00000000 </v>
     <v>      -0.00000000       0.00000000       0.04265377 </v>
    </varray>
   </crystal>
   <varray name="positions" >
    <v>       0.33333300       0.33333300       0.49992500 </v>
    <v>       0.66666700       0.66666700       0.50007500 </v>
    <v>       0.00000000       0.00000000       0.44821600 </v>
    <v>       0.00000000       0.00000000       0.55178400 </v>
    <v>       0.62635700       0.00042000       0.57375200 </v>
    <v>       0.00042000       0.37322400       0.57375200 </v>
    <v>       0.37322400       0.62635700       0.57375200 </v>
    <v>       0.37364300       0.99958000       0.42624800 </v>
    <v>       0.99958000       0.62677600       0.42624800 </v>
    <v>       0.62677600       0.37364300       0.42624800 </v>
   </varray>
  </structure>
  <varray name="forces" >
   <v>      -0.00000000       0.00000000       0.00759337 </v>
   <v>       0.00000000       0.00000000      -0.00759337 </v>
   <v>      -0.00000000      -0.00000000       0.14070724 </v>
   <v>      -0.00000000       0.00000000      -0.14070724 </v>
   <v>       0.96762620      -0.00544920      -1.30698368 </v>
   <v>      -0.48853217      -0.83526422      -1.30698368 </v>
   <v>      -0.47909403       0.84071342      -1.30698368 </v>
   <v>      -0.96762620       0.00544920       1.30698368 </v>
   <v>       0.48853217       0.83526422       1.30698368 </v>
   <v>       0.47909403      -0.84071342       1.30698368 </v>
  </varray>
  <varray name="stress" >
   <v>     -40.70889376       0.00000362       0.00000000 </v>
   <v>       0.00000318     -40.70888878       0.00000000 </v>
   <v>       0.00000000       0.00000000     -22.71095366 </v>
  </varray>
  <energy>
   <i name="e_fr_energy">    -34.91561923 </i>
   <i name="e_wo_entrp">    -34.91561923 </i>
   <i name="e_0_energy">      0.00000000 </i>
  </energy>
  <time name="totalsc"> 2173.80 2187.02</time>
 </calculation>
 <calculation>
  <scstep>
   <time name="dav">   30.63   30.71</time>
   <time name="total">   84.90   85.03</time>
   <energy>
    <i name="alphaZ">     51.65210120 </i>
    <i name="ewald">  10149.84605026 </i>
    <i name="hartreedc"> -14011.48608350 </i>
    <i name="XCdc">     47.77837199 </i>
    <i name="pawpsdc">   2438.29411082 </i>
    <i name="pawaedc">  -2447.58838811 </i>
    <i name="eentropy">      0.00000000 </i>
    <i name="bandstr">   -276.92165934 </i>
    <i name="atom">   3920.96469382 </i>
    <i name="e_fr_energy">   -127.46080286 </i>
    <i name="e_wo_entrp">   -127.46080286 </i>
    <i name="e_0_energy">   -127.46080286 </i>
   </energy>
  </scstep>
  <scstep>
   <time name="dav">   34.60   34.80</time>
   <time name="total">   88.75   89.02</time>
   <energy>
    <i name="e_fr_energy">   -347.98448185 </i>
    <i name="e_wo_entrp">   -347.98448185 </i>
    <i name="e_0_energy">   -347.98448185 </i>
   </energy>
  </scstep>
  <scstep>
   <time name="dav">   28.49   28.60</time>
   <time name="total">   82.61   83.09</time>
   <energy>
    <i name="e_fr_energy">    -80.66285342 </i>
    <i name="e_wo_entrp">    -80.66285342 </i>
    <i name="e_0_energy">    -80.66285342 </i>
   </energy>
  </scstep>
  <scstep>
   <time name="dav">   31.98   32.25</time>
   <time name="total">   86.66   87.14</time>
   <energy>
    <i name="e_fr_energy">    -43.31608572 </i>
    <i name="e_wo_entrp">    -43.31608572 </i>
    <i name="e_0_energy">    -43.31608572 </i>
   </energy>
  </scstep>
  <scstep>
   <time name="dav">   30.39   30.89</time>
   <time name="total">   84.12   84.90</time>
   <energy>
    <i name="e_fr_energy">    -40.54466227 </i>
    <i name="e_wo_entrp">    -40.54466227 </i>
    <i name="e_0_energy">    -40.54466227 </i>
   </energy>
  </scstep>
  <scstep>
   <time name="dav">   27.59   27.71</time>
   <time name="total">   81.20   81.72</time>
   <energy>
    <i name="e_fr_energy">    -39.39295729 </i>
    <i name="e_wo_entrp">    -39.39295729 </i>
    <i name="e_0_energy">    -39.39295729 </i>
   </energy>
  </scstep>
  <scstep>
   <time name="dav">   31.94   32.30</time>
   <time name="total">   85.76   86.65</time>
   <energy>
    <i name="e_fr_energy">    -39.10109017 </i>
    <i name="e_wo_entrp">    -39.10109017 </i>
    <i name="e_0_energy">    -39.10109017 </i>
   </energy>
  </scstep>
  <scstep>
   <time name="dav">   29.00   29.13</time>
   <time name="total">   82.89   83.20</time>
   <energy>
    <i name="e_fr_energy">    -39.06698658 </i>
    <i name="e_wo_entrp">    -39.06698658 </i>
    <i name="e_0_energy">    -39.06698658 </i>
   </energy>
  </scstep>
  <scstep>
   <time name="dav">   34.10   34.40</time>
   <time name="total">   88.02   88.62</time>
   <energy>
    <i name="e_fr_energy">    -39.06906094 </i>
    <i name="e_wo_entrp">    -39.06906094 </i>
    <i name="e_0_energy">    -39.06906094 </i>
   </energy>
  </scstep>
  <scstep>
   <time name="dav">   27.07   27.19</time>
   <time name="total">   80.99   81.29</time>
   <energy>
    <i name="e_fr_energy">    -39.06808064 </i>
    <i name="e_wo_entrp">    -39.06808064 </i>
    <i name="e_0_energy">    -39.06808064 </i>
   </energy>
  </scstep>
  <scstep>
   <time name="dav">   32.83   32.95</time>
   <time name="total">   86.87   87.17</time>
   <energy>
    <i name="e_fr_energy">    -39.06707446 </i>
    <i name="e_wo_entrp">    -39.06707446 </i>
    <i name="e_0_energy">    -39.06707446 </i>
   </energy>
  </scstep>
  <scstep>
   <time name="dav">   27.23   27.26</time>
   <time name="total">   80.93   81.44</time>
   <energy>
    <i name="e_fr_energy">    -39.06651140 </i>
    <i name="e_wo_entrp">    -39.06651140 </i>
    <i name="e_0_energy">    -39.06651140 </i>
   </energy>
  </scstep>
  <scstep>
   <time name="dav">   25.13   25.23</time>
   <time name="total">   79.22   79.43</time>
   <energy>
    <i name="e_fr_energy">    -39.06564984 </i>
    <i name="e_wo_entrp">    -39.06564984 </i>
    <i name="e_0_energy">    -39.06564984 </i>
   </energy>
  </scstep>
  <scstep>
   <time name="dav">   26.37   26.55</time>
   <time name="total">   80.39   80.65</time>
   <energy>
    <i name="e_fr_energy">    -39.06654813 </i>
    <i name="e_wo_entrp">    -39.06654813 </i>
    <i name="e_0_energy">    -39.06654813 </i>
   </energy>
  </scstep>
  <scstep>
   <time name="dav">   24.66   24.82</time>
   <time name="total">   78.36   78.82</time>
   <energy>
    <i name="e_fr_energy">    -39.06743758 </i>
    <i name="e_wo_entrp">    -39.06743758 </i>
    <i name="e_0_energy">    -39.06743758 </i>
   </energy>
  </scstep>
  <scstep>
   <time name="dav">   34.74   34.85</time>
   <time name="total">   88.73   88.95</time>
   <energy>
    <i name="e_fr_energy">    -39.06855685 </i>
    <i name="e_wo_entrp">    -39.06855685 </i>
    <i name="e_0_energy">    -39.06855685 </i>
   </energy>
  </scstep>
  <scstep>
   <time name="dav">   29.91   30.32</time>
   <time name="total">   83.90   84.49</time>
   <energy>
    <i name="e_fr_energy">    -39.06357096 </i>
    <i name="e_wo_entrp">    -39.06357096 </i>
    <i name="e_0_energy">    -39.06357096 </i>
   </energy>
  </scstep>
  <scstep>
   <time name="dav">   28.47   28.52</time>
   <time name="total">   82.48   82.57</time>
   <energy>
    <i name="e_fr_energy">    -39.05736347 </i>
    <i name="e_wo_entrp">    -39.05736347 </i>
    <i name="e_0_energy">    -39.05736347 </i>
   </energy>
  </scstep>
  <scstep>
   <time name="dav">   24.70   24.86</time>
   <time name="total">   78.48   78.91</time>
   <energy>
    <i name="e_fr_energy">    -39.05389156 </i>
    <i name="e_wo_entrp">    -39.05389156 </i>
    <i name="e_0_energy">    -39.05389156 </i>
   </energy>
  </scstep>
  <scstep>
   <time name="dav">   26.76   26.98</time>
   <time name="total">   80.46   81.10</time>
   <energy>
    <i name="e_fr_energy">    -39.05128073 </i>
    <i name="e_wo_entrp">    -39.05128073 </i>
    <i name="e_0_energy">    -39.05128073 </i>
   </energy>
  </scstep>
  <scstep>
   <time name="dav">   22.74   22.96</time>
   <time name="total">   76.58   77.21</time>
   <energy>
    <i name="e_fr_energy">    -39.05147080 </i>
    <i name="e_wo_entrp">    -39.05147080 </i>
    <i name="e_0_energy">    -39.05147080 </i>
   </energy>
  </scstep>
  <scstep>
   <time name="dav">   21.84   22.04</time>
   <time name="total">   75.79   76.16</time>
   <energy>
    <i name="e_fr_energy">    -39.05196936 </i>
    <i name="e_wo_entrp">    -39.05196936 </i>
    <i name="e_0_energy">    -39.05196936 </i>
   </energy>
  </scstep>
  <scstep>
   <time name="dav">   24.47   24.67</time>
   <time name="total">   78.49   78.86</time>
   <energy>
    <i name="e_fr_energy">    -39.05216391 </i>
    <i name="e_wo_entrp">    -39.05216391 </i>
    <i name="e_0_energy">    -39.05216391 </i>
   </energy>
  </scstep>
  <scstep>
   <time name="dav">   22.26   22.43</time>
   <time name="total">   76.30   76.71</time>
   <energy>
    <i name="e_fr_energy">    -39.05130858 </i>
    <i name="e_wo_entrp">    -39.05130858 </i>
    <i name="e_0_energy">    -39.05130858 </i>
   </energy>
  </scstep>
  <scstep>
   <time name="dav">   21.65   21.67</time>
   <time name="total">   73.88   74.03</time>
   <energy>
    <i name="alphaZ">     51.65210120 </i>
    <i name="ewald">  10149.84605026 </i>
    <i name="hartreedc"> -13699.67327968 </i>
    <i name="XCdc">     36.13294306 </i>
    <i name="pawpsdc">   2591.94735136 </i>
    <i name="pawaedc">  -2604.41066784 </i>
    <i name="eentropy">      0.00000000 </i>
    <i name="bandstr">   -485.51055685 </i>
    <i name="atom">   3920.96469382 </i>
    <i name="e_fr_energy">    -39.05136468 </i>
    <i name="e_wo_entrp">    -39.05136468 </i>
    <i name="e_0_energy">    -39.05136468 </i>
   </energy>
  </scstep>
  <structure>
   <crystal>
    <varray name="basis" >
     <v>       6.08742914       0.00000007       0.00000000 </v>
     <v>       3.04371419       5.27186808       0.00000000 </v>
     <v>       0.00000000       0.00000000      21.89131278 </v>
    </varray>
    <i name="volume">    702.53870591 </i>
    <varray name="rec_basis" >
     <v>       0.16427296      -0.09484303      -0.00000000 </v>
     <v>      -0.00000000       0.18968608       0.00000000 </v>
     <v>      -0.00000000      -0.00000000       0.04568022 </v>
    </varray>
   </crystal>
   <varray name="positions" >
    <v>       0.33333300       0.33333300       0.49994063 </v>
    <v>       0.66666700       0.66666700       0.50005937 </v>
    <v>      -0.00000000      -0.00000000       0.44850554 </v>
    <v>      -0.00000000       0.00000000       0.55149446 </v>
    <v>       0.63313670       0.00037606       0.57106258 </v>
    <v>       0.00037606       0.36648825       0.57106258 </v>
    <v>       0.36648825       0.63313670       0.57106258 </v>
    <v>       0.36686330       0.99962394       0.42893742 </v>
    <v>       0.99962394       0.63351175       0.42893742 </v>
    <v>       0.63351175       0.36686330       0.42893742 </v>
   </varray>
  </structure>
  <varray name="forces" >
   <v>      -0.00000000      -0.00000000      -0.00265014 </v>
   <v>      -0.00000000       0.00000000       0.00265014 </v>
   <v>      -0.00000000      -0.00000000      -0.11467728 </v>
   <v>      -0.00000000       0.00000000       0.11467728 </v>
   <v>      -0.36523910      -0.00998666       0.21166656 </v>
   <v>       0.17397083       0.32129965       0.21166656 </v>
   <v>       0.19126827      -0.31131300       0.21166656 </v>
   <v>       0.36523910       0.00998666      -0.21166656 </v>
   <v>      -0.17397083      -0.32129965      -0.21166656 </v>
   <v>      -0.19126827       0.31131300      -0.21166656 </v>
  </varray>
  <varray name="stress" >
   <v>       9.40765476      -0.00000047       0.00000000 </v>
   <v>      -0.00000068       9.40765392      -0.00000000 </v>
   <v>       0.00000000      -0.00000000       3.90916643 </v>
  </varray>
  <energy>
   <i name="e_fr_energy">    -39.05136468 </i>
   <i name="e_wo_entrp">    -39.05136468 </i>
   <i name="e_0_energy">      0.00000000 </i>
  </energy>
  <time name="totalsc"> 2182.73 2193.32</time>
 </calculation>
 <calculation>
  <scstep>
   <time name="dav">   28.20   28.23</time>
   <time name="total">   81.98   82.11</time>
   <energy>
    <i name="alphaZ">     50.11674614 </i>
    <i name="ewald">   9930.64616396 </i>
    <i name="hartreedc"> -13450.78606481 </i>
    <i name="XCdc">     34.43645980 </i>
    <i name="pawpsdc">   2591.91793896 </i>
    <i name="pawaedc">  -2604.38260087 </i>
    <i name="eentropy">      0.00000000 </i>
    <i name="bandstr">   -512.65251864 </i>
    <i name="atom">   3920.96469382 </i>
    <i name="e_fr_energy">    -39.73918165 </i>
    <i name="e_wo_entrp">    -39.73918165 </i>
    <i name="e_0_energy">    -39.73918165 </i>
   </energy>
  </scstep>
  <scstep>
   <time name="dav">   27.20   27.31</time>
   <time name="total">   80.88   81.19</time>
   <energy>
    <i name="e_fr_energy">    -42.40982716 </i>
    <i name="e_wo_entrp">    -42.40982716 </i>
    <i name="e_0_energy">    -42.40982716 </i>
   </energy>
  </scstep>
  <scstep>
   <time name="dav">   24.58   24.88</time>
   <time name="total">   78.67   79.00</time>
   <energy>
    <i name="e_fr_energy">    -39.22425655 </i>
    <i name="e_wo_entrp">    -39.22425655 </i>
    <i name="e_0_energy">    -39.22425655 </i>
   </energy>
  </scstep>
  <scstep>
   <time name="dav">   26.90   27.02</time>
   <time name="total">   80.81   81.08</time>
   <energy>
    <i name="e_fr_energy">    -39.13144372 </i>
    <i name="e_wo_entrp">    -39.13144372 </i>
    <i name="e_0_energy">    -39.13144372 </i>
   </energy>
  </scstep>
  <scstep>
   <time name="dav">   28.66   28.84</time>
   <time name="total">   82.56   82.87</time>
   <energy>
    <i name="e_fr_energy">    -39.12566027 </i>
    <i name="e_wo_entrp">    -39.12566027 </i>
    <i name="e_0_energy">    -39.12566027 </i>
   </energy>
  </scstep>
  <scstep>
   <time name="dav">   28.68   28.77</time>
   <time name="total">   82.45   82.70</time>
   <energy>
    <i name="e_fr_energy">    -39.12254352 </i>
    <i name="e_wo_entrp">    -39.12254352 </i>
    <i name="e_0_energy">    -39.12254352 </i>
   </energy>
  </scstep>
  <scstep>
   <time name="dav">   24.48   24.68</time>
   <time name="total">   78.21   78.62</time>
   <energy>
    <i name="e_fr_energy">    -39.12139477 </i>
    <i name="e_wo_entrp">    -39.12139477 </i>
    <i name="e_0_energy">    -39.12139477 </i>
   </energy>
  </scstep>
  <scstep>
   <time name="dav">   22.62   22.71</time>
   <time name="total">   76.44   76.70</time>
   <energy>
    <i name="e_fr_energy">    -39.12223973 </i>
    <i name="e_wo_entrp">    -39.12223973 </i>
    <i name="e_0_energy">    -39.12223973 </i>
   </energy>
  </scstep>
  <scstep>
   <time name="dav">   21.49   21.53</time>
   <time name="total">   75.30   75.47</time>
   <energy>
    <i name="e_fr_energy">    -39.12202393 </i>
    <i name="e_wo_entrp">    -39.12202393 </i>
    <i name="e_0_energy">    -39.12202393 </i>
   </energy>
  </scstep>
  <scstep>
   <time name="dav">   19.30   19.61</time>
   <time name="total">   72.86   73.44</time>
   <energy>
    <i name="e_fr_energy">    -39.12106006 </i>
    <i name="e_wo_entrp">    -39.12106006 </i>
    <i name="e_0_energy">    -39.12106006 </i>
   </energy>
  </scstep>
  <scstep>
   <time name="dav">   21.48   21.60</time>
   <time name="total">   75.24   75.56</time>
   <energy>
    <i name="e_fr_energy">    -39.12082654 </i>
    <i name="e_wo_entrp">    -39.12082654 </i>
    <i name="e_0_energy">    -39.12082654 </i>
   </energy>
  </scstep>
  <scstep>
   <time name="dav">   21.52   21.55</time>
   <time name="total">   72.96   73.13</time>
   <energy>
    <i name="alphaZ">     50.11674614 </i>
    <i name="ewald">   9930.64616396 </i>
    <i name="hartreedc"> -13476.27176857 </i>
    <i name="XCdc">     35.38154830 </i>
    <i name="pawpsdc">   2570.76941367 </i>
    <i name="pawaedc">  -2582.82852601 </i>
    <i name="eentropy">      0.00000000 </i>
    <i name="bandstr">   -487.89907788 </i>
    <i name="atom">   3920.96469382 </i>
    <i name="e_fr_energy">    -39.12080656 </i>
    <i name="e_wo_entrp">    -39.12080656 </i>
    <i name="e_0_energy">    -39.12080656 </i>
   </energy>
  </scstep>
  <structure>
   <crystal>
    <varray name="basis" >
     <v>       6.16052749       0.00000007       0.00000000 </v>
     <v>       3.08026335       5.33517309       0.00000000 </v>
     <v>       0.00000000       0.00000000      22.02971974 </v>
    </varray>
    <i name="volume">    724.06137930 </i>
    <varray name="rec_basis" >
     <v>       0.16232376      -0.09371766      -0.00000000 </v>
     <v>      -0.00000000       0.18743534       0.00000000 </v>
     <v>      -0.00000000      -0.00000000       0.04539322 </v>
    </varray>
   </crystal>
   <varray name="positions" >
    <v>       0.33333300       0.33333300       0.49993913 </v>
    <v>       0.66666700       0.66666700       0.50006087 </v>
    <v>       0.00000000      -0.00000000       0.44847791 </v>
    <v>      -0.00000000       0.00000000       0.55152209 </v>
    <v>       0.63245117       0.00038050       0.57131923 </v>
    <v>       0.00038050       0.36716933       0.57131923 </v>
    <v>       0.36716933       0.63245117       0.57131923 </v>
    <v>       0.36754883       0.99961950       0.42868077 </v>
    <v>       0.99961950       0.63283067       0.42868077 </v>
    <v>       0.63283067       0.36754883       0.42868077 </v>
   </varray>
  </structure>
  <varray name="forces" >
   <v>      -0.00000000       0.00000000      -0.00196996 </v>
   <v>       0.00000000      -0.00000000       0.00196996 </v>
   <v>       0.00000000       0.00000000      -0.09427067 </v>
   <v>      -0.00000000      -0.00000000       0.09427067 </v>
   <v>      -0.13779302      -0.01034283      -0.00818214 </v>
   <v>       0.05993935       0.12450366      -0.00818214 </v>
   <v>       0.07785367      -0.11416084      -0.00818214 </v>
   <v>       0.13779302       0.01034283       0.00818214 </v>
   <v>      -0.05993935      -0.12450366       0.00818214 </v>
   <v>      -0.07785367       0.11416084       0.00818214 </v>
  </varray>
  <varray name="stress" >
   <v>       0.91785606       0.00000020       0.00000000 </v>
   <v>      -0.00000032       0.91785598       0.00000000 </v>
   <v>       0.00000000       0.00000000       0.52714477 </v>
  </varray>
  <energy>
   <i name="e_fr_energy">    -39.12080656 </i>
   <i name="e_wo_entrp">    -39.12080656 </i>
   <i name="e_0_energy">      0.00000000 </i>
  </energy>
  <time name="totalsc"> 1073.39 1077.36</time>
 </calculation>
 <calculation>
  <scstep>
   <time name="dav">   22.93   23.10</time>
   <time name="total">   76.58   76.90</time>
   <energy>
    <i name="alphaZ">     49.81532506 </i>
    <i name="ewald">   9887.44954217 </i>
    <i name="hartreedc"> -13427.17849628 </i>
    <i name="XCdc">     35.04364446 </i>
    <i name="pawpsdc">   2570.82641786 </i>
    <i name="pawaedc">  -2582.87829749 </i>
    <i name="eentropy">      0.00000000 </i>
    <i name="bandstr">   -493.19091228 </i>
    <i name="atom">   3920.96469382 </i>
    <i name="e_fr_energy">    -39.14808269 </i>
    <i name="e_wo_entrp">    -39.14808269 </i>
    <i name="e_0_energy">    -39.14808269 </i>
   </energy>
  </scstep>
  <scstep>
   <time name="dav">   23.14   23.78</time>
   <time name="total">   76.78   77.74</time>
   <energy>
    <i name="e_fr_energy">    -39.25427182 </i>
    <i name="e_wo_entrp">    -39.25427182 </i>
    <i name="e_0_energy">    -39.25427182 </i>
   </energy>
  </scstep>
  <scstep>
   <time name="dav">   23.71   23.81</time>
   <time name="total">   76.71   77.75</time>
   <energy>
    <i name="e_fr_energy">    -39.12211671 </i>
    <i name="e_wo_entrp">    -39.12211671 </i>
    <i name="e_0_energy">    -39.12211671 </i>
   </energy>
  </scstep>
  <scstep>
   <time name="dav">   24.97   25.33</time>
   <time name="total">   78.54   79.46</time>
   <energy>
    <i name="e_fr_energy">    -39.12021504 </i>
    <i name="e_wo_entrp">    -39.12021504 </i>
    <i name="e_0_energy">    -39.12021504 </i>
   </energy>
  </scstep>
  <scstep>
   <time name="dav">   30.53   30.88</time>
   <time name="total">   81.80   82.66</time>
   <energy>
    <i name="alphaZ">     49.81532506 </i>
    <i name="ewald">   9887.44954217 </i>
    <i name="hartreedc"> -13431.95243220 </i>
    <i name="XCdc">     35.22872404 </i>
    <i name="pawpsdc">   2567.84086335 </i>
    <i name="pawaedc">  -2579.85135759 </i>
    <i name="eentropy">      0.00000000 </i>
    <i name="bandstr">   -488.61567361 </i>
    <i name="atom">   3920.96469382 </i>
    <i name="e_fr_energy">    -39.12031496 </i>
    <i name="e_wo_entrp">    -39.12031496 </i>
    <i name="e_0_energy">    -39.12031496 </i>
   </energy>
  </scstep>
  <structure>
   <crystal>
    <varray name="basis" >
     <v>       6.17523542       0.00000007       0.00000000 </v>
     <v>       3.08761731       5.34791053       0.00000000 </v>
     <v>       0.00000000       0.00000000      22.05756825 </v>
    </varray>
    <i name="volume">    728.44250824 </i>
    <varray name="rec_basis" >
     <v>       0.16193715      -0.09349445      -0.00000000 </v>
     <v>      -0.00000000       0.18698892       0.00000000 </v>
     <v>      -0.00000000      -0.00000000       0.04533591 </v>
    </varray>
   </crystal>
   <varray name="positions" >
    <v>       0.33333300       0.33333300       0.49993884 </v>
    <v>       0.66666700       0.66666700       0.50006116 </v>
    <v>       0.00000000      -0.00000000       0.44847238 </v>
    <v>      -0.00000000       0.00000000       0.55152762 </v>
    <v>       0.63231487       0.00038138       0.57137054 </v>
    <v>       0.00038138       0.36730474       0.57137054 </v>
    <v>       0.36730474       0.63231487       0.57137054 </v>
    <v>       0.36768513       0.99961862       0.42862946 </v>
    <v>       0.99961862       0.63269526       0.42862946 </v>
    <v>       0.63269526       0.36768513       0.42862946 </v>
   </varray>
  </structure>
  <varray name="forces" >
   <v>      -0.00000000       0.00000000      -0.00091088 </v>
   <v>      -0.00000000       0.00000000       0.00091088 </v>
   <v>      -0.00000000       0.00000000      -0.08905276 </v>
   <v>      -0.00000000       0.00000000       0.08905276 </v>
   <v>      -0.09529384      -0.00858084      -0.04754563 </v>
   <v>       0.04021570       0.08681730      -0.04754563 </v>
   <v>       0.05507815      -0.07823647      -0.04754563 </v>
   <v>       0.09529384       0.00858084       0.04754563 </v>
   <v>      -0.04021570      -0.08681730       0.04754563 </v>
   <v>      -0.05507815       0.07823647       0.04754563 </v>
  </varray>
  <varray name="stress" >
   <v>       0.01958148       0.00000373       0.00000000 </v>
   <v>      -0.00000373       0.01958148      -0.00000000 </v>
   <v>       0.00000000      -0.00000000       0.59493953 </v>
  </varray>
  <energy>
   <i name="e_fr_energy">    -39.12031496 </i>
   <i name="e_wo_entrp">    -39.12031496 </i>
   <i name="e_0_energy">      0.00000000 </i>
  </energy>
  <time name="totalsc">  525.30  530.20</time>
 </calculation>
 <calculation>
  <scstep>
   <time name="dav">   24.16   24.39</time>
   <time name="total">   77.58   78.19</time>
   <energy>
    <i name="alphaZ">     49.81518041 </i>
    <i name="ewald">   9920.01048871 </i>
    <i name="hartreedc"> -13463.45404407 </i>
    <i name="XCdc">     35.23270521 </i>
    <i name="pawpsdc">   2567.40363224 </i>
    <i name="pawaedc">  -2579.38953882 </i>
    <i name="eentropy">      0.00000000 </i>
    <i name="bandstr">   -489.70637764 </i>
    <i name="atom">   3920.96469382 </i>
    <i name="e_fr_energy">    -39.12326014 </i>
    <i name="e_wo_entrp">    -39.12326014 </i>
    <i name="e_0_energy">    -39.12326014 </i>
   </energy>
  </scstep>
  <scstep>
   <time name="dav">   26.12   26.36</time>
   <time name="total">   79.68   80.42</time>
   <energy>
    <i name="e_fr_energy">    -39.12364033 </i>
    <i name="e_wo_entrp">    -39.12364033 </i>
    <i name="e_0_energy">    -39.12364033 </i>
   </energy>
  </scstep>
  <scstep>
   <time name="dav">   24.96   25.07</time>
   <time name="total">   78.51   78.91</time>
   <energy>
    <i name="e_fr_energy">    -39.12341565 </i>
    <i name="e_wo_entrp">    -39.12341565 </i>
    <i name="e_0_energy">    -39.12341565 </i>
   </energy>
  </scstep>
  <scstep>
   <time name="dav">   19.66   19.74</time>
   <time name="total">   71.47   71.63</time>
   <energy>
    <i name="alphaZ">     49.81518041 </i>
    <i name="ewald">   9920.01048871 </i>
    <i name="hartreedc"> -13464.13091799 </i>
    <i name="XCdc">     35.23031009 </i>
    <i name="pawpsdc">   2567.99357385 </i>
    <i name="pawaedc">  -2579.98397002 </i>
    <i name="eentropy">      0.00000000 </i>
    <i name="bandstr">   -489.02276113 </i>
    <i name="atom">   3920.96469382 </i>
    <i name="e_fr_energy">    -39.12340224 </i>
    <i name="e_wo_entrp">    -39.12340224 </i>
    <i name="e_0_energy">    -39.12340224 </i>
   </energy>
  </scstep>
  <structure>
   <crystal>
    <varray name="basis" >
     <v>       6.17221785       0.00000011       0.00000000 </v>
     <v>       3.08610849       5.34529727       0.00000000 </v>
     <v>       0.00000000      -0.00000000      22.07920532 </v>
    </varray>
    <i name="volume">    728.44462334 </i>
    <varray name="rec_basis" >
     <v>       0.16201632      -0.09354015      -0.00000000 </v>
     <v>      -0.00000000       0.18708034       0.00000000 </v>
     <v>      -0.00000000       0.00000000       0.04529149 </v>
    </varray>
   </crystal>
   <varray name="positions" >
    <v>       0.33333300       0.33333300       0.49993696 </v>
    <v>       0.66666700       0.66666700       0.50006304 </v>
    <v>      -0.00000000       0.00000000       0.44828316 </v>
    <v>      -0.00000000       0.00000000       0.55171684 </v>
    <v>       0.63165811       0.00030541       0.57125601 </v>
    <v>       0.00030541       0.36803747       0.57125601 </v>
    <v>       0.36803747       0.63165811       0.57125601 </v>
    <v>       0.36834189       0.99969459       0.42874399 </v>
    <v>       0.99969459       0.63196253       0.42874399 </v>
    <v>       0.63196253       0.36834189       0.42874399 </v>
   </varray>
  </structure>
  <varray name="forces" >
   <v>       0.00000000      -0.00000000       0.00118968 </v>
   <v>       0.00000000      -0.00000000      -0.00118968 </v>
   <v>       0.00000000      -0.00000000       0.02048537 </v>
   <v>       0.00000000      -0.00000000      -0.02048537 </v>
   <v>      -0.06216119      -0.00824450      -0.04468301 </v>
   <v>       0.02394065       0.05795542      -0.04468301 </v>
   <v>       0.03822055      -0.04971092      -0.04468301 </v>
   <v>       0.06216119       0.00824450       0.04468301 </v>
   <v>      -0.02394065      -0.05795542       0.04468301 </v>
   <v>      -0.03822055       0.04971092       0.04468301 </v>
  </varray>
  <varray name="stress" >
   <v>      -1.31681774       0.00000195       0.00000000 </v>
   <v>      -0.00000178      -1.31681762       0.00000000 </v>
   <v>       0.00000000       0.00000000      -0.57963612 </v>
  </varray>
  <energy>
   <i name="e_fr_energy">    -39.12340224 </i>
   <i name="e_wo_entrp">    -39.12340224 </i>
   <i name="e_0_energy">      0.00000000 </i>
  </energy>
  <time name="totalsc">  441.96  444.88</time>
 </calculation>
 <calculation>
  <scstep>
   <time name="dav">   24.03   24.49</time>
   <time name="total">   77.72   78.43</time>
   <energy>
    <i name="alphaZ">     49.81509821 </i>
    <i name="ewald">   9965.98462760 </i>
    <i name="hartreedc"> -13508.56184842 </i>
    <i name="XCdc">     35.23402108 </i>
    <i name="pawpsdc">   2567.98564851 </i>
    <i name="pawaedc">  -2579.96675674 </i>
    <i name="eentropy">      0.00000000 </i>
    <i name="bandstr">   -490.57936291 </i>
    <i name="atom">   3920.96469382 </i>
    <i name="e_fr_energy">    -39.12387886 </i>
    <i name="e_wo_entrp">    -39.12387886 </i>
    <i name="e_0_energy">    -39.12387886 </i>
   </energy>
  </scstep>
  <scstep>
   <time name="dav">   25.94   26.12</time>
   <time name="total">   79.69   80.09</time>
   <energy>
    <i name="e_fr_energy">    -39.12514025 </i>
    <i name="e_wo_entrp">    -39.12514025 </i>
    <i name="e_0_energy">    -39.12514025 </i>
   </energy>
  </scstep>
  <scstep>
   <time name="dav">   23.78   24.03</time>
   <time name="total">   77.47   77.92</time>
   <energy>
    <i name="e_fr_energy">    -39.12439358 </i>
    <i name="e_wo_entrp">    -39.12439358 </i>
    <i name="e_0_energy">    -39.12439358 </i>
   </energy>
  </scstep>
  <scstep>
   <time name="dav">   24.30   24.36</time>
   <time name="total">   75.79   76.04</time>
   <energy>
    <i name="alphaZ">     49.81509821 </i>
    <i name="ewald">   9965.98462760 </i>
    <i name="hartreedc"> -13509.48005217 </i>
    <i name="XCdc">     35.23028515 </i>
    <i name="pawpsdc">   2569.36111869 </i>
    <i name="pawaedc">  -2581.38369160 </i>
    <i name="eentropy">      0.00000000 </i>
    <i name="bandstr">   -489.61649404 </i>
    <i name="atom">   3920.96469382 </i>
    <i name="e_fr_energy">    -39.12441434 </i>
    <i name="e_wo_entrp">    -39.12441434 </i>
    <i name="e_0_energy">    -39.12441434 </i>
   </energy>
  </scstep>
  <structure>
   <crystal>
    <varray name="basis" >
     <v>       6.16796783       0.00000018       0.00000000 </v>
     <v>       3.08398341       5.34161667      -0.00000000 </v>
     <v>       0.00000000      -0.00000000      22.10967953 </v>
    </varray>
    <i name="volume">    728.44582545 </i>
    <varray name="rec_basis" >
     <v>       0.16212796      -0.09360461      -0.00000000 </v>
     <v>      -0.00000001       0.18720924       0.00000000 </v>
     <v>      -0.00000000       0.00000000       0.04522906 </v>
    </varray>
   </crystal>
   <varray name="positions" >
    <v>       0.33333300       0.33333300       0.49993432 </v>
    <v>       0.66666700       0.66666700       0.50006568 </v>
    <v>      -0.00000000       0.00000000       0.44801691 </v>
    <v>      -0.00000000       0.00000000       0.55198309 </v>
    <v>       0.63073266       0.00019837       0.57109485 </v>
    <v>       0.00019837       0.36906997       0.57109485 </v>
    <v>       0.36906997       0.63073266       0.57109485 </v>
    <v>       0.36926734       0.99980163       0.42890515 </v>
    <v>       0.99980163       0.63093003       0.42890515 </v>
    <v>       0.63093003       0.36926734       0.42890515 </v>
   </varray>
  </structure>
  <varray name="forces" >
   <v>       0.00000000       0.00000000       0.00542819 </v>
   <v>       0.00000000       0.00000000      -0.00542819 </v>
   <v>       0.00000000      -0.00000000       0.17037232 </v>
   <v>      -0.00000000       0.00000000      -0.17037232 </v>
   <v>      -0.00995177      -0.00314142      -0.02310662 </v>
   <v>       0.00225534       0.01018920      -0.02310662 </v>
   <v>       0.00769644      -0.00704778      -0.02310662 </v>
   <v>       0.00995177       0.00314142       0.02310662 </v>
   <v>      -0.00225534      -0.01018920       0.02310662 </v>
   <v>      -0.00769644       0.00704778       0.02310662 </v>
  </varray>
  <varray name="stress" >
   <v>      -1.04957501       0.00000183       0.00000000 </v>
   <v>      -0.00000169      -1.04957491       0.00000000 </v>
   <v>       0.00000000      -0.00000000      -0.73115772 </v>
  </varray>
  <energy>
   <i name="e_fr_energy">    -39.12441434 </i>
   <i name="e_wo_entrp">    -39.12441434 </i>
   <i name="e_0_energy">      0.00000000 </i>
  </energy>
  <time name="totalsc">  445.42  447.84</time>
 </calculation>
 <calculation>
  <scstep>
   <time name="dav">   28.77   28.94</time>
   <time name="total">   82.52   82.89</time>
   <energy>
    <i name="alphaZ">     49.93032831 </i>
    <i name="ewald">  10001.01017073 </i>
    <i name="hartreedc"> -13546.48096362 </i>
    <i name="XCdc">     35.36326564 </i>
    <i name="pawpsdc">   2569.47753682 </i>
    <i name="pawaedc">  -2581.49871145 </i>
    <i name="eentropy">      0.00000000 </i>
    <i name="bandstr">   -487.89389059 </i>
    <i name="atom">   3920.96469382 </i>
    <i name="e_fr_energy">    -39.12757033 </i>
    <i name="e_wo_entrp">    -39.12757033 </i>
    <i name="e_0_energy">    -39.12757033 </i>
   </energy>
  </scstep>
  <scstep>
   <time name="dav">   25.33   25.37</time>
   <time name="total">   79.26   79.38</time>
   <energy>
    <i name="e_fr_energy">    -39.14481978 </i>
    <i name="e_wo_entrp">    -39.14481978 </i>
    <i name="e_0_energy">    -39.14481978 </i>
   </energy>
  </scstep>
  <scstep>
   <time name="dav">   23.68   23.71</time>
   <time name="total">   77.56   77.66</time>
   <energy>
    <i name="e_fr_energy">    -39.12501097 </i>
    <i name="e_wo_entrp">    -39.12501097 </i>
    <i name="e_0_energy">    -39.12501097 </i>
   </energy>
  </scstep>
  <scstep>
   <time name="dav">   25.01   25.04</time>
   <time name="total">   78.73   78.89</time>
   <energy>
    <i name="e_fr_energy">    -39.12564615 </i>
    <i name="e_wo_entrp">    -39.12564615 </i>
    <i name="e_0_energy">    -39.12564615 </i>
   </energy>
  </scstep>
  <scstep>
   <time name="dav">   22.66   22.71</time>
   <time name="total">   74.11   74.34</time>
   <energy>
    <i name="alphaZ">     49.93032831 </i>
    <i name="ewald">  10001.01017073 </i>
    <i name="hartreedc"> -13545.44450152 </i>
    <i name="XCdc">     35.29319511 </i>
    <i name="pawpsdc">   2571.18908705 </i>
    <i name="pawaedc">  -2583.24289916 </i>
    <i name="eentropy">      0.00000000 </i>
    <i name="bandstr">   -488.82570770 </i>
    <i name="atom">   3920.96469382 </i>
    <i name="e_fr_energy">    -39.12563334 </i>
    <i name="e_wo_entrp">    -39.12563334 </i>
    <i name="e_0_energy">    -39.12563334 </i>
   </energy>
  </scstep>
  <structure>
   <crystal>
    <varray name="basis" >
     <v>       6.16085109       0.00000022       0.00000000 </v>
     <v>       3.08042501       5.33545342      -0.00000000 </v>
     <v>       0.00000000      -0.00000000      22.10964616 </v>
    </varray>
    <i name="volume">    726.76470517 </i>
    <varray name="rec_basis" >
     <v>       0.16231524      -0.09371273      -0.00000000 </v>
     <v>      -0.00000001       0.18742550       0.00000000 </v>
     <v>      -0.00000000       0.00000000       0.04522913 </v>
    </varray>
   </crystal>
   <varray name="positions" >
    <v>       0.33333300       0.33333300       0.49993760 </v>
    <v>       0.66666700       0.66666700       0.50006240 </v>
    <v>      -0.00000000       0.00000000       0.44804070 </v>
    <v>      -0.00000000       0.00000000       0.55195930 </v>
    <v>       0.63030974       0.00014162       0.57100670 </v>
    <v>       0.00014162       0.36954964       0.57100670 </v>
    <v>       0.36954964       0.63030974       0.57100670 </v>
    <v>       0.36969026       0.99985838       0.42899330 </v>
    <v>       0.99985838       0.63045036       0.42899330 </v>
    <v>       0.63045036       0.36969026       0.42899330 </v>
   </varray>
  </structure>
  <varray name="forces" >
   <v>      -0.00000000      -0.00000000       0.00669506 </v>
   <v>      -0.00000000      -0.00000000      -0.00669506 </v>
   <v>       0.00000000      -0.00000000       0.15658368 </v>
   <v>      -0.00000000       0.00000000      -0.15658368 </v>
   <v>       0.00492963      -0.00027091      -0.00469454 </v>
   <v>      -0.00269943      -0.00413373      -0.00469454 </v>
   <v>      -0.00223020       0.00440464      -0.00469454 </v>
   <v>      -0.00492963       0.00027091       0.00469454 </v>
   <v>       0.00269943       0.00413373       0.00469454 </v>
   <v>       0.00223020      -0.00440464       0.00469454 </v>
  </varray>
  <varray name="stress" >
   <v>      -0.32272494       0.00000143       0.00000000 </v>
   <v>      -0.00000139      -0.32272491       0.00000000 </v>
   <v>       0.00000000      -0.00000000      -0.77457928 </v>
  </varray>
  <energy>
   <i name="e_fr_energy">    -39.12563334 </i>
   <i name="e_wo_entrp">    -39.12563334 </i>
   <i name="e_0_energy">      0.00000000 </i>
  </energy>
  <time name="totalsc">  527.04  528.41</time>
 </calculation>
 <calculation>
  <scstep>
   <time name="dav">   24.58   24.71</time>
   <time name="total">   78.12   78.57</time>
   <energy>
    <i name="alphaZ">     49.97452918 </i>
    <i name="ewald">  10014.45065472 </i>
    <i name="hartreedc"> -13559.63147629 </i>
    <i name="XCdc">     35.34565745 </i>
    <i name="pawpsdc">   2571.40355451 </i>
    <i name="pawaedc">  -2583.47004396 </i>
    <i name="eentropy">      0.00000000 </i>
    <i name="bandstr">   -488.16341935 </i>
    <i name="atom">   3920.96469382 </i>
    <i name="e_fr_energy">    -39.12584992 </i>
    <i name="e_wo_entrp">    -39.12584992 </i>
    <i name="e_0_energy">    -39.12584992 </i>
   </energy>
  </scstep>
  <scstep>
   <time name="dav">   27.60   27.70</time>
   <time name="total">   81.22   81.62</time>
   <energy>
    <i name="e_fr_energy">    -39.12909539 </i>
    <i name="e_wo_entrp">    -39.12909539 </i>
    <i name="e_0_energy">    -39.12909539 </i>
   </energy>
  </scstep>
  <scstep>
   <time name="dav">   24.29   24.40</time>
   <time name="total">   77.91   78.45</time>
   <energy>
    <i name="e_fr_energy">    -39.12544780 </i>
    <i name="e_wo_entrp">    -39.12544780 </i>
    <i name="e_0_energy">    -39.12544780 </i>
   </energy>
  </scstep>
  <scstep>
   <time name="dav">   23.88   24.23</time>
   <time name="total">   77.41   78.16</time>
   <energy>
    <i name="e_fr_energy">    -39.12586231 </i>
    <i name="e_wo_entrp">    -39.12586231 </i>
    <i name="e_0_energy">    -39.12586231 </i>
   </energy>
  </scstep>
  <scstep>
   <time name="dav">   19.69   19.93</time>
   <time name="total">   71.25   71.72</time>
   <energy>
    <i name="alphaZ">     49.97452918 </i>
    <i name="ewald">  10014.45065472 </i>
    <i name="hartreedc"> -13559.37269157 </i>
    <i name="XCdc">     35.31767528 </i>
    <i name="pawpsdc">   2572.24445048 </i>
    <i name="pawaedc">  -2584.32846690 </i>
    <i name="eentropy">      0.00000000 </i>
    <i name="bandstr">   -488.37672227 </i>
    <i name="atom">   3920.96469382 </i>
    <i name="e_fr_energy">    -39.12587726 </i>
    <i name="e_wo_entrp">    -39.12587726 </i>
    <i name="e_0_energy">    -39.12587726 </i>
   </energy>
  </scstep>
  <structure>
   <crystal>
    <varray name="basis" >
     <v>       6.15812773       0.00000024       0.00000000 </v>
     <v>       3.07906332       5.33309493      -0.00000000 </v>
     <v>       0.00000000      -0.00000000      22.10963339 </v>
    </varray>
    <i name="volume">    726.12190505 </i>
    <varray name="rec_basis" >
     <v>       0.16238702      -0.09375418      -0.00000000 </v>
     <v>      -0.00000001       0.18750839       0.00000000 </v>
     <v>      -0.00000000       0.00000000       0.04522915 </v>
    </varray>
   </crystal>
   <varray name="positions" >
    <v>       0.33333300       0.33333300       0.49993885 </v>
    <v>       0.66666700       0.66666700       0.50006115 </v>
    <v>      -0.00000000       0.00000000       0.44804980 </v>
    <v>      -0.00000000       0.00000000       0.55195020 </v>
    <v>       0.63014771       0.00011988       0.57097297 </v>
    <v>       0.00011988       0.36973341       0.57097297 </v>
    <v>       0.36973341       0.63014771       0.57097297 </v>
    <v>       0.36985229       0.99988012       0.42902703 </v>
    <v>       0.99988012       0.63026659       0.42902703 </v>
    <v>       0.63026659       0.36985229       0.42902703 </v>
   </varray>
  </structure>
  <varray name="forces" >
   <v>      -0.00000000      -0.00000000       0.00668180 </v>
   <v>      -0.00000000       0.00000000      -0.00668180 </v>
   <v>       0.00000000      -0.00000000       0.15357545 </v>
   <v>      -0.00000000       0.00000000      -0.15357545 </v>
   <v>       0.01204446      -0.00010507       0.00277772 </v>
   <v>      -0.00611322      -0.01037828       0.00277772 </v>
   <v>      -0.00593124       0.01048334       0.00277772 </v>
   <v>      -0.01204446       0.00010507      -0.00277772 </v>
   <v>       0.00611322       0.01037828      -0.00277772 </v>
   <v>       0.00593124      -0.01048334      -0.00277772 </v>
  </varray>
  <varray name="stress" >
   <v>       0.11392657       0.00000247       0.00000000 </v>
   <v>      -0.00000248       0.11392656       0.00000000 </v>
   <v>       0.00000000      -0.00000000      -0.51703203 </v>
  </varray>
  <energy>
   <i name="e_fr_energy">    -39.12587726 </i>
   <i name="e_wo_entrp">    -39.12587726 </i>
   <i name="e_0_energy">      0.00000000 </i>
  </energy>
  <time name="totalsc">  520.48  524.04</time>
 </calculation>
 <calculation>
  <scstep>
   <time name="dav">   25.58   25.77</time>
   <time name="total">   79.10   79.49</time>
   <energy>
    <i name="alphaZ">     49.98724161 </i>
    <i name="ewald">  10006.74570653 </i>
    <i name="hartreedc"> -13552.50233409 </i>
    <i name="XCdc">     35.33633121 </i>
    <i name="pawpsdc">   2572.32566960 </i>
    <i name="pawaedc">  -2584.41472556 </i>
    <i name="eentropy">      0.00000000 </i>
    <i name="bandstr">   -487.56908650 </i>
    <i name="atom">   3920.96469382 </i>
    <i name="e_fr_energy">    -39.12650336 </i>
    <i name="e_wo_entrp">    -39.12650336 </i>
    <i name="e_0_energy">    -39.12650336 </i>
   </energy>
  </scstep>
  <scstep>
   <time name="dav">   24.36   24.42</time>
   <time name="total">   77.72   78.29</time>
   <energy>
    <i name="e_fr_energy">    -39.12731065 </i>
    <i name="e_wo_entrp">    -39.12731065 </i>
    <i name="e_0_energy">    -39.12731065 </i>
   </energy>
  </scstep>
  <scstep>
   <time name="dav">   24.90   25.05</time>
   <time name="total">   78.80   79.18</time>
   <energy>
    <i name="e_fr_energy">    -39.12651834 </i>
    <i name="e_wo_entrp">    -39.12651834 </i>
    <i name="e_0_energy">    -39.12651834 </i>
   </energy>
  </scstep>
  <scstep>
   <time name="dav">   19.98   20.01</time>
   <time name="total">   73.66   73.98</time>
   <energy>
    <i name="e_fr_energy">    -39.12664735 </i>
    <i name="e_wo_entrp">    -39.12664735 </i>
    <i name="e_0_energy">    -39.12664735 </i>
   </energy>
  </scstep>
  <scstep>
   <time name="dav">   22.70   22.75</time>
   <time name="total">   74.32   74.54</time>
   <energy>
    <i name="alphaZ">     49.98724161 </i>
    <i name="ewald">  10006.74570653 </i>
    <i name="hartreedc"> -13552.32079020 </i>
    <i name="XCdc">     35.32797776 </i>
    <i name="pawpsdc">   2572.41255785 </i>
    <i name="pawaedc">  -2584.50637368 </i>
    <i name="eentropy">      0.00000000 </i>
    <i name="bandstr">   -487.73767112 </i>
    <i name="atom">   3920.96469382 </i>
    <i name="e_fr_energy">    -39.12665743 </i>
    <i name="e_wo_entrp">    -39.12665743 </i>
    <i name="e_0_energy">    -39.12665743 </i>
   </energy>
  </scstep>
  <structure>
   <crystal>
    <varray name="basis" >
     <v>       6.15874004       0.00000025       0.00000000 </v>
     <v>       3.07936947       5.33362521      -0.00000000 </v>
     <v>       0.00000000      -0.00000000      22.09961559 </v>
    </varray>
    <i name="volume">    725.93724242 </i>
    <varray name="rec_basis" >
     <v>       0.16237088      -0.09374485      -0.00000000 </v>
     <v>      -0.00000001       0.18748974       0.00000000 </v>
     <v>      -0.00000000       0.00000000       0.04524966 </v>
    </varray>
   </crystal>
   <varray name="positions" >
    <v>       0.33333300       0.33333300       0.49994469 </v>
    <v>       0.66666700       0.66666700       0.50005531 </v>
    <v>      -0.00000000       0.00000000       0.44818412 </v>
    <v>      -0.00000000       0.00000000       0.55181588 </v>
    <v>       0.63018557       0.00011948       0.57097537 </v>
    <v>       0.00011948       0.36969595       0.57097537 </v>
    <v>       0.36969595       0.63018557       0.57097537 </v>
    <v>       0.36981443       0.99988052       0.42902463 </v>
    <v>       0.99988052       0.63030405       0.42902463 </v>
    <v>       0.63030405       0.36981443       0.42902463 </v>
   </varray>
  </structure>
  <varray name="forces" >
   <v>      -0.00000000      -0.00000000       0.00585162 </v>
   <v>      -0.00000000      -0.00000000      -0.00585162 </v>
   <v>      -0.00000000      -0.00000000       0.07570780 </v>
   <v>      -0.00000000      -0.00000000      -0.07570780 </v>
   <v>       0.01572840       0.00014204       0.00323318 </v>
   <v>      -0.00774119      -0.01369221       0.00323318 </v>
   <v>      -0.00798721       0.01355017       0.00323318 </v>
   <v>      -0.01572840      -0.00014204      -0.00323318 </v>
   <v>       0.00774119       0.01369221      -0.00323318 </v>
   <v>       0.00798721      -0.01355017      -0.00323318 </v>
  </varray>
  <varray name="stress" >
   <v>       0.11830051       0.00000222       0.00000000 </v>
   <v>      -0.00000224       0.11830050       0.00000000 </v>
   <v>       0.00000000      -0.00000000      -0.19846948 </v>
  </varray>
  <energy>
   <i name="e_fr_energy">    -39.12665743 </i>
   <i name="e_wo_entrp">    -39.12665743 </i>
   <i name="e_0_energy">      0.00000000 </i>
  </energy>
  <time name="totalsc">  518.41  520.92</time>
 </calculation>
 <calculation>
  <scstep>
   <time name="dav">   24.75   25.04</time>
   <time name="total">   78.59   79.20</time>
   <energy>
    <i name="alphaZ">     50.00004212 </i>
    <i name="ewald">   9998.99623496 </i>
    <i name="hartreedc"> -13545.36216674 </i>
    <i name="XCdc">     35.34618645 </i>
    <i name="pawpsdc">   2572.42773211 </i>
    <i name="pawaedc">  -2584.52178439 </i>
    <i name="eentropy">      0.00000000 </i>
    <i name="bandstr">   -486.97766964 </i>
    <i name="atom">   3920.96469382 </i>
    <i name="e_fr_energy">    -39.12673132 </i>
    <i name="e_wo_entrp">    -39.12673132 </i>
    <i name="e_0_energy">    -39.12673132 </i>
   </energy>
  </scstep>
  <scstep>
   <time name="dav">   24.36   24.49</time>
   <time name="total">   77.90   78.56</time>
   <energy>
    <i name="e_fr_energy">    -39.12756012 </i>
    <i name="e_wo_entrp">    -39.12756012 </i>
    <i name="e_0_energy">    -39.12756012 </i>
   </energy>
  </scstep>
  <scstep>
   <time name="dav">   24.16   24.39</time>
   <time name="total">   77.76   78.41</time>
   <energy>
    <i name="e_fr_energy">    -39.12670264 </i>
    <i name="e_wo_entrp">    -39.12670264 </i>
    <i name="e_0_energy">    -39.12670264 </i>
   </energy>
  </scstep>
  <scstep>
   <time name="dav">   19.10   19.46</time>
   <time name="total">   72.61   73.41</time>
   <energy>
    <i name="e_fr_energy">    -39.12683113 </i>
    <i name="e_wo_entrp">    -39.12683113 </i>
    <i name="e_0_energy">    -39.12683113 </i>
   </energy>
  </scstep>
  <scstep>
   <time name="dav">   18.34   18.36</time>
   <time name="total">   69.83   70.10</time>
   <energy>
    <i name="alphaZ">     50.00004212 </i>
    <i name="ewald">   9998.99623496 </i>
    <i name="hartreedc"> -13545.04909793 </i>
    <i name="XCdc">     35.33685944 </i>
    <i name="pawpsdc">   2572.47598750 </i>
    <i name="pawaedc">  -2584.57262552 </i>
    <i name="eentropy">      0.00000000 </i>
    <i name="bandstr">   -487.27893976 </i>
    <i name="atom">   3920.96469382 </i>
    <i name="e_fr_energy">    -39.12684536 </i>
    <i name="e_wo_entrp">    -39.12684536 </i>
    <i name="e_0_energy">    -39.12684536 </i>
   </energy>
  </scstep>
  <structure>
   <crystal>
    <varray name="basis" >
     <v>       6.15935589       0.00000027       0.00000000 </v>
     <v>       3.07967738       5.33415856      -0.00000000 </v>
     <v>       0.00000000      -0.00000000      22.08953991 </v>
    </varray>
    <i name="volume">    725.75139525 </i>
    <varray name="rec_basis" >
     <v>       0.16235464      -0.09373548      -0.00000000 </v>
     <v>      -0.00000001       0.18747100       0.00000000 </v>
     <v>      -0.00000000       0.00000000       0.04527030 </v>
    </varray>
   </crystal>
   <varray name="positions" >
    <v>       0.33333300       0.33333300       0.49995057 </v>
    <v>       0.66666700       0.66666700       0.50004943 </v>
    <v>      -0.00000000       0.00000000       0.44831928 </v>
    <v>      -0.00000000       0.00000000       0.55168072 </v>
    <v>       0.63022364       0.00011908       0.57097778 </v>
    <v>       0.00011908       0.36965828       0.57097778 </v>
    <v>       0.36965828       0.63022364       0.57097778 </v>
    <v>       0.36977636       0.99988092       0.42902222 </v>
    <v>       0.99988092       0.63034172       0.42902222 </v>
    <v>       0.63034172       0.36977636       0.42902222 </v>
   </varray>
  </structure>
  <varray name="forces" >
   <v>      -0.00000000       0.00000000       0.00463402 </v>
   <v>      -0.00000000      -0.00000000      -0.00463402 </v>
   <v>      -0.00000000       0.00000000      -0.00495895 </v>
   <v>      -0.00000000      -0.00000000       0.00495895 </v>
   <v>       0.01967979       0.00021179       0.00356719 </v>
   <v>      -0.00965648      -0.01714909       0.00356719 </v>
   <v>      -0.01002331       0.01693730       0.00356719 </v>
   <v>      -0.01967979      -0.00021179      -0.00356719 </v>
   <v>       0.00965648       0.01714909      -0.00356719 </v>
   <v>       0.01002331      -0.01693730      -0.00356719 </v>
  </varray>
[...]
        <r>  0.0000  0.0037  0.0249  0.0007  0.0000  0.0000  0.0001  0.0000  0.0000 </r>
        <r>  0.0000  0.0018  0.0000  0.0049  0.0000  0.0000  0.0000  0.0001  0.0000 </r>
        <r>  0.0000  0.0005  0.0253  0.0039  0.0000  0.0000  0.0001  0.0000  0.0000 </r>
       </set>
       <set comment="band 30">
        <r>  0.0006  0.0091  0.0006  0.0104  0.0454  0.0033  0.0573  0.0040  0.0741 </r>
        <r>  0.0006  0.0091  0.0006  0.0104  0.0454  0.0033  0.0573  0.0040  0.0741 </r>
        <r>  0.0000  0.0001  0.0000  0.0003  0.0000  0.0000  0.0000  0.0000  0.0000 </r>
        <r>  0.0000  0.0001  0.0000  0.0003  0.0000  0.0000  0.0000  0.0000  0.0000 </r>
        <r>  0.0001  0.0526  0.0070  0.0001  0.0002  0.0002  0.0000  0.0000  0.0000 </r>
        <r>  0.0000  0.0132  0.0000  0.0396  0.0001  0.0001  0.0000  0.0002  0.0003 </r>
        <r>  0.0001  0.0154  0.0068  0.0375  0.0001  0.0001  0.0000  0.0002  0.0002 </r>
        <r>  0.0001  0.0526  0.0070  0.0001  0.0002  0.0002  0.0000  0.0000  0.0000 </r>
        <r>  0.0000  0.0132  0.0000  0.0396  0.0001  0.0001  0.0000  0.0002  0.0003 </r>
        <r>  0.0001  0.0154  0.0068  0.0375  0.0001  0.0001  0.0000  0.0002  0.0002 </r>
       </set>
       <set comment="band 31">
        <r>  0.0010  0.0038  0.0000  0.0052  0.0060  0.0622  0.0566  0.0262  0.0053 </r>
        <r>  0.0010  0.0038  0.0000  0.0052  0.0060  0.0622  0.0566  0.0262  0.0053 </r>
        <r>  0.0046  0.0004  0.0488  0.0001  0.0000  0.0000  0.0000  0.0000  0.0000 </r>
        <r>  0.0046  0.0004  0.0488  0.0001  0.0000  0.0000  0.0000  0.0000  0.0000 </r>
        <r>  0.0012  0.0005  0.0193  0.0117  0.0001  0.0000  0.0000  0.0003  0.0001 </r>
        <r>  0.0024  0.0088  0.0410  0.0030  0.0001  0.0004  0.0001  0.0001  0.0000 </r>
        <r>  0.0012  0.0108  0.0191  0.0013  0.0001  0.0004  0.0000  0.0000  0.0000 </r>
        <r>  0.0012  0.0005  0.0193  0.0117  0.0001  0.0000  0.0000  0.0003  0.0001 </r>
        <r>  0.0024  0.0088  0.0410  0.0030  0.0001  0.0004  0.0001  0.0001  0.0000 </r>
        <r>  0.0012  0.0108  0.0191  0.0013  0.0001  0.0004  0.0000  0.0000  0.0000 </r>
       </set>
       <set comment="band 32">
        <r>  0.0000  0.0001  0.0000  0.0001  0.0293  0.0378  0.0008  0.1104  0.0575 </r>
        <r>  0.0000  0.0001  0.0000  0.0001  0.0293  0.0378  0.0008  0.1104  0.0575 </r>
        <r>  0.0031  0.0009  0.0085  0.0003  0.0000  0.0000  0.0000  0.0000  0.0000 </r>
        <r>  0.0031  0.0009  0.0085  0.0003  0.0000  0.0000  0.0000  0.0000  0.0000 </r>
        <r>  0.0017  0.0063  0.0157  0.0050  0.0000  0.0003  0.0000  0.0007  0.0000 </r>
        <r>  0.0082  0.0029  0.0479  0.0009  0.0001  0.0006  0.0000  0.0002  0.0000 </r>
        <r>  0.0017  0.0080  0.0156  0.0033  0.0000  0.0002  0.0000  0.0008  0.0001 </r>
        <r>  0.0017  0.0063  0.0157  0.0050  0.0000  0.0003  0.0000  0.0007  0.0000 </r>
        <r>  0.0082  0.0029  0.0479  0.0009  0.0001  0.0006  0.0000  0.0002  0.0000 </r>
        <r>  0.0017  0.0080  0.0156  0.0033  0.0000  0.0002  0.0000  0.0008  0.0001 </r>
       </set>
       <set comment="band 33">
        <r>  0.0005  0.0003  0.0006  0.0003  0.0281  0.1015  0.0054  0.0820  0.0195 </r>
        <r>  0.0005  0.0003  0.0006  0.0003  0.0281  0.1015  0.0054  0.0820  0.0195 </r>
        <r>  0.0000  0.0018  0.0000  0.0055  0.0000  0.0000  0.0000  0.0000  0.0000 </r>
        <r>  0.0000  0.0018  0.0000  0.0055  0.0000  0.0000  0.0000  0.0000  0.0000 </r>
        <r>  0.0046  0.0245  0.0167  0.0109  0.0005  0.0003  0.0000  0.0001  0.0001 </r>
        <r>  0.0000  0.0035  0.0000  0.0107  0.0003  0.0003  0.0000  0.0009  0.0008 </r>
        <r>  0.0046  0.0062  0.0168  0.0292  0.0000  0.0000  0.0000  0.0003  0.0006 </r>
        <r>  0.0046  0.0245  0.0167  0.0109  0.0005  0.0003  0.0000  0.0001  0.0001 </r>
        <r>  0.0000  0.0035  0.0000  0.0107  0.0003  0.0003  0.0000  0.0009  0.0008 </r>
        <r>  0.0046  0.0062  0.0168  0.0292  0.0000  0.0000  0.0000  0.0003  0.0006 </r>
       </set>
       <set comment="band 34">
        <r>  0.0000  0.0001  0.0002  0.0001  0.0681  0.0838  0.0063  0.0408  0.0229 </r>
        <r>  0.0000  0.0001  0.0002  0.0001  0.0681  0.0838  0.0063  0.0408  0.0229 </r>
        <r>  0.0049  0.0005  0.0014  0.0002  0.0000  0.0000  0.0000  0.0000  0.0000 </r>
        <r>  0.0049  0.0005  0.0014  0.0002  0.0000  0.0000  0.0000  0.0000  0.0000 </r>
        <r>  0.0033  0.0106  0.0415  0.0012  0.0000  0.0004  0.0000  0.0003  0.0002 </r>
        <r>  0.0016  0.0165  0.0116  0.0055  0.0001  0.0001  0.0000  0.0000  0.0000 </r>
        <r>  0.0033  0.0065  0.0415  0.0054  0.0002  0.0006  0.0000  0.0001  0.0000 </r>
        <r>  0.0033  0.0106  0.0415  0.0012  0.0000  0.0004  0.0000  0.0003  0.0002 </r>
        <r>  0.0016  0.0165  0.0116  0.0055  0.0001  0.0001  0.0000  0.0000  0.0000 </r>
        <r>  0.0033  0.0065  0.0415  0.0054  0.0002  0.0006  0.0000  0.0001  0.0000 </r>
       </set>
       <set comment="band 35">
        <r>  0.0007  0.0003  0.0004  0.0003  0.0095  0.0666  0.0001  0.0962  0.0136 </r>
        <r>  0.0007  0.0003  0.0004  0.0003  0.0095  0.0666  0.0001  0.0962  0.0136 </r>
        <r>  0.0000  0.0004  0.0000  0.0012  0.0000  0.0000  0.0000  0.0000  0.0000 </r>
        <r>  0.0000  0.0004  0.0000  0.0012  0.0000  0.0000  0.0000  0.0000  0.0000 </r>
        <r>  0.0013  0.0602  0.0018  0.0007  0.0006  0.0002  0.0000  0.0000  0.0002 </r>
        <r>  0.0000  0.0149  0.0000  0.0448  0.0003  0.0002  0.0000  0.0006  0.0008 </r>
        <r>  0.0013  0.0101  0.0018  0.0508  0.0000  0.0000  0.0000  0.0002  0.0008 </r>
        <r>  0.0013  0.0602  0.0018  0.0007  0.0006  0.0002  0.0000  0.0000  0.0002 </r>
        <r>  0.0000  0.0149  0.0000  0.0448  0.0003  0.0002  0.0000  0.0006  0.0008 </r>
        <r>  0.0013  0.0101  0.0018  0.0508  0.0000  0.0000  0.0000  0.0002  0.0008 </r>
       </set>
       <set comment="band 36">
        <r>  0.0000  0.0027  0.0005  0.0018  0.0009  0.0015  0.0001  0.0016  0.0026 </r>
        <r>  0.0000  0.0027  0.0005  0.0018  0.0009  0.0015  0.0001  0.0016  0.0026 </r>
        <r>  0.0752  0.0007  0.0160  0.0002  0.0000  0.0000  0.0000  0.0000  0.0000 </r>
        <r>  0.0752  0.0007  0.0160  0.0002  0.0000  0.0000  0.0000  0.0000  0.0000 </r>
        <r>  0.0075  0.0045  0.0015  0.0411  0.0003  0.0000  0.0004  0.0001  0.0041 </r>
        <r>  0.0045  0.0343  0.0046  0.0115  0.0043  0.0001  0.0002  0.0000  0.0014 </r>
        <r>  0.0075  0.0201  0.0015  0.0254  0.0041  0.0001  0.0004  0.0000  0.0004 </r>
        <r>  0.0075  0.0045  0.0015  0.0411  0.0003  0.0000  0.0004  0.0001  0.0041 </r>
        <r>  0.0045  0.0343  0.0046  0.0115  0.0043  0.0001  0.0002  0.0000  0.0014 </r>
        <r>  0.0075  0.0201  0.0015  0.0254  0.0041  0.0001  0.0004  0.0000  0.0004 </r>
       </set>
       <set comment="band 37">
        <r>  0.0003  0.0003  0.0000  0.0008  0.0116  0.0186  0.0005  0.0106  0.0069 </r>
        <r>  0.0003  0.0003  0.0000  0.0008  0.0116  0.0186  0.0005  0.0106  0.0069 </r>
        <r>  0.0427  0.0010  0.0515  0.0003  0.0000  0.0000  0.0000  0.0000  0.0000 </r>
        <r>  0.0427  0.0010  0.0515  0.0003  0.0000  0.0000  0.0000  0.0000  0.0000 </r>
        <r>  0.0018  0.0010  0.0103  0.0329  0.0003  0.0000  0.0015  0.0005  0.0037 </r>
        <r>  0.0009  0.0183  0.0036  0.0061  0.0027  0.0010  0.0005  0.0003  0.0009 </r>
        <r>  0.0018  0.0200  0.0103  0.0140  0.0037  0.0004  0.0015  0.0001  0.0003 </r>
        <r>  0.0018  0.0010  0.0103  0.0329  0.0003  0.0000  0.0015  0.0005  0.0037 </r>
        <r>  0.0009  0.0183  0.0036  0.0061  0.0027  0.0010  0.0005  0.0003  0.0009 </r>
        <r>  0.0018  0.0200  0.0103  0.0140  0.0037  0.0004  0.0015  0.0001  0.0003 </r>
       </set>
       <set comment="band 38">
        <r>  0.0429  0.0007  0.0018  0.0021  0.0008  0.0002  0.0014  0.0005  0.0004 </r>
        <r>  0.0429  0.0007  0.0018  0.0021  0.0008  0.0002  0.0014  0.0005  0.0004 </r>
        <r>  0.0008  0.0386  0.0002  0.0129  0.0000  0.0000  0.0000  0.0000  0.0000 </r>
        <r>  0.0008  0.0386  0.0002  0.0129  0.0000  0.0000  0.0000  0.0000  0.0000 </r>
        <r>  0.0018  0.0004  0.0014  0.0031  0.0063  0.0023  0.0001  0.0011  0.0011 </r>
        <r>  0.0128  0.0296  0.0016  0.0099  0.0027  0.0026  0.0005  0.0009  0.0009 </r>
        <r>  0.0018  0.0019  0.0014  0.0016  0.0030  0.0012  0.0001  0.0021  0.0044 </r>
        <r>  0.0018  0.0004  0.0014  0.0031  0.0063  0.0023  0.0001  0.0011  0.0011 </r>
        <r>  0.0128  0.0296  0.0016  0.0099  0.0027  0.0026  0.0005  0.0009  0.0009 </r>
        <r>  0.0018  0.0019  0.0014  0.0016  0.0030  0.0012  0.0001  0.0021  0.0044 </r>
       </set>
       <set comment="band 39">
        <r>  0.0331  0.0037  0.0021  0.0026  0.0031  0.0025  0.0022  0.0012  0.0012 </r>
        <r>  0.0331  0.0037  0.0021  0.0026  0.0031  0.0025  0.0022  0.0012  0.0012 </r>
        <r>  0.0000  0.0114  0.0000  0.0340  0.0000  0.0000  0.0000  0.0000  0.0000 </r>
        <r>  0.0000  0.0114  0.0000  0.0340  0.0000  0.0000  0.0000  0.0000  0.0000 </r>
        <r>  0.0070  0.0133  0.0004  0.0280  0.0020  0.0006  0.0004  0.0025  0.0023 </r>
        <r>  0.0000  0.0013  0.0000  0.0038  0.0020  0.0004  0.0000  0.0012  0.0060 </r>
        <r>  0.0070  0.0406  0.0004  0.0006  0.0017  0.0023  0.0004  0.0008  0.0027 </r>
        <r>  0.0070  0.0133  0.0004  0.0280  0.0020  0.0006  0.0004  0.0025  0.0023 </r>
        <r>  0.0000  0.0013  0.0000  0.0038  0.0020  0.0004  0.0000  0.0012  0.0060 </r>
        <r>  0.0070  0.0406  0.0004  0.0006  0.0017  0.0023  0.0004  0.0008  0.0027 </r>
       </set>
       <set comment="band 40">
        <r>  0.0270  0.0003  0.0043  0.0008  0.0024  0.0007  0.0030  0.0016  0.0045 </r>
        <r>  0.0270  0.0003  0.0043  0.0008  0.0024  0.0007  0.0030  0.0016  0.0045 </r>
        <r>  0.0007  0.0359  0.0017  0.0120  0.0000  0.0000  0.0000  0.0000  0.0000 </r>
        <r>  0.0007  0.0359  0.0017  0.0120  0.0000  0.0000  0.0000  0.0000  0.0000 </r>
        <r>  0.0014  0.0022  0.0030  0.0008  0.0107  0.0003  0.0006  0.0004  0.0016 </r>
        <r>  0.0188  0.0153  0.0040  0.0051  0.0030  0.0005  0.0012  0.0002  0.0010 </r>
        <r>  0.0014  0.0000  0.0030  0.0030  0.0056  0.0002  0.0006  0.0005  0.0066 </r>
        <r>  0.0014  0.0022  0.0030  0.0008  0.0107  0.0003  0.0006  0.0004  0.0016 </r>
        <r>  0.0188  0.0153  0.0040  0.0051  0.0030  0.0005  0.0012  0.0002  0.0010 </r>
        <r>  0.0014  0.0000  0.0030  0.0030  0.0056  0.0002  0.0006  0.0005  0.0066 </r>
       </set>
       <set comment="band 41">
        <r>  0.0180  0.0004  0.0028  0.0003  0.0026  0.0040  0.0017  0.0037  0.0041 </r>
        <r>  0.0180  0.0004  0.0028  0.0003  0.0026  0.0040  0.0017  0.0037  0.0041 </r>
        <r>  0.0000  0.0118  0.0000  0.0355  0.0000  0.0000  0.0000  0.0000  0.0000 </r>
        <r>  0.0000  0.0118  0.0000  0.0355  0.0000  0.0000  0.0000  0.0000  0.0000 </r>
        <r>  0.0087  0.0083  0.0029  0.0111  0.0035  0.0001  0.0018  0.0001  0.0039 </r>
        <r>  0.0000  0.0041  0.0000  0.0122  0.0035  0.0001  0.0000  0.0004  0.0104 </r>
        <r>  0.0087  0.0185  0.0029  0.0009  0.0021  0.0001  0.0018  0.0001  0.0053 </r>
        <r>  0.0087  0.0083  0.0029  0.0111  0.0035  0.0001  0.0018  0.0001  0.0039 </r>
        <r>  0.0000  0.0041  0.0000  0.0122  0.0035  0.0001  0.0000  0.0004  0.0104 </r>
        <r>  0.0087  0.0185  0.0029  0.0009  0.0021  0.0001  0.0018  0.0001  0.0053 </r>
       </set>
       <set comment="band 42">
        <r>  0.0001  0.0047  0.0007  0.0018  0.0042  0.0024  0.0003  0.0030  0.0042 </r>
        <r>  0.0001  0.0047  0.0007  0.0018  0.0042  0.0024  0.0003  0.0030  0.0042 </r>
        <r>  0.0377  0.0016  0.0324  0.0005  0.0000  0.0000  0.0000  0.0000  0.0000 </r>
        <r>  0.0377  0.0016  0.0324  0.0005  0.0000  0.0000  0.0000  0.0000  0.0000 </r>
        <r>  0.0003  0.0001  0.0097  0.0025  0.0002  0.0007  0.0012  0.0066  0.0006 </r>
        <r>  0.0004  0.0030  0.0253  0.0010  0.0003  0.0040  0.0010  0.0013  0.0001 </r>
        <r>  0.0003  0.0022  0.0097  0.0004  0.0004  0.0067  0.0012  0.0005  0.0005 </r>
        <r>  0.0003  0.0001  0.0097  0.0025  0.0002  0.0007  0.0012  0.0066  0.0006 </r>
        <r>  0.0004  0.0030  0.0253  0.0010  0.0003  0.0040  0.0010  0.0013  0.0001 </r>
        <r>  0.0003  0.0022  0.0097  0.0004  0.0004  0.0067  0.0012  0.0005  0.0005 </r>
       </set>
       <set comment="band 43">
        <r>  0.0098  0.0012  0.0015  0.0007  0.0013  0.0010  0.0056  0.0003  0.0035 </r>
        <r>  0.0098  0.0012  0.0015  0.0007  0.0013  0.0010  0.0056  0.0003  0.0035 </r>
        <r>  0.0027  0.0053  0.0036  0.0018  0.0000  0.0000  0.0000  0.0000  0.0000 </r>
        <r>  0.0027  0.0053  0.0036  0.0018  0.0000  0.0000  0.0000  0.0000  0.0000 </r>
        <r>  0.0001  0.0038  0.0006  0.0020  0.0009  0.0032  0.0001  0.0010  0.0008 </r>
        <r>  0.0031  0.0014  0.0047  0.0005  0.0004  0.0011  0.0074  0.0004  0.0001 </r>
        <r>  0.0001  0.0001  0.0007  0.0057  0.0007  0.0027  0.0001  0.0016  0.0010 </r>
        <r>  0.0001  0.0038  0.0006  0.0020  0.0009  0.0032  0.0001  0.0010  0.0008 </r>
        <r>  0.0031  0.0014  0.0047  0.0005  0.0004  0.0011  0.0074  0.0004  0.0001 </r>
        <r>  0.0001  0.0001  0.0007  0.0057  0.0007  0.0027  0.0001  0.0016  0.0010 </r>
       </set>
       <set comment="band 44">
        <r>  0.0190  0.0022  0.0064  0.0052  0.0013  0.0001  0.0011  0.0002  0.0011 </r>
        <r>  0.0190  0.0022  0.0064  0.0052  0.0013  0.0001  0.0011  0.0002  0.0011 </r>
        <r>  0.0015  0.0080  0.0009  0.0027  0.0000  0.0000  0.0000  0.0000  0.0000 </r>
        <r>  0.0015  0.0080  0.0009  0.0027  0.0000  0.0000  0.0000  0.0000  0.0000 </r>
        <r>  0.0006  0.0045  0.0016  0.0001  0.0025  0.0077  0.0013  0.0001  0.0001 </r>
        <r>  0.0008  0.0090  0.0130  0.0030  0.0003  0.0012  0.0024  0.0004  0.0001 </r>
        <r>  0.0006  0.0017  0.0016  0.0029  0.0011  0.0019  0.0013  0.0059  0.0015 </r>
        <r>  0.0006  0.0045  0.0016  0.0001  0.0025  0.0077  0.0013  0.0001  0.0001 </r>
        <r>  0.0008  0.0090  0.0130  0.0030  0.0003  0.0012  0.0024  0.0004  0.0001 </r>
        <r>  0.0006  0.0017  0.0016  0.0029  0.0011  0.0019  0.0013  0.0059  0.0015 </r>
       </set>
       <set comment="band 45">
        <r>  0.0098  0.0016  0.0021  0.0006  0.0018  0.0003  0.0026  0.0002  0.0023 </r>
        <r>  0.0098  0.0016  0.0021  0.0006  0.0018  0.0003  0.0026  0.0002  0.0023 </r>
        <r>  0.0000  0.0004  0.0000  0.0013  0.0000  0.0000  0.0000  0.0000  0.0000 </r>
        <r>  0.0000  0.0004  0.0000  0.0013  0.0000  0.0000  0.0000  0.0000  0.0000 </r>
        <r>  0.0030  0.0024  0.0069  0.0002  0.0002  0.0011  0.0023  0.0012  0.0001 </r>
        <r>  0.0000  0.0019  0.0000  0.0057  0.0001  0.0011  0.0000  0.0033  0.0002 </r>
        <r>  0.0030  0.0013  0.0069  0.0012  0.0000  0.0004  0.0023  0.0018  0.0002 </r>
        <r>  0.0030  0.0024  0.0069  0.0002  0.0002  0.0011  0.0023  0.0012  0.0001 </r>
        <r>  0.0000  0.0019  0.0000  0.0057  0.0001  0.0011  0.0000  0.0033  0.0002 </r>
        <r>  0.0030  0.0013  0.0069  0.0012  0.0000  0.0004  0.0023  0.0018  0.0002 </r>
       </set>
       <set comment="band 46">
        <r>  0.0006  0.0018  0.0022  0.0014  0.0001  0.0001  0.0014  0.0001  0.0000 </r>
        <r>  0.0006  0.0018  0.0022  0.0014  0.0001  0.0001  0.0014  0.0001  0.0000 </r>
        <r>  0.0000  0.0021  0.0000  0.0062  0.0000  0.0000  0.0000  0.0000  0.0000 </r>
        <r>  0.0000  0.0021  0.0000  0.0062  0.0000  0.0000  0.0000  0.0000  0.0000 </r>
        <r>  0.0005  0.0011  0.0040  0.0054  0.0005  0.0003  0.0028  0.0002  0.0008 </r>
        <r>  0.0000  0.0002  0.0000  0.0006  0.0006  0.0003  0.0000  0.0008  0.0019 </r>
        <r>  0.0005  0.0063  0.0040  0.0002  0.0003  0.0000  0.0028  0.0004  0.0010 </r>
        <r>  0.0005  0.0011  0.0040  0.0054  0.0005  0.0003  0.0028  0.0002  0.0008 </r>
        <r>  0.0000  0.0002  0.0000  0.0006  0.0006  0.0003  0.0000  0.0008  0.0019 </r>
        <r>  0.0005  0.0063  0.0040  0.0002  0.0003  0.0000  0.0028  0.0004  0.0010 </r>
       </set>
       <set comment="band 47">
        <r>  0.0237  0.0012  0.0095  0.0023  0.0003  0.0005  0.0005  0.0004  0.0008 </r>
        <r>  0.0237  0.0012  0.0095  0.0023  0.0003  0.0005  0.0005  0.0004  0.0008 </r>
        <r>  0.0011  0.0103  0.0066  0.0034  0.0000  0.0000  0.0000  0.0000  0.0000 </r>
        <r>  0.0011  0.0103  0.0066  0.0034  0.0000  0.0000  0.0000  0.0000  0.0000 </r>
        <r>  0.0003  0.0045  0.0061  0.0004  0.0014  0.0070  0.0001  0.0000  0.0007 </r>
        <r>  0.0009  0.0012  0.0124  0.0004  0.0033  0.0057  0.0021  0.0019  0.0011 </r>
        <r>  0.0003  0.0003  0.0061  0.0046  0.0006  0.0019  0.0001  0.0051  0.0015 </r>
        <r>  0.0003  0.0045  0.0061  0.0004  0.0014  0.0070  0.0001  0.0000  0.0007 </r>
        <r>  0.0009  0.0012  0.0124  0.0004  0.0033  0.0057  0.0021  0.0019  0.0011 </r>
        <r>  0.0003  0.0003  0.0061  0.0046  0.0006  0.0019  0.0001  0.0051  0.0015 </r>
       </set>
       <set comment="band 48">
        <r>  0.0010  0.0008  0.0002  0.0012  0.0001  0.0000  0.0001  0.0001  0.0001 </r>
        <r>  0.0010  0.0008  0.0002  0.0012  0.0001  0.0000  0.0001  0.0001  0.0001 </r>
        <r>  0.0011  0.0002  0.0003  0.0001  0.0000  0.0000  0.0000  0.0000  0.0000 </r>
        <r>  0.0011  0.0002  0.0003  0.0001  0.0000  0.0000  0.0000  0.0000  0.0000 </r>
        <r>  0.0003  0.0003  0.0002  0.0007  0.0001  0.0003  0.0007  0.0002  0.0002 </r>
        <r>  0.0003  0.0008  0.0004  0.0002  0.0001  0.0001  0.0002  0.0001  0.0000 </r>
        <r>  0.0003  0.0009  0.0002  0.0002  0.0001  0.0001  0.0007  0.0004  0.0002 </r>
        <r>  0.0003  0.0003  0.0002  0.0007  0.0001  0.0003  0.0007  0.0002  0.0002 </r>
        <r>  0.0003  0.0008  0.0004  0.0002  0.0001  0.0001  0.0002  0.0001  0.0000 </r>
        <r>  0.0003  0.0009  0.0002  0.0002  0.0001  0.0001  0.0007  0.0004  0.0002 </r>
       </set>
      </set>
     </set>
    </set>
   </array>
  </projected>
 </calculation>
 <structure name="finalpos" >
  <crystal>
   <varray name="basis" >
    <v>       6.15935589       0.00000027       0.00000000 </v>
    <v>       3.07967738       5.33415856      -0.00000000 </v>
    <v>       0.00000000      -0.00000000      22.08953991 </v>
   </varray>
   <i name="volume">    725.75139525 </i>
   <varray name="rec_basis" >
    <v>       0.16235464      -0.09373548      -0.00000000 </v>
    <v>      -0.00000001       0.18747100       0.00000000 </v>
    <v>      -0.00000000       0.00000000       0.04527030 </v>
   </varray>
  </crystal>
  <varray name="positions" >
   <v>       0.33333300       0.33333300       0.49995057 </v>
   <v>       0.66666700       0.66666700       0.50004943 </v>
   <v>      -0.00000000       0.00000000       0.44831928 </v>
   <v>      -0.00000000       0.00000000       0.55168072 </v>
   <v>       0.63022364       0.00011908       0.57097778 </v>
   <v>       0.00011908       0.36965828       0.57097778 </v>
   <v>       0.36965828       0.63022364       0.57097778 </v>
   <v>       0.36977636       0.99988092       0.42902222 </v>
   <v>       0.99988092       0.63034172       0.42902222 </v>
   <v>       0.63034172       0.36977636       0.42902222 </v>
  </varray>
  <varray name="selective"  type="logical" >
   <v type="logical" >  T  T  T </v>
   <v type="logical" >  T  T  T </v>
   <v type="logical" >  T  T  T </v>
   <v type="logical" >  T  T  T </v>
   <v type="logical" >  T  T  T </v>
   <v type="logical" >  T  T  T </v>
   <v type="logical" >  T  T  T </v>
   <v type="logical" >  T  T  T </v>
   <v type="logical" >  T  T  T </v>
   <v type="logical" >  T  T  T </v>
  </varray>
  <nose>
   <v>      -3.00000000       0.00000000       0.00010000       0.00010000 </v>
  </nose>
 </structure>
</modeling>
