unknown system                          
           1
     6.907777   -0.000000    0.000000
     3.453888    5.982310    0.000000
     0.000000    0.000000   23.444588
   Ni   Si   Se
   2   2   6
Direct configuration=     1
   0.33333300  0.33333300  0.49992500
   0.66666700  0.66666700  0.50007500
   0.00000000  0.00000000  0.44821600
   0.00000000  0.00000000  0.55178400
   0.62635700  0.00042000  0.57375200
   0.00042000  0.37322400  0.57375200
   0.37322400  0.62635700  0.57375200
   0.37364300  0.99958000  0.42624800
   0.99958000  0.62677600  0.42624800
   0.62677600  0.37364300  0.42624800
unknown system                          
           1
     6.087429    0.000000    0.000000
     3.043714    5.271868    0.000000
     0.000000    0.000000   21.891313
   Ni   Si   Se
   2   2   6
Direct configuration=     2
   0.33333300  0.33333300  0.49994063
   0.66666700  0.66666700  0.50005937
  -0.00000000 -0.00000000  0.44850554
  -0.00000000  0.00000000  0.55149446
   0.63313670  0.00037606  0.57106258
   0.00037606  0.36648825  0.57106258
   0.36648825  0.63313670  0.57106258
   0.36686330  0.99962394  0.42893742
   0.99962394  0.63351175  0.42893742
   0.63351175  0.36686330  0.42893742
unknown system                          
           1
     6.160527    0.000000    0.000000
     3.080263    5.335173    0.000000
     0.000000    0.000000   22.029720
   Ni   Si   Se
   2   2   6
Direct configuration=     3
   0.33333300  0.33333300  0.49993913
   0.66666700  0.66666700  0.50006087
   0.00000000 -0.00000000  0.44847791
  -0.00000000  0.00000000  0.55152209
   0.63245117  0.00038050  0.57131923
   0.00038050  0.36716933  0.57131923
   0.36716933  0.63245117  0.57131923
   0.36754883  0.99961950  0.42868077
   0.99961950  0.63283067  0.42868077
   0.63283067  0.36754883  0.42868077
unknown system                          
           1
     6.175235    0.000000    0.000000
     3.087617    5.347911    0.000000
     0.000000    0.000000   22.057568
   Ni   Si   Se
   2   2   6
Direct configuration=     4
   0.33333300  0.33333300  0.49993884
   0.66666700  0.66666700  0.50006116
   0.00000000 -0.00000000  0.44847238
  -0.00000000  0.00000000  0.55152762
   0.63231487  0.00038138  0.57137054
   0.00038138  0.36730474  0.57137054
   0.36730474  0.63231487  0.57137054
   0.36768513  0.99961862  0.42862946
   0.99961862  0.63269526  0.42862946
   0.63269526  0.36768513  0.42862946
unknown system                          
           1
     6.172218    0.000000    0.000000
     3.086108    5.345297    0.000000
     0.000000   -0.000000   22.079205
   Ni   Si   Se
   2   2   6
Direct configuration=     5
   0.33333300  0.33333300  0.49993696
   0.66666700  0.66666700  0.50006304
  -0.00000000  0.00000000  0.44828316
  -0.00000000  0.00000000  0.55171684
   0.63165811  0.00030541  0.57125601
   0.00030541  0.36803747  0.57125601
   0.36803747  0.63165811  0.57125601
   0.36834189  0.99969459  0.42874399
   0.99969459  0.63196253  0.42874399
   0.63196253  0.36834189  0.42874399
unknown system                          
           1
     6.167968    0.000000    0.000000
     3.083983    5.341617   -0.000000
     0.000000   -0.000000   22.109680
   Ni   Si   Se
   2   2   6
Direct configuration=     6
   0.33333300  0.33333300  0.49993432
   0.66666700  0.66666700  0.50006568
  -0.00000000  0.00000000  0.44801691
  -0.00000000  0.00000000  0.55198309
   0.63073266  0.00019837  0.57109485
   0.00019837  0.36906997  0.57109485
   0.36906997  0.63073266  0.57109485
   0.36926734  0.99980163  0.42890515
   0.99980163  0.63093003  0.42890515
   0.63093003  0.36926734  0.42890515
unknown system                          
           1
     6.160851    0.000000    0.000000
     3.080425    5.335453   -0.000000
     0.000000   -0.000000   22.109646
   Ni   Si   Se
   2   2   6
Direct configuration=     7
   0.33333300  0.33333300  0.49993760
   0.66666700  0.66666700  0.50006240
  -0.00000000  0.00000000  0.44804070
  -0.00000000  0.00000000  0.55195930
   0.63030974  0.00014162  0.57100670
   0.00014162  0.36954964  0.57100670
   0.36954964  0.63030974  0.57100670
   0.36969026  0.99985838  0.42899330
   0.99985838  0.63045036  0.42899330
   0.63045036  0.36969026  0.42899330
unknown system                          
           1
     6.158128    0.000000    0.000000
     3.079063    5.333095   -0.000000
     0.000000   -0.000000   22.109633
   Ni   Si   Se
   2   2   6
Direct configuration=     8
   0.33333300  0.33333300  0.49993885
   0.66666700  0.66666700  0.50006115
  -0.00000000  0.00000000  0.44804980
  -0.00000000  0.00000000  0.55195020
   0.63014771  0.00011988  0.57097297
   0.00011988  0.36973341  0.57097297
   0.36973341  0.63014771  0.57097297
   0.36985229  0.99988012  0.42902703
   0.99988012  0.63026659  0.42902703
   0.63026659  0.36985229  0.42902703
unknown system                          
           1
     6.158740    0.000000    0.000000
     3.079369    5.333625   -0.000000
     0.000000   -0.000000   22.099616
   Ni   Si   Se
   2   2   6
Direct configuration=     9
   0.33333300  0.33333300  0.49994469
   0.66666700  0.66666700  0.50005531
  -0.00000000  0.00000000  0.44818412
  -0.00000000  0.00000000  0.55181588
   0.63018557  0.00011948  0.57097537
   0.00011948  0.36969595  0.57097537
   0.36969595  0.63018557  0.57097537
   0.36981443  0.99988052  0.42902463
   0.99988052  0.63030405  0.42902463
   0.63030405  0.36981443  0.42902463
unknown system                          
           1
     6.159356    0.000000    0.000000
     3.079677    5.334159   -0.000000
     0.000000   -0.000000   22.089540
   Ni   Si   Se
   2   2   6
Direct configuration=    10
   0.33333300  0.33333300  0.49995057
   0.66666700  0.66666700  0.50004943
  -0.00000000  0.00000000  0.44831928
  -0.00000000  0.00000000  0.55168072
   0.63022364  0.00011908  0.57097778
   0.00011908  0.36965828  0.57097778
   0.36965828  0.63022364  0.57097778
   0.36977636  0.99988092  0.42902222
   0.99988092  0.63034172  0.42902222
   0.63034172  0.36977636  0.42902222
