 vasp.5.4.4.18Apr17-6-g9f103f2a35 (build May  1 2020 15:48:39) complex           
 executed on             LinuxGNU date 2020.07.05  21:10:38
 running on   16 total cores
 distrk:  each k-point on   16 cores,    1 groups
 distr:  one band on NCORES_PER_BAND=   1 cores,   16 groups


--------------------------------------------------------------------------------------------------------


 INCAR:
 POTCAR:   PAW_PBE Fe 06Sep2000                   
 POTCAR:   PAW_PBE Ge 05Jan2001                   
 POTCAR:    PAW_PBE P 17Jan2003                   
 POTCAR:   PAW_PBE Se 06Sep2000                   

 ----------------------------------------------------------------------------- 
|                                                                             |
|           W    W    AA    RRRRR   N    N  II  N    N   GGGG   !!!           |
|           W    W   A  A   R    R  NN   N  II  NN   N  G    G  !!!           |
|           W    W  A    A  R    R  N N  N  II  N N  N  G       !!!           |
|           W WW W  AAAAAA  RRRRR   N  N N  II  N  N N  G  GGG   !            |
|           WW  WW  A    A  R   R   N   NN  II  N   NN  G    G                |
|           W    W  A    A  R    R  N    N  II  N    N   GGGG   !!!           |
|                                                                             |
|      For optimal performance we recommend to set                            |
|        NCORE= 4 - approx SQRT( number of cores)                             |
|      NCORE specifies how many cores store one orbital (NPAR=cpu/NCORE).     |
|      This setting can  greatly improve the performance of VASP for DFT.     |
|      The default,   NCORE=1            might be grossly inefficient         |
|      on modern multi-core architectures or massively parallel machines.     |
|      Do your own testing !!!!                                               |
|      Unfortunately you need to use the default for GW and RPA calculations. |
|      (for HF NCORE is supported but not extensively tested yet)             |
|                                                                             |
 ----------------------------------------------------------------------------- 


 ----------------------------------------------------------------------------- 
|                                                                             |
|  ADVICE TO THIS USER RUNNING 'VASP/VAMP'   (HEAR YOUR MASTER'S VOICE ...):  |
|                                                                             |
|      You have switched on vdW-DFT.                                          |
|      This routine was written and supplied by Jiri Klimes.                  |
|      We recommed that you carefully read and cite the following             |
|      publication                                                            |
|      J. Klimes, D.R. Bowler, A. Michelides                                  |
|        J. Phys.: Cond Matt. 22 022201 (2010)                                |
|      J. Klimes, D.R. Bowler, A. Michelides                                  |
|        Phys. Rev. B. 83, 195131 (2011)                                      |
|      and references therein.                                                |
|                                                                             |
 ----------------------------------------------------------------------------- 

 POTCAR:   PAW_PBE Fe 06Sep2000                   
   VRHFIN =Fe:  d7 s1                                                           
   LEXCH  = PE                                                                  
   EATOM  =   594.4687 eV,   43.6922 Ry                                         
                                                                                
   TITEL  = PAW_PBE Fe 06Sep2000                                                
   LULTRA =        F    use ultrasoft PP ?                                      
   IUNSCR =        1    unscreen: 0-lin 1-nonlin 2-no                           
   RPACOR =    2.000    partial core radius                                     
   POMASS =   55.847; ZVAL   =    8.000    mass and valenz                      
   RCORE  =    2.300    outmost cutoff radius                                   
   RWIGS  =    2.460; RWIGS  =    1.302    wigner-seitz radius (au A)           
   ENMAX  =  267.883; ENMIN  =  200.912 eV                                      
   RCLOC  =    1.701    cutoff for local pot                                    
   LCOR   =        T    correct aug charges                                     
   LPAW   =        T    paw PP                                                  
   EAUG   =  511.368                                                            
   DEXC   =    -.022                                                            
   RMAX   =    2.817    core radius for proj-oper                               
   RAUG   =    1.300    factor for augmentation sphere                          
   RDEP   =    2.442    radius for radial grids                                 
   QCUT   =   -4.437; QGAM   =    8.874    optimization parameters              
                                                                                
   Description                                                                  
     l     E      TYP  RCUT    TYP  RCUT                                        
     2   .000     23  2.300                                                     
     2   .000     23  2.300                                                     
     0   .000     23  2.300                                                     
     0   .000     23  2.300                                                     
     1  -.200     23  2.300                                                     
     1   .000     23  2.300                                                     
     3   .000      7   .000                                                     
  local pseudopotential read in
  partial core-charges read in
  atomic valenz-charges read in
  non local Contribution for L=           2  read in
    real space projection operators read in
  non local Contribution for L=           2  read in
    real space projection operators read in
  non local Contribution for L=           0  read in
    real space projection operators read in
  non local Contribution for L=           0  read in
    real space projection operators read in
  non local Contribution for L=           1  read in
    real space projection operators read in
  non local Contribution for L=           1  read in
    real space projection operators read in
    PAW grid and wavefunctions read in

   number of l-projection  operators is LMAX  =           6
   number of lm-projection operators is LMMAX =          18

 POTCAR:   PAW_PBE Ge 05Jan2001                   
   VRHFIN =Ge: s2p2                                                             
   LEXCH  = PE                                                                  
   EATOM  =   104.9960 eV,    7.7170 Ry                                         
                                                                                
   TITEL  = PAW_PBE Ge 05Jan2001                                                
   LULTRA =        F    use ultrasoft PP ?                                      
   IUNSCR =        1    unscreen: 0-lin 1-nonlin 2-no                           
   RPACOR =    2.170    partial core radius                                     
   POMASS =   72.610; ZVAL   =    4.000    mass and valenz                      
   RCORE  =    2.300    outmost cutoff radius                                   
   RWIGS  =    2.300; RWIGS  =    1.217    wigner-seitz radius (au A)           
   ENMAX  =  173.807; ENMIN  =  130.355 eV                                      
   ICORE  =        3    local potential                                         
   LCOR   =        T    correct aug charges                                     
   LPAW   =        T    paw PP                                                  
   EAUG   =  385.843                                                            
   DEXC   =    -.138                                                            
   RMAX   =    3.497    core radius for proj-oper                               
   RAUG   =    1.300    factor for augmentation sphere                          
   RDEP   =    2.318    radius for radial grids                                 
   QCUT   =   -3.574; QGAM   =    7.148    optimization parameters              
                                                                                
   Description                                                                  
     l     E      TYP  RCUT    TYP  RCUT                                        
     0   .000     23  2.300                                                     
     0   .000     23  2.300                                                     
     1   .000     23  2.300                                                     
     1   .000     23  2.300                                                     
     2   .000     23  2.300                                                     
     3  -.100      7  2.300                                                     
  local pseudopotential read in
  partial core-charges read in
  atomic valenz-charges read in
  non local Contribution for L=           0  read in
    real space projection operators read in
  non local Contribution for L=           0  read in
    real space projection operators read in
  non local Contribution for L=           1  read in
    real space projection operators read in
  non local Contribution for L=           1  read in
    real space projection operators read in
  non local Contribution for L=           2  read in
    real space projection operators read in
    PAW grid and wavefunctions read in

   number of l-projection  operators is LMAX  =           5
   number of lm-projection operators is LMMAX =          13

 POTCAR:    PAW_PBE P 17Jan2003                   
   VRHFIN =P : s2p3                                                             
   LEXCH  = PE                                                                  
   EATOM  =   176.0430 eV,   12.9388 Ry                                         
                                                                                
   TITEL  = PAW_PBE P 17Jan2003                                                 
   LULTRA =        F    use ultrasoft PP ?                                      
   IUNSCR =        1    unscreen: 0-lin 1-nonlin 2-no                           
   RPACOR =    1.500    partial core radius                                     
   POMASS =   30.974; ZVAL   =    5.000    mass and valenz                      
   RCORE  =    1.900    outmost cutoff radius                                   
   RWIGS  =    2.330; RWIGS  =    1.233    wigner-seitz radius (au A)           
   ENMAX  =  270.000; ENMIN  =  191.280 eV                                      
   ICORE  =        2    local potential                                         
   LCOR   =        T    correct aug charges                                     
   LPAW   =        T    paw PP                                                  
   EAUG   =  342.924                                                            
   DEXC   =    -.002                                                            
   RMAX   =    2.887    core radius for proj-oper                               
   RAUG   =    1.300    factor for augmentation sphere                          
   RDEP   =    1.931    radius for radial grids                                 
   QCUT   =   -4.330; QGAM   =    8.659    optimization parameters              
                                                                                
   Description                                                                  
     l     E      TYP  RCUT    TYP  RCUT                                        
     0   .000     23  1.900                                                     
     0   .000     23  1.900                                                     
     1   .000     23  1.900                                                     
     1   .000     23  1.900                                                     
     2   .000     23  1.900                                                     
  local pseudopotential read in
  partial core-charges read in
  atomic valenz-charges read in
  non local Contribution for L=           0  read in
    real space projection operators read in
  non local Contribution for L=           0  read in
    real space projection operators read in
  non local Contribution for L=           1  read in
    real space projection operators read in
  non local Contribution for L=           1  read in
    real space projection operators read in
    PAW grid and wavefunctions read in

   number of l-projection  operators is LMAX  =           4
   number of lm-projection operators is LMMAX =           8

 POTCAR:   PAW_PBE Se 06Sep2000                   
   VRHFIN =Se: s2p4                                                             
   LEXCH  = PE                                                                  
   EATOM  =   256.9644 eV,   18.8864 Ry                                         
                                                                                
   TITEL  = PAW_PBE Se 06Sep2000                                                
   LULTRA =        F    use ultrasoft PP ?                                      
   IUNSCR =        1    unscreen: 0-lin 1-nonlin 2-no                           
   RPACOR =    1.900    partial core radius                                     
   POMASS =   78.960; ZVAL   =    6.000    mass and valenz                      
   RCORE  =    2.100    outmost cutoff radius                                   
   RWIGS  =    2.200; RWIGS  =    1.164    wigner-seitz radius (au A)           
   ENMAX  =  211.534; ENMIN  =  158.651 eV                                      
   ICORE  =        3    local potential                                         
   LCOR   =        T    correct aug charges                                     
   LPAW   =        T    paw PP                                                  
   EAUG   =  446.842                                                            
   DEXC   =    -.031                                                            
   RMAX   =    3.170    core radius for proj-oper                               
   RAUG   =    1.300    factor for augmentation sphere                          
   RDEP   =    2.177    radius for radial grids                                 
   QCUT   =   -3.943; QGAM   =    7.886    optimization parameters              
                                                                                
   Description                                                                  
     l     E      TYP  RCUT    TYP  RCUT                                        
     0   .000     23  2.100                                                     
     0   .000     23  2.100                                                     
     1   .000     23  2.100                                                     
     1   .000     23  2.100                                                     
     2   .000     23  2.100                                                     
     3  -.100      7  2.100                                                     
  local pseudopotential read in
  partial core-charges read in
  atomic valenz-charges read in
  non local Contribution for L=           0  read in
    real space projection operators read in
  non local Contribution for L=           0  read in
    real space projection operators read in
  non local Contribution for L=           1  read in
    real space projection operators read in
  non local Contribution for L=           1  read in
    real space projection operators read in
  non local Contribution for L=           2  read in
    real space projection operators read in
    PAW grid and wavefunctions read in

   number of l-projection  operators is LMAX  =           5
   number of lm-projection operators is LMMAX =          13

 Optimization of the real space projectors (new method)

 maximal supplied QI-value         = 16.25
 optimisation between [QCUT,QGAM] = [ 11.54, 23.24] = [ 37.28,151.24] Ry 
 Optimized for a Real-space Cutoff    1.53 Angstroem

   l    n(q)    QCUT    max X(q) W(low)/X(q) W(high)/X(q)  e(spline) 
   2     10    11.539     4.378    0.86E-05    0.15E-04    0.46E-07
   2     10    11.539    23.237    0.11E-03    0.14E-03    0.22E-06
   0     11    11.539    17.641    0.19E-04    0.14E-05    0.18E-07
   0     11    11.539    50.908    0.43E-04    0.16E-04    0.30E-06
   1     10    11.539     6.148    0.11E-04    0.38E-05    0.26E-07
   1     10    11.539     8.345    0.44E-04    0.25E-04    0.11E-06
 Optimization of the real space projectors (new method)

 maximal supplied QI-value         = 16.25
 optimisation between [QCUT,QGAM] = [ 11.54, 23.24] = [ 37.28,151.24] Ry 
 Optimized for a Real-space Cutoff    1.28 Angstroem

   l    n(q)    QCUT    max X(q) W(low)/X(q) W(high)/X(q)  e(spline) 
   0      9    11.539     8.651    0.22E-04    0.16E-04    0.10E-07
   0      9    11.539    33.192    0.11E-03    0.16E-03    0.65E-07
   1      8    11.539     5.899    0.37E-04    0.28E-04    0.43E-07
   1      8    11.539    27.289    0.22E-03    0.28E-04    0.14E-06
   2      8    11.539     4.673    0.11E-03    0.18E-03    0.58E-07
 Optimization of the real space projectors (new method)

 maximal supplied QI-value         = 19.84
 optimisation between [QCUT,QGAM] = [ 11.51, 23.22] = [ 37.09,150.92] Ry 
 Optimized for a Real-space Cutoff    1.21 Angstroem

   l    n(q)    QCUT    max X(q) W(low)/X(q) W(high)/X(q)  e(spline) 
   0      8    11.508     6.651    0.19E-04    0.31E-05    0.49E-08
   0      8    11.508    90.285    0.95E-04    0.17E-03    0.51E-07
   1      8    11.508     4.328    0.14E-04    0.32E-04    0.22E-07
   1      8    11.508    54.583    0.16E-03    0.71E-04    0.89E-07
 Optimization of the real space projectors (new method)

 maximal supplied QI-value         = 17.95
 optimisation between [QCUT,QGAM] = [ 11.67, 23.34] = [ 38.13,152.52] Ry 
 Optimized for a Real-space Cutoff    1.25 Angstroem

   l    n(q)    QCUT    max X(q) W(low)/X(q) W(high)/X(q)  e(spline) 
   0      9    11.669     6.499    0.13E-04    0.81E-05    0.11E-07
   0      9    11.669    52.623    0.18E-03    0.46E-04    0.72E-07
   1      8    11.669     4.229    0.40E-04    0.45E-04    0.31E-07
   1      8    11.669    29.991    0.22E-03    0.36E-03    0.10E-06
   2      8    11.669     3.719    0.19E-03    0.46E-04    0.50E-07

 ----------------------------------------------------------------------------- 
|                                                                             |
|  ADVICE TO THIS USER RUNNING 'VASP/VAMP'   (HEAR YOUR MASTER'S VOICE ...):  |
|                                                                             |
|      You enforced a specific xc-type in the INCAR file,                     |
|      a different type was found on the POTCAR file                          |
|          I HOPE YOU KNOW, WHAT YOU ARE  DOING                               |
|                                                                             |
 ----------------------------------------------------------------------------- 

 PAW_PBE Fe 06Sep2000                   :
 energy of atom  1       EATOM= -594.4687
 kinetic energy error for atom=    0.0026 (will be added to EATOM!!)
 PAW_PBE Ge 05Jan2001                   :
 energy of atom  2       EATOM= -104.9960
 kinetic energy error for atom=    0.0002 (will be added to EATOM!!)
  PAW_PBE P 17Jan2003                   :
 energy of atom  3       EATOM= -176.0430
 kinetic energy error for atom=    0.0011 (will be added to EATOM!!)
 PAW_PBE Se 06Sep2000                   :
 energy of atom  4       EATOM= -256.9644
 kinetic energy error for atom=    0.0007 (will be added to EATOM!!)


 POSCAR: Fe2 Ge P Se6                            
  positions in direct lattice
  velocities in cartesian coordinates
  No initial velocities read in
 exchange correlation table for  LEXCH =       42
   RHO(1)=    0.500       N(1)  =     2000
   RHO(2)=  100.500       N(2)  =     4000



--------------------------------------------------------------------------------------------------------


 ion  position               nearest neighbor table
   1  0.333  0.333  0.500-   6 2.78   5 2.78   7 2.78   8 2.78  10 2.78   9 2.78
   2  0.667  0.667  0.500-   9 2.78   8 2.78  10 2.78   5 2.78   7 2.78   6 2.78
   3  0.000  0.000  0.448-   4 2.43   8 2.63  10 2.63   9 2.63
   4  0.000  0.000  0.552-   3 2.43   5 2.63   7 2.63   6 2.63
   5  0.626  0.000  0.574-   4 2.63   1 2.78   2 2.78
   6  0.000  0.373  0.574-   4 2.63   1 2.78   2 2.78
   7  0.373  0.626  0.574-   4 2.63   1 2.78   2 2.78
   8  0.374  1.000  0.426-   3 2.63   2 2.78   1 2.78
   9  1.000  0.627  0.426-   3 2.63   2 2.78   1 2.78
  10  0.627  0.374  0.426-   3 2.63   2 2.78   1 2.78

  LATTYP: Found a hexagonal cell.
 ALAT       =     6.9077769333
 C/A-ratio  =     3.3939410937
  
  Lattice vectors:
  
 A1 = (   3.4538890000,  -5.9823100000,   0.0000000000)
 A2 = (  -6.9077770000,   0.0000000000,   0.0000000000)
 A3 = (   0.0000000000,   0.0000000000, -23.4445880000)


Analysis of symmetry for initial positions (statically):
=====================================================================
 Subroutine PRICEL returns:
 Original cell was already a primitive cell.
 

 Routine SETGRP: Setting up the symmetry group for a 
 hexagonal supercell.


 Subroutine GETGRP returns: Found  3 space group operations
 (whereof  3 operations were pure point group operations)
 out of a pool of 24 trial point group operations.


The static configuration has the point symmetry C_3 .


Analysis of symmetry for dynamics (positions and initial velocities):
=====================================================================
 Subroutine PRICEL returns:
 Original cell was already a primitive cell.
 

 Routine SETGRP: Setting up the symmetry group for a 
 hexagonal supercell.


 Subroutine GETGRP returns: Found  3 space group operations
 (whereof  3 operations were pure point group operations)
 out of a pool of 24 trial point group operations.


The dynamic configuration has the point symmetry C_3 .


Analysis of constrained symmetry for selective dynamics:
=====================================================================
 Subroutine PRICEL returns:
 Original cell was already a primitive cell.
 

 Routine SETGRP: Setting up the symmetry group for a 
 hexagonal supercell.


 Subroutine GETGRP returns: Found  3 space group operations
 (whereof  3 operations were pure point group operations)
 out of a pool of 24 trial point group operations.


The constrained configuration has the point symmetry C_3 .


Analysis of structural, dynamic, and magnetic symmetry:
=====================================================================
 Subroutine PRICEL returns:
 Original cell was already a primitive cell.
 

 Routine SETGRP: Setting up the symmetry group for a 
 hexagonal supercell.


 Subroutine GETGRP returns: Found  3 space group operations
 (whereof  3 operations were pure point group operations)
 out of a pool of 24 trial point group operations.


The magnetic configuration has the point symmetry C_3 .


 Subroutine INISYM returns: Found  3 space group operations
 (whereof  3 operations are pure point group operations),
 and found     1 'primitive' translations



 KPOINTS: Kpoints from vasprun.xml                

Automatic generation of k-mesh.
Space group operators:
 irot       det(A)        alpha          n_x          n_y          n_z        tau_x        tau_y        tau_z
    1     1.000000     0.000000     1.000000     0.000000     0.000000     0.000000     0.000000     0.000000
    2     1.000000   120.000000     0.000000     0.000000     1.000000     0.000000     0.000000     0.000000
    3     1.000000   120.000000     0.000000     0.000000    -1.000000     0.000000     0.000000     0.000000
 
 Subroutine IBZKPT returns following result:
 ===========================================
 
 Found      5 irreducible k-points:
 
 Following reciprocal coordinates:
            Coordinates               Weight
  0.000000  0.000000  0.000000      1.000000
  0.200000  0.000000  0.000000      6.000000
  0.400000  0.000000  0.000000      6.000000
  0.400000  0.200000  0.000000      6.000000
 -0.400000  0.200000  0.000000      6.000000
 
 Following cartesian coordinates:
            Coordinates               Weight
  0.000000  0.000000  0.000000      1.000000
  0.028953 -0.016716  0.000000      6.000000
  0.057906 -0.033432  0.000000      6.000000
  0.057906  0.000000  0.000000      6.000000
 -0.057906  0.066864  0.000000      6.000000
 
 TETIRR: Found     15 inequivalent tetrahedra from      150


--------------------------------------------------------------------------------------------------------




 Dimension of arrays:
   k-points           NKPTS =      5   k-points in BZ     NKDIM =      5   number of bands    NBANDS=     48
   number of dos      NEDOS =    301   number of ions     NIONS =     10
   non local maximal  LDIM  =      6   non local SUM 2l+1 LMDIM =     18
   total plane-waves  NPLWV = 524880
   max r-space proj   IRMAX =   8238   max aug-charges    IRDMAX=  29641
   dimension x,y,z NGX =    54 NGY =   54 NGZ =  180
   dimension x,y,z NGXF=   108 NGYF=  108 NGZF=  360
   support grid    NGXF=   108 NGYF=  108 NGZF=  360
   ions per type =               2   1   1   6
   NGX,Y,Z   is equivalent  to a cutoff of  13.00, 13.00, 12.76 a.u.
   NGXF,Y,Z  is equivalent  to a cutoff of  25.99, 25.99, 25.53 a.u.

 SYSTEM =  unknown system                          
 POSCAR =  Fe2 Ge P Se6                            

 Startparameter for this run:
   NWRITE =      2    write-flag & timer
   PREC   = accura    normal or accurate (medium, high low for compatibility)
   ISTART =      0    job   : 0-new  1-cont  2-samecut
   ICHARG =      2    charge: 1-file 2-atom 10-const
   ISPIN  =      2    spin polarized calculation?
   LNONCOLLINEAR =      F non collinear calculations
   LSORBIT =      F    spin-orbit coupling
   INIWAV =      1    electr: 0-lowe 1-rand  2-diag
   LASPH  =      F    aspherical Exc in radial PAW
   METAGGA=      F    non-selfconsistent MetaGGA calc.

 Electronic Relaxation 1
   ENCUT  =  520.0 eV  38.22 Ry    6.18 a.u.  12.84 12.84 43.59*2*pi/ulx,y,z
   ENINI  =  520.0     initial cutoff
   ENAUG  =  511.4 eV  augmentation charge cutoff
   NELM   =    400;   NELMIN=  2; NELMDL=  0     # of ELM steps 
   EDIFF  = 0.1E-03   stopping-criterion for ELM
   LREAL  =      T    real-space projection
   NLSPLINE    = F    spline interpolate recip. space projectors
   LCOMPAT=      F    compatible to vasp.4.4
   GGA_COMPAT  = T    GGA compatible to vasp.4.4-vasp.4.6
   LMAXPAW     = -100 max onsite density
   LMAXMIX     =    2 max onsite mixed and CHGCAR
   VOSKOWN=      0    Vosko Wilk Nusair interpolation
   ROPT   =   -0.00025  -0.00025  -0.00025  -0.00025
 Ionic relaxation
   EDIFFG = 0.1E-02   stopping-criterion for IOM
   NSW    =     99    number of steps for IOM
   NBLOCK =      1;   KBLOCK =     99    inner block; outer block 
   IBRION =      2    ionic relax: 0-MD 1-quasi-New 2-CG
   NFREE  =      1    steps in history (QN), initial steepest desc. (CG)
   ISIF   =      3    stress and relaxation
   IWAVPR =     11    prediction:  0-non 1-charg 2-wave 3-comb
   ISYM   =      2    0-nonsym 1-usesym 2-fastsym
   LCORR  =      T    Harris-Foulkes like correction to forces

   POTIM  = 0.5000    time-step for ionic-motion
   TEIN   =    0.0    initial temperature
   TEBEG  =    0.0;   TEEND  =   0.0 temperature during run
   SMASS  =  -3.00    Nose mass-parameter (am)
   estimated Nose-frequenzy (Omega)   =  0.10E-29 period in steps =****** mass=  -0.109E-26a.u.
   SCALEE = 1.0000    scale energy and forces
   NPACO  =    256;   APACO  = 16.0  distance and # of slots for P.C.
   PSTRESS=    0.0 pullay stress

  Mass of Ions in am
   POMASS =  55.85 72.61 30.97 78.96
  Ionic Valenz
   ZVAL   =   8.00  4.00  5.00  6.00
  Atomic Wigner-Seitz radii
   RWIGS  =  -1.00 -1.00 -1.00 -1.00
  virtual crystal weights 
   VCA    =   1.00  1.00  1.00  1.00
   NELECT =      61.0000    total number of electrons
   NUPDOWN=      -1.0000    fix difference up-down

 DOS related values:
   EMIN   =  10.00;   EMAX   =-10.00  energy-range for DOS
   EFERMI =   0.00
   ISMEAR =    -5;   SIGMA  =   0.05  broadening in eV -4-tet -1-fermi 0-gaus

 Electronic relaxation 2 (details)
   IALGO  =     38    algorithm
   LDIAG  =      T    sub-space diagonalisation (order eigenvalues)
   LSUBROT=      F    optimize rotation matrix (better conditioning)
   TURBO    =      0    0=normal 1=particle mesh
   IRESTART =      0    0=no restart 2=restart with 2 vectors
   NREBOOT  =      0    no. of reboots
   NMIN     =      0    reboot dimension
   EREF     =   0.00    reference energy to select bands
   IMIX   =      4    mixing-type and parameters
     AMIX     =   0.40;   BMIX     =  1.00
     AMIX_MAG =   1.60;   BMIX_MAG =  1.00
     AMIN     =   0.01
     WC   =   100.;   INIMIX=   1;  MIXPRE=   1;  MAXMIX= -45

 Intra band minimization:
   WEIMIN = 0.0010     energy-eigenvalue tresh-hold
   EBREAK =  0.52E-06  absolut break condition
   DEPER  =   0.30     relativ break condition  

   TIME   =   0.40     timestep for ELM

  volume/ion in A,a.u.               =      96.88       653.80
  Fermi-wavevector in a.u.,A,eV,Ry     =   0.651281  1.230742  5.771135  0.424166
  Thomas-Fermi vector in A             =   1.720830

 Write flags
   LWAVE        =      F    write WAVECAR
   LDOWNSAMPLE  =      F    k-point downsampling of WAVECAR
   LCHARG       =      T    write CHGCAR
   LVTOT        =      F    write LOCPOT, total local potential
   LVHAR        =      F    write LOCPOT, Hartree potential only
   LELF         =      F    write electronic localiz. function (ELF)
   LORBIT       =     11    0 simple, 1 ext, 2 COOP (PROOUT), +10 PAW based schemes


 Dipole corrections
   LMONO  =      F    monopole corrections only (constant potential shift)
   LDIPOL =      F    correct potential (dipole corrections)
   IDIPOL =      0    1-x, 2-y, 3-z, 4-all directions 
   EPSILON=  1.0000000 bulk dielectric constant

 Exchange correlation treatment:
   GGA     =    BO    GGA type
   LEXCH   =    42    internal setting for exchange type
   VOSKOWN=      0    Vosko Wilk Nusair interpolation
   LHFCALC =     F    Hartree Fock is set to
   LHFONE  =     F    Hartree Fock one center treatment
   AEXX    =    0.0000 exact exchange contribution

 vdW DFT:
   LUSE_VDW   =     T    switch on vdW DFT
   Zab_VDW    =-.8491    correlation parameter
   PARAM1     =0.1833
   PARAM2     =0.2200
   PARAM3     =0.0000
   -- rVV10 --
   BPARAM     = 6.3000
   CPARAM     = 0.0093

 Linear response parameters
   LEPSILON=     F    determine dielectric tensor
   LRPA    =     F    only Hartree local field effects (RPA)
   LNABLA  =     F    use nabla operator in PAW spheres
   LVEL    =     F    velocity operator in full k-point grid
   LINTERFAST=   F  fast interpolation
   KINTER  =     0    interpolate to denser k-point grid
   CSHIFT  =0.1000    complex shift for real part using Kramers Kronig
   OMEGAMAX=  -1.0    maximum frequency
   DEG_THRESHOLD= 0.2000000E-02 threshold for treating states as degnerate
   RTIME   =   -0.100 relaxation time in fs
  (WPLASMAI=    0.000 imaginary part of plasma frequency in eV, 0.658/RTIME)
   DFIELD  = 0.0000000 0.0000000 0.0000000 field for delta impulse in time

 Orbital magnetization related:
   ORBITALMAG=     F  switch on orbital magnetization
   LCHIMAG   =     F  perturbation theory with respect to B field
   DQ        =  0.001000  dq finite difference perturbation B field
   LLRAUG    =     F  two centre corrections for induced B field



--------------------------------------------------------------------------------------------------------


 conjugate gradient relaxation of ions
   using selective dynamics as specified on POSCAR
 charge density and potential will be updated during run
 spin polarized calculation
 Variant of blocked Davidson
 Davidson routine will perform the subspace rotation
 perform sub-space diagonalisation
    after iterative eigenvector-optimisation
 modified Broyden-mixing scheme, WC =      100.0
 initial mixing is a Kerker type mixing with AMIX =  0.4000 and BMIX =      1.0000
 Hartree-type preconditioning will be used
 using additional bands           17
 real space projection scheme for non local part
 use partial core corrections
 calculate Harris-corrections to forces   (improved forces if not selfconsistent)
 use gradient corrections 
 use of overlap-Matrix (Vanderbilt PP)
 Fermi weights with tetrahedron method with Bloechl corrections


--------------------------------------------------------------------------------------------------------


  energy-cutoff  :      520.00
  volume of cell :      968.84
      direct lattice vectors                 reciprocal lattice vectors
     6.907777000 -0.000000000  0.000000000     0.144764372 -0.083579742  0.000000000
     3.453888000  5.982310000  0.000000000     0.000000000  0.167159509 -0.000000000
     0.000000000  0.000000000 23.444588000    -0.000000000  0.000000000  0.042653767

  length of vectors
     6.907777000  6.907776433 23.444588000     0.167159495  0.167159509  0.042653767



 k-points in units of 2pi/SCALE and weight: Kpoints from vasprun.xml                
   0.00000000  0.00000000  0.00000000       0.040
   0.02895287 -0.01671595  0.00000000       0.240
   0.05790575 -0.03343190  0.00000000       0.240
   0.05790575  0.00000000  0.00000000       0.240
  -0.05790575  0.06686380  0.00000000       0.240

 k-points in reciprocal lattice and weights: Kpoints from vasprun.xml                
   0.00000000  0.00000000  0.00000000       0.040
   0.20000000  0.00000000  0.00000000       0.240
   0.40000000  0.00000000  0.00000000       0.240
   0.40000000  0.20000000  0.00000000       0.240
  -0.40000000  0.20000000  0.00000000       0.240

 position of ions in fractional coordinates (direct lattice) 
   0.33333300  0.33333300  0.49992500
   0.66666700  0.66666700  0.50007500
   0.00000000  0.00000000  0.44821600
   0.00000000  0.00000000  0.55178400
   0.62635700  0.00042000  0.57375200
   0.00042000  0.37322400  0.57375200
   0.37322400  0.62635700  0.57375200
   0.37364300  0.99958000  0.42624800
   0.99958000  0.62677600  0.42624800
   0.62677600  0.37364300  0.42624800

 position of ions in cartesian coordinates  (Angst):
   3.45388488  1.99410134 11.72053566
   6.90778012  3.98820866 11.72405234
   0.00000000  0.00000000 10.50823946
   0.00000000  0.00000000 12.93634854
   4.32818511  0.00251257 13.45137925
   1.29197516  2.23274167 13.45137925
   4.74151509  3.74706174 13.45137925
   6.03347989  5.97979743  9.99320875
   9.06968984  3.74956833  9.99320875
   5.62014991  2.23524826  9.99320875



--------------------------------------------------------------------------------------------------------


 k-point  1 :   0.0000 0.0000 0.0000  plane waves:   26073
 k-point  2 :   0.2000 0.0000 0.0000  plane waves:   26070
 k-point  3 :   0.4000 0.0000 0.0000  plane waves:   26086
 k-point  4 :   0.4000 0.2000 0.0000  plane waves:   26085
 k-point  5 :  -0.4000 0.2000 0.0000  plane waves:   26115

 maximum and minimum number of plane-waves per node :     26115    26070

 maximum number of plane-waves:     26115
 maximum index in each direction: 
   IXMAX=   13   IYMAX=   12   IZMAX=   43
   IXMIN=  -13   IYMIN=  -13   IZMIN=  -43


 serial   3D FFT for wavefunctions
 parallel 3D FFT for charge:
    minimum data exchange during FFTs selected (reduces bandwidth)


 total amount of memory used by VASP MPI-rank0   130152. kBytes
=======================================================================

   base      :      30000. kBytes
   nonlr-proj:       7652. kBytes
   fftplans  :      11247. kBytes
   grid      :      68332. kBytes
   one-center:        311. kBytes
   wavefun   :      12610. kBytes

     INWAV:  cpu time    0.0040: real time    0.0004
 Broyden mixing: mesh for mixing (old mesh)
   NGX = 25   NGY = 25   NGZ = 87
  (NGX  =108   NGY  =108   NGZ  =360)
  gives a total of  54375 points

 initial charge density was supplied:
 charge density of overlapping atoms calculated
 number of electron      61.0000000 magnetization       7.2600000
 keeping initial charge density in first step


--------------------------------------------------------------------------------------------------------


 Maximum index for non-local projection operator         7925
 Maximum index for augmentation-charges         2133 (set IRDMAX)


--------------------------------------------------------------------------------------------------------


 First call to EWALD:  gamma=   0.179
 Maximum number of real-space cells 4x 4x 1
 Maximum number of reciprocal cells 2x 2x 6

    FEWALD:  cpu time    0.0000: real time    0.0015


--------------------------------------- Iteration      1(   1)  ---------------------------------------


vdW kernel read from vdw_kernel.bindat
  0.0000  0.2424  0.5071  0.7962  1.1119  1.4567  1.8333  2.2446  2.6937  3.1842
  3.7199  4.3049  4.9438  5.6415  6.4036  7.2358  8.1446  9.1372 10.2212 11.4050
 12.6979 14.1099 15.6519 17.3360 19.1751 21.1837 23.3773 25.7729 28.3892 31.2465
 34.3669 37.7748 41.4965 45.5611 50.0000

    POTLOK:  cpu time   52.7040: real time   53.0085
    SETDIJ:  cpu time    0.0480: real time    0.0468
     EDDAV:  cpu time   22.5880: real time   22.9507
 BZINTS: Fermi energy:  5.082916; 61.000000 electrons
         Band energy: -25.844240;  BLOECHL correction: -0.036049
       DOS:  cpu time    0.0080: real time    0.0088
    --------------------------------------------
      LOOP:  cpu time   75.3480: real time   76.0147

 eigenvalue-minimisations  :   960
 total energy-change (2. order) : 0.4177506E+03  (-0.1803662E+04)
 number of electron      61.0000000 magnetization       7.2600000
 augmentation part       61.0000000 magnetization       7.2600000

 Free energy of the ion-electron system (eV)
  ---------------------------------------------------
  alpha Z        PSCENC =        37.09010617
  Ewald energy   TEWEN  =      7259.79945079
  -Hartree energ DENC   =     -9968.80603381
  -exchange      EXHF   =         0.00000000
  -V(xc)+E(xc)   XCENC  =        -8.22096300
  PAW double counting   =      1679.80738591    -1582.73715772
  entropy T*S    EENTRO =         0.00000000
  eigenvalues    EBANDS =       -25.84423964
  atomic energy  EATOM  =      3026.66202984
  Solvation  Ediel_sol  =         0.00000000
  ---------------------------------------------------
  free energy    TOTEN  =       417.75057854 eV

  energy without entropy =      417.75057854  energy(sigma->0) =      417.75057854


--------------------------------------------------------------------------------------------------------




--------------------------------------- Iteration      1(   2)  ---------------------------------------


     EDDAV:  cpu time   28.4040: real time   29.1662
 BZINTS: Fermi energy: -1.301687; 61.000000 electrons
         Band energy:-419.030526;  BLOECHL correction: -0.079383
       DOS:  cpu time    0.0080: real time    0.0066
    --------------------------------------------
      LOOP:  cpu time   28.4120: real time   29.1728

 eigenvalue-minimisations  :  1264
 total energy-change (2. order) :-0.3931863E+03  (-0.3672244E+03)
 number of electron      61.0000000 magnetization       7.2600000
 augmentation part       61.0000000 magnetization       7.2600000

 Free energy of the ion-electron system (eV)
  ---------------------------------------------------
  alpha Z        PSCENC =        37.09010617
  Ewald energy   TEWEN  =      7259.79945079
  -Hartree energ DENC   =     -9968.80603381
  -exchange      EXHF   =         0.00000000
  -V(xc)+E(xc)   XCENC  =        -8.22096300
  PAW double counting   =      1679.80738591    -1582.73715772
  entropy T*S    EENTRO =         0.00000000
  eigenvalues    EBANDS =      -419.03052614
  atomic energy  EATOM  =      3026.66202984
  Solvation  Ediel_sol  =         0.00000000
  ---------------------------------------------------
  free energy    TOTEN  =        24.56429204 eV

  energy without entropy =       24.56429204  energy(sigma->0) =       24.56429204


--------------------------------------------------------------------------------------------------------




--------------------------------------- Iteration      1(   3)  ---------------------------------------


     EDDAV:  cpu time   29.4800: real time   30.1945
 BZINTS: Fermi energy: -2.654875; 61.018555 electrons
         Band energy:-488.608646;  BLOECHL correction: -0.016247
       DOS:  cpu time    0.0080: real time    0.0082
    --------------------------------------------
      LOOP:  cpu time   29.4880: real time   30.2027

 eigenvalue-minimisations  :  1296
 total energy-change (2. order) :-0.6957812E+02  (-0.6792581E+02)
 number of electron      61.0000000 magnetization       7.2600000
 augmentation part       61.0000000 magnetization       7.2600000

 Free energy of the ion-electron system (eV)
  ---------------------------------------------------
  alpha Z        PSCENC =        37.09010617
  Ewald energy   TEWEN  =      7259.79945079
  -Hartree energ DENC   =     -9968.80603381
  -exchange      EXHF   =         0.00000000
  -V(xc)+E(xc)   XCENC  =        -8.22096300
  PAW double counting   =      1679.80738591    -1582.73715772
  entropy T*S    EENTRO =         0.00000000
  eigenvalues    EBANDS =      -488.60864615
  atomic energy  EATOM  =      3026.66202984
  Solvation  Ediel_sol  =         0.00000000
  ---------------------------------------------------
  free energy    TOTEN  =       -45.01382797 eV

  energy without entropy =      -45.01382797  energy(sigma->0) =      -45.01382797


--------------------------------------------------------------------------------------------------------




--------------------------------------- Iteration      1(   4)  ---------------------------------------


     EDDAV:  cpu time   28.8400: real time   29.0498
 BZINTS: Fermi energy: -2.677044; 61.000000 electrons
         Band energy:-491.459691;  BLOECHL correction: -0.004816
       DOS:  cpu time    0.0040: real time    0.0048
    --------------------------------------------
      LOOP:  cpu time   28.8440: real time   29.0546

 eigenvalue-minimisations  :  1248
 total energy-change (2. order) :-0.2851044E+01  (-0.2840485E+01)
 number of electron      61.0000000 magnetization       7.2600000
 augmentation part       61.0000000 magnetization       7.2600000

 Free energy of the ion-electron system (eV)
  ---------------------------------------------------
  alpha Z        PSCENC =        37.09010617
  Ewald energy   TEWEN  =      7259.79945079
  -Hartree energ DENC   =     -9968.80603381
  -exchange      EXHF   =         0.00000000
  -V(xc)+E(xc)   XCENC  =        -8.22096300
  PAW double counting   =      1679.80738591    -1582.73715772
  entropy T*S    EENTRO =         0.00000000
  eigenvalues    EBANDS =      -491.45969051
  atomic energy  EATOM  =      3026.66202984
  Solvation  Ediel_sol  =         0.00000000
  ---------------------------------------------------
  free energy    TOTEN  =       -47.86487233 eV

  energy without entropy =      -47.86487233  energy(sigma->0) =      -47.86487233


--------------------------------------------------------------------------------------------------------




--------------------------------------- Iteration      1(   5)  ---------------------------------------


     EDDAV:  cpu time   27.9440: real time   28.4283
 BZINTS: Fermi energy: -2.677190; 61.000000 electrons
         Band energy:-491.534387;  BLOECHL correction: -0.004853
       DOS:  cpu time    0.0040: real time    0.0057
    CHARGE:  cpu time    2.0560: real time    2.0727
    MIXING:  cpu time    0.0440: real time    0.0423
    --------------------------------------------
      LOOP:  cpu time   30.0480: real time   30.5491

 eigenvalue-minimisations  :  1216
 total energy-change (2. order) :-0.7469669E-01  (-0.7465952E-01)
 number of electron      61.0000001 magnetization       7.2321232
 augmentation part       -3.2872234 magnetization       5.1779883

 Broyden mixing:
  rms(total) = 0.25808E+01    rms(broyden)= 0.25807E+01
  rms(prec ) = 0.28546E+01
  weight for this iteration     100.00

 Free energy of the ion-electron system (eV)
  ---------------------------------------------------
  alpha Z        PSCENC =        37.09010617
  Ewald energy   TEWEN  =      7259.79945079
  -Hartree energ DENC   =     -9968.80603381
  -exchange      EXHF   =         0.00000000
  -V(xc)+E(xc)   XCENC  =        -8.22096300
  PAW double counting   =      1679.80738591    -1582.73715772
  entropy T*S    EENTRO =         0.00000000
  eigenvalues    EBANDS =      -491.53438719
  atomic energy  EATOM  =      3026.66202984
  Solvation  Ediel_sol  =         0.00000000
  ---------------------------------------------------
  free energy    TOTEN  =       -47.93956902 eV

  energy without entropy =      -47.93956902  energy(sigma->0) =      -47.93956902


--------------------------------------------------------------------------------------------------------




--------------------------------------- Iteration      1(   6)  ---------------------------------------


    POTLOK:  cpu time   53.1560: real time   53.2375
    SETDIJ:  cpu time    0.0480: real time    0.0484
     EDDAV:  cpu time   26.0560: real time   26.6710
 BZINTS: Fermi energy: -4.694449; 61.000000 electrons
         Band energy:-672.879550;  BLOECHL correction: -0.016816
       DOS:  cpu time    0.0040: real time    0.0057
    CHARGE:  cpu time    1.9160: real time    2.0324
    MIXING:  cpu time    0.0400: real time    0.0405
    --------------------------------------------
      LOOP:  cpu time   81.2200: real time   82.0355

 eigenvalue-minimisations  :  1136
 total energy-change (2. order) :-0.6104968E+02  (-0.3602663E+02)
 number of electron      61.0000011 magnetization       7.0196544
 augmentation part        7.8755768 magnetization       6.8605152

 Broyden mixing:
  rms(total) = 0.64142E+01    rms(broyden)= 0.64141E+01
  rms(prec ) = 0.68864E+01
  weight for this iteration     100.00

 eigenvalues of (default mixing * dielectric matrix)
  average eigenvalue GAMMA=   0.2292
  0.2292

 Free energy of the ion-electron system (eV)
  ---------------------------------------------------
  alpha Z        PSCENC =        37.09010617
  Ewald energy   TEWEN  =      7259.79945079
  -Hartree energ DENC   =     -9861.62395609
  -exchange      EXHF   =         0.00000000
  -V(xc)+E(xc)   XCENC  =        -8.17916526
  PAW double counting   =      1511.68886591    -1401.54703411
  entropy T*S    EENTRO =         0.00000000
  eigenvalues    EBANDS =      -672.87955048
  atomic energy  EATOM  =      3026.66202984
  Solvation  Ediel_sol  =         0.00000000
  ---------------------------------------------------
  free energy    TOTEN  =      -108.98925323 eV

  energy without entropy =     -108.98925323  energy(sigma->0) =     -108.98925323


--------------------------------------------------------------------------------------------------------




--------------------------------------- Iteration      1(   7)  ---------------------------------------


    POTLOK:  cpu time   52.4360: real time   52.7365
    SETDIJ:  cpu time    0.0480: real time    0.0463
     EDDAV:  cpu time   27.4720: real time   27.6644
 BZINTS: Fermi energy: -4.656401; 61.000000 electrons
         Band energy:-530.675964;  BLOECHL correction: -0.023217
       DOS:  cpu time    0.0040: real time    0.0068
    CHARGE:  cpu time    2.0320: real time    2.0526
    MIXING:  cpu time    0.0440: real time    0.0433
    --------------------------------------------
      LOOP:  cpu time   82.0360: real time   82.5499

 eigenvalue-minimisations  :  1184
 total energy-change (2. order) : 0.6365636E+02  (-0.6734891E+01)
 number of electron      61.0000008 magnetization       6.7172933
 augmentation part        5.0054903 magnetization       6.7848283

 Broyden mixing:
  rms(total) = 0.33846E+01    rms(broyden)= 0.33846E+01
  rms(prec ) = 0.36856E+01
  weight for this iteration     100.00

 eigenvalues of (default mixing * dielectric matrix)
  average eigenvalue GAMMA=   0.5033
  0.5033  0.5033

 Free energy of the ion-electron system (eV)
  ---------------------------------------------------
  alpha Z        PSCENC =        37.09010617
  Ewald energy   TEWEN  =      7259.79945079
  -Hartree energ DENC   =     -9926.59778342
  -exchange      EXHF   =         0.00000000
  -V(xc)+E(xc)   XCENC  =        -9.73953420
  PAW double counting   =      1627.12241067    -1528.99360866
  entropy T*S    EENTRO =         0.00000000
  eigenvalues    EBANDS =      -530.67596403
  atomic energy  EATOM  =      3026.66202984
  Solvation  Ediel_sol  =         0.00000000
  ---------------------------------------------------
  free energy    TOTEN  =       -45.33289283 eV

  energy without entropy =      -45.33289283  energy(sigma->0) =      -45.33289283


--------------------------------------------------------------------------------------------------------




--------------------------------------- Iteration      1(   8)  ---------------------------------------


    POTLOK:  cpu time   52.5000: real time   52.8885
    SETDIJ:  cpu time    0.0520: real time    0.0521
     EDDAV:  cpu time   31.2000: real time   32.5029
 BZINTS: Fermi energy: -2.994029; 61.000000 electrons
         Band energy:-490.446077;  BLOECHL correction: -0.011611
       DOS:  cpu time    0.0040: real time    0.0066
    CHARGE:  cpu time    1.9480: real time    2.0777
    MIXING:  cpu time    0.0440: real time    0.0456
    --------------------------------------------
      LOOP:  cpu time   85.7480: real time   87.5734

 eigenvalue-minimisations  :  1424
 total energy-change (2. order) : 0.3534524E+01  (-0.4993578E+01)
 number of electron      61.0000001 magnetization       6.7813610
 augmentation part       -1.9690313 magnetization       4.4046221

 Broyden mixing:
  rms(total) = 0.24106E+01    rms(broyden)= 0.24103E+01
  rms(prec ) = 0.25475E+01
  weight for this iteration     100.00

 eigenvalues of (default mixing * dielectric matrix)
  average eigenvalue GAMMA=   0.4393
  0.5520  0.3830  0.3830

 Free energy of the ion-electron system (eV)
  ---------------------------------------------------
  alpha Z        PSCENC =        37.09010617
  Ewald energy   TEWEN  =      7259.79945079
  -Hartree energ DENC   =     -9961.47886234
  -exchange      EXHF   =         0.00000000
  -V(xc)+E(xc)   XCENC  =        -9.65337873
  PAW double counting   =      1693.01616892    -1596.78780703
  entropy T*S    EENTRO =         0.00000000
  eigenvalues    EBANDS =      -490.44607692
  atomic energy  EATOM  =      3026.66202984
  Solvation  Ediel_sol  =         0.00000000
  ---------------------------------------------------
  free energy    TOTEN  =       -41.79836929 eV

  energy without entropy =      -41.79836929  energy(sigma->0) =      -41.79836929


--------------------------------------------------------------------------------------------------------




--------------------------------------- Iteration      1(   9)  ---------------------------------------


    POTLOK:  cpu time   52.9480: real time   53.0543
    SETDIJ:  cpu time    0.0440: real time    0.0464
     EDDAV:  cpu time   31.9200: real time   32.0740
 BZINTS: Fermi energy: -3.705550; 61.000000 electrons
         Band energy:-506.998081;  BLOECHL correction: -0.014795
       DOS:  cpu time    0.0080: real time    0.0074
    CHARGE:  cpu time    2.0560: real time    2.0672
    MIXING:  cpu time    0.0400: real time    0.0425
    --------------------------------------------
      LOOP:  cpu time   87.0160: real time   87.2918

 eigenvalue-minimisations  :  1408
 total energy-change (2. order) : 0.1982293E+01  (-0.9458336E+00)
 number of electron      61.0000003 magnetization       6.8025630
 augmentation part        0.4867028 magnetization       4.2878549

 Broyden mixing:
  rms(total) = 0.71694E+00    rms(broyden)= 0.71683E+00
  rms(prec ) = 0.72637E+00
  weight for this iteration     100.00

 eigenvalues of (default mixing * dielectric matrix)
  average eigenvalue GAMMA=   0.3342
  0.5375  0.3814  0.3814  0.0364

 Free energy of the ion-electron system (eV)
  ---------------------------------------------------
  alpha Z        PSCENC =        37.09010617
  Ewald energy   TEWEN  =      7259.79945079
  -Hartree energ DENC   =     -9943.37600500
  -exchange      EXHF   =         0.00000000
  -V(xc)+E(xc)   XCENC  =        -9.13280626
  PAW double counting   =      1661.65339545    -1565.51416558
  entropy T*S    EENTRO =         0.00000000
  eigenvalues    EBANDS =      -506.99808142
  atomic energy  EATOM  =      3026.66202984
  Solvation  Ediel_sol  =         0.00000000
  ---------------------------------------------------
  free energy    TOTEN  =       -39.81607601 eV

  energy without entropy =      -39.81607601  energy(sigma->0) =      -39.81607601


--------------------------------------------------------------------------------------------------------




--------------------------------------- Iteration      1(  10)  ---------------------------------------


    POTLOK:  cpu time   51.0920: real time   51.2023
    SETDIJ:  cpu time    0.0480: real time    0.0494
     EDDAV:  cpu time   28.1320: real time   28.5016
 BZINTS: Fermi energy: -3.735009; 61.000000 electrons
         Band energy:-507.323515;  BLOECHL correction: -0.015197
       DOS:  cpu time    0.0080: real time    0.0051
    CHARGE:  cpu time    2.0080: real time    2.0894
    MIXING:  cpu time    0.0440: real time    0.0425
    --------------------------------------------
      LOOP:  cpu time   81.3320: real time   81.8902

 eigenvalue-minimisations  :  1248
 total energy-change (2. order) :-0.8899581E-01  (-0.6480822E-01)
 number of electron      61.0000003 magnetization       6.8166216
 augmentation part        0.5455834 magnetization       4.3551217

 Broyden mixing:
  rms(total) = 0.75524E+00    rms(broyden)= 0.75521E+00
  rms(prec ) = 0.77649E+00
  weight for this iteration     100.00

 eigenvalues of (default mixing * dielectric matrix)
  average eigenvalue GAMMA=   0.2816
  0.5178  0.3787  0.3787  0.0663  0.0663

 Free energy of the ion-electron system (eV)
  ---------------------------------------------------
  alpha Z        PSCENC =        37.09010617
  Ewald energy   TEWEN  =      7259.79945079
  -Hartree energ DENC   =     -9943.18401315
  -exchange      EXHF   =         0.00000000
  -V(xc)+E(xc)   XCENC  =        -9.02839919
  PAW double counting   =      1661.21354975    -1565.13428061
  entropy T*S    EENTRO =         0.00000000
  eigenvalues    EBANDS =      -507.32351543
  atomic energy  EATOM  =      3026.66202984
  Solvation  Ediel_sol  =         0.00000000
  ---------------------------------------------------
  free energy    TOTEN  =       -39.90507183 eV

  energy without entropy =      -39.90507183  energy(sigma->0) =      -39.90507183


--------------------------------------------------------------------------------------------------------




--------------------------------------- Iteration      1(  11)  ---------------------------------------


    POTLOK:  cpu time   51.3200: real time   51.6227
    SETDIJ:  cpu time    0.0720: real time    0.0719
     EDDAV:  cpu time   28.2640: real time   28.3845
 BZINTS: Fermi energy: -3.738338; 61.000000 electrons
         Band energy:-507.514031;  BLOECHL correction: -0.015299
       DOS:  cpu time    0.0040: real time    0.0053
    CHARGE:  cpu time    2.0840: real time    2.1086
    MIXING:  cpu time    0.0480: real time    0.0458
    --------------------------------------------
      LOOP:  cpu time   81.7920: real time   82.2389

 eigenvalue-minimisations  :  1232
 total energy-change (2. order) :-0.1551585E-01  (-0.2669467E-01)
 number of electron      61.0000003 magnetization       6.9466837
 augmentation part        0.5575601 magnetization       4.4782732

 Broyden mixing:
  rms(total) = 0.63661E+00    rms(broyden)= 0.63658E+00
  rms(prec ) = 0.64695E+00
  weight for this iteration     100.00

 eigenvalues of (default mixing * dielectric matrix)
  average eigenvalue GAMMA=   0.4577
  0.6582  0.6582  0.5931  0.3998  0.3998  0.0368

 Free energy of the ion-electron system (eV)
  ---------------------------------------------------
  alpha Z        PSCENC =        37.09010617
  Ewald energy   TEWEN  =      7259.79945079
  -Hartree energ DENC   =     -9943.04950246
  -exchange      EXHF   =         0.00000000
  -V(xc)+E(xc)   XCENC  =        -8.95853997
  PAW double counting   =      1660.92285802    -1564.87295941
  entropy T*S    EENTRO =         0.00000000
  eigenvalues    EBANDS =      -507.51403065
  atomic energy  EATOM  =      3026.66202984
  Solvation  Ediel_sol  =         0.00000000
  ---------------------------------------------------
  free energy    TOTEN  =       -39.92058768 eV

  energy without entropy =      -39.92058768  energy(sigma->0) =      -39.92058768


--------------------------------------------------------------------------------------------------------




--------------------------------------- Iteration      1(  12)  ---------------------------------------


    POTLOK:  cpu time   51.5040: real time   51.6124
    SETDIJ:  cpu time    0.0480: real time    0.0475
     EDDAV:  cpu time   28.3960: real time   28.7417
 BZINTS: Fermi energy: -3.787605; 61.000000 electrons
         Band energy:-510.086796;  BLOECHL correction: -0.013433
       DOS:  cpu time    0.0040: real time    0.0071
    CHARGE:  cpu time    2.0680: real time    2.0701
    MIXING:  cpu time    0.0440: real time    0.0747
    --------------------------------------------
      LOOP:  cpu time   82.0640: real time   82.5534

 eigenvalue-minimisations  :  1264
 total energy-change (2. order) :-0.3539036E+00  (-0.1340995E+00)
 number of electron      61.0000003 magnetization       6.9867570
 augmentation part        0.6884916 magnetization       4.5692868

 Broyden mixing:
  rms(total) = 0.10343E+01    rms(broyden)= 0.10342E+01
  rms(prec ) = 0.11066E+01
  weight for this iteration     100.00

 eigenvalues of (default mixing * dielectric matrix)
  average eigenvalue GAMMA=   0.4820
  0.7986  0.7986  0.5941  0.4098  0.4098  0.3252  0.0379

 Free energy of the ion-electron system (eV)
  ---------------------------------------------------
  alpha Z        PSCENC =        37.09010617
  Ewald energy   TEWEN  =      7259.79945079
  -Hartree energ DENC   =     -9941.21012055
  -exchange      EXHF   =         0.00000000
  -V(xc)+E(xc)   XCENC  =        -8.25754781
  PAW double counting   =      1658.45372131    -1562.72533551
  entropy T*S    EENTRO =         0.00000000
  eigenvalues    EBANDS =      -510.08679556
  atomic energy  EATOM  =      3026.66202984
  Solvation  Ediel_sol  =         0.00000000
  ---------------------------------------------------
  free energy    TOTEN  =       -40.27449132 eV

  energy without entropy =      -40.27449132  energy(sigma->0) =      -40.27449132


--------------------------------------------------------------------------------------------------------




--------------------------------------- Iteration      1(  13)  ---------------------------------------


    POTLOK:  cpu time   50.5560: real time   50.9493
    SETDIJ:  cpu time    0.0440: real time    0.0461
     EDDAV:  cpu time   30.0000: real time   30.5362
 BZINTS: Fermi energy: -3.714727; 61.000000 electrons
         Band energy:-509.512492;  BLOECHL correction: -0.019402
       DOS:  cpu time    0.0040: real time    0.0070
    CHARGE:  cpu time    2.0800: real time    2.0845
    MIXING:  cpu time    0.0520: real time    0.0534
    --------------------------------------------
      LOOP:  cpu time   82.7360: real time   83.6766

 eigenvalue-minimisations  :  1344
 total energy-change (2. order) : 0.1130300E+00  (-0.2603692E-01)
 number of electron      61.0000003 magnetization       7.1302963
 augmentation part        0.4815768 magnetization       4.6183298

 Broyden mixing:
  rms(total) = 0.72204E+00    rms(broyden)= 0.72203E+00
  rms(prec ) = 0.76479E+00
  weight for this iteration     100.00

 eigenvalues of (default mixing * dielectric matrix)
  average eigenvalue GAMMA=   0.5894
  1.0838  1.0838  0.6149  0.4291  0.4291  0.5183  0.5183  0.0378

 Free energy of the ion-electron system (eV)
  ---------------------------------------------------
  alpha Z        PSCENC =        37.09010617
  Ewald energy   TEWEN  =      7259.79945079
  -Hartree energ DENC   =     -9941.70442721
  -exchange      EXHF   =         0.00000000
  -V(xc)+E(xc)   XCENC  =        -7.97586875
  PAW double counting   =      1660.69927421    -1565.21953426
  entropy T*S    EENTRO =         0.00000000
  eigenvalues    EBANDS =      -509.51249208
  atomic energy  EATOM  =      3026.66202984
  Solvation  Ediel_sol  =         0.00000000
  ---------------------------------------------------
  free energy    TOTEN  =       -40.16146129 eV

  energy without entropy =      -40.16146129  energy(sigma->0) =      -40.16146129


--------------------------------------------------------------------------------------------------------




--------------------------------------- Iteration      1(  14)  ---------------------------------------


    POTLOK:  cpu time   50.6480: real time   51.1108
    SETDIJ:  cpu time    0.0440: real time    0.0470
     EDDAV:  cpu time   31.9920: real time   32.5078
 BZINTS: Fermi energy: -3.600252; 61.000000 electrons
         Band energy:-510.058032;  BLOECHL correction: -0.019973
       DOS:  cpu time    0.0040: real time    0.0054
    CHARGE:  cpu time    2.0200: real time    2.0444
    MIXING:  cpu time    0.0480: real time    0.0455
    --------------------------------------------
      LOOP:  cpu time   84.7560: real time   85.7608

 eigenvalue-minimisations  :  1440
 total energy-change (2. order) :-0.7139528E-01  (-0.6028581E-01)
 number of electron      61.0000002 magnetization       7.2377138
 augmentation part        0.0767815 magnetization       4.1898542

 Broyden mixing:
  rms(total) = 0.49230E+00    rms(broyden)= 0.49216E+00
  rms(prec ) = 0.50967E+00
  weight for this iteration     100.00

 eigenvalues of (default mixing * dielectric matrix)
  average eigenvalue GAMMA=   0.6155
  1.1761  1.1761  0.6017  0.6017  0.4243  0.4243  0.5487  0.5487  0.0378

 Free energy of the ion-electron system (eV)
  ---------------------------------------------------
  alpha Z        PSCENC =        37.09010617
  Ewald energy   TEWEN  =      7259.79945079
  -Hartree energ DENC   =     -9941.46996468
  -exchange      EXHF   =         0.00000000
  -V(xc)+E(xc)   XCENC  =        -7.12372468
  PAW double counting   =      1662.61828848    -1567.75101031
  entropy T*S    EENTRO =         0.00000000
  eigenvalues    EBANDS =      -510.05803217
  atomic energy  EATOM  =      3026.66202984
  Solvation  Ediel_sol  =         0.00000000
  ---------------------------------------------------
  free energy    TOTEN  =       -40.23285656 eV

  energy without entropy =      -40.23285656  energy(sigma->0) =      -40.23285656


--------------------------------------------------------------------------------------------------------




--------------------------------------- Iteration      1(  15)  ---------------------------------------


    POTLOK:  cpu time   50.7480: real time   51.0305
    SETDIJ:  cpu time    0.0480: real time    0.0462
     EDDAV:  cpu time   32.4280: real time   32.8121
 BZINTS: Fermi energy: -3.534898; 61.014377 electrons
         Band energy:-509.622105;  BLOECHL correction: -0.006264
       DOS:  cpu time    0.0080: real time    0.0087
    CHARGE:  cpu time    2.0120: real time    2.0277
    MIXING:  cpu time    0.0440: real time    0.0465
    --------------------------------------------
      LOOP:  cpu time   85.2880: real time   85.9716

 eigenvalue-minimisations  :  1456
 total energy-change (2. order) :-0.1360229E+00  (-0.1110281E-01)
 number of electron      61.0143771 magnetization       7.3310521
 augmentation part       -0.1596557 magnetization       3.9179792

 Broyden mixing:
  rms(total) = 0.64406E+00    rms(broyden)= 0.64402E+00
  rms(prec ) = 0.67669E+00
  weight for this iteration     100.00

 eigenvalues of (default mixing * dielectric matrix)
  average eigenvalue GAMMA=   0.6781
  1.3412  1.3412  0.7161  0.7161  0.4226  0.4226  0.6243  0.6243  0.5351  0.0378

 Free energy of the ion-electron system (eV)
  ---------------------------------------------------
  alpha Z        PSCENC =        37.09010617
  Ewald energy   TEWEN  =      7259.79945079
  -Hartree energ DENC   =     -9942.07693708
  -exchange      EXHF   =         0.00000000
  -V(xc)+E(xc)   XCENC  =        -6.76963482
  PAW double counting   =      1663.97570806    -1569.42749735
  entropy T*S    EENTRO =         0.00000000
  eigenvalues    EBANDS =      -509.62210504
  atomic energy  EATOM  =      3026.66202984
  Solvation  Ediel_sol  =         0.00000000
  ---------------------------------------------------
  free energy    TOTEN  =       -40.36887943 eV

  energy without entropy =      -40.36887943  energy(sigma->0) =      -40.36887943


--------------------------------------------------------------------------------------------------------




--------------------------------------- Iteration      1(  16)  ---------------------------------------


    POTLOK:  cpu time   50.7200: real time   51.1169
    SETDIJ:  cpu time    0.0480: real time    0.0469
     EDDAV:  cpu time   33.8440: real time   34.1908
 BZINTS: Fermi energy: -3.527790; 61.018906 electrons
         Band energy:-509.271586;  BLOECHL correction: -0.006169
       DOS:  cpu time    0.0080: real time    0.0095
    CHARGE:  cpu time    2.0320: real time    2.0374
    MIXING:  cpu time    0.0440: real time    0.0488
    --------------------------------------------
      LOOP:  cpu time   86.6960: real time   87.4503

 eigenvalue-minimisations  :  1520
 total energy-change (2. order) :-0.3910440E-01  (-0.2210174E-02)
 number of electron      61.0189060 magnetization       7.5473946
 augmentation part       -0.1723297 magnetization       4.1441460

 Broyden mixing:
  rms(total) = 0.62511E+00    rms(broyden)= 0.62510E+00
  rms(prec ) = 0.65979E+00
  weight for this iteration     100.00

 eigenvalues of (default mixing * dielectric matrix)
  average eigenvalue GAMMA=   0.7636
  1.6651  1.6651  0.8211  0.8211  0.4232  0.4232  0.6643  0.6643  0.6757  0.5385
  0.0378

 Free energy of the ion-electron system (eV)
  ---------------------------------------------------
  alpha Z        PSCENC =        37.09010617
  Ewald energy   TEWEN  =      7259.79945079
  -Hartree energ DENC   =     -9942.44192320
  -exchange      EXHF   =         0.00000000
  -V(xc)+E(xc)   XCENC  =        -6.62399401
  PAW double counting   =      1664.29706178    -1569.91912959
  entropy T*S    EENTRO =         0.00000000
  eigenvalues    EBANDS =      -509.27158561
  atomic energy  EATOM  =      3026.66202984
  Solvation  Ediel_sol  =         0.00000000
  ---------------------------------------------------
  free energy    TOTEN  =       -40.40798383 eV

  energy without entropy =      -40.40798383  energy(sigma->0) =      -40.40798383


--------------------------------------------------------------------------------------------------------




--------------------------------------- Iteration      1(  17)  ---------------------------------------


    POTLOK:  cpu time   50.8400: real time   51.0975
    SETDIJ:  cpu time    0.0440: real time    0.0462
     EDDAV:  cpu time   30.6920: real time   31.1080
 BZINTS: Fermi energy: -3.509090; 61.036410 electrons
         Band energy:-509.676947;  BLOECHL correction: -0.005676
       DOS:  cpu time    0.0080: real time    0.0092
    CHARGE:  cpu time    2.0080: real time    2.0303
    MIXING:  cpu time    0.0480: real time    0.0487
    --------------------------------------------
      LOOP:  cpu time   83.6400: real time   84.3401

 eigenvalue-minimisations  :  1376
 total energy-change (2. order) :-0.2209583E-01  (-0.4123958E-02)
 number of electron      61.0364100 magnetization       7.8022874
 augmentation part       -0.0789100 magnetization       4.3350730

 Broyden mixing:
  rms(total) = 0.49225E+00    rms(broyden)= 0.49225E+00
  rms(prec ) = 0.52243E+00
  weight for this iteration     100.00

 eigenvalues of (default mixing * dielectric matrix)
  average eigenvalue GAMMA=   0.8405
  1.8695  1.8695  1.2338  0.8236  0.8236  0.7250  0.7250  0.4234  0.4234  0.5655
  0.5655  0.0378

 Free energy of the ion-electron system (eV)
  ---------------------------------------------------
  alpha Z        PSCENC =        37.09010617
  Ewald energy   TEWEN  =      7259.79945079
  -Hartree energ DENC   =     -9942.04626945
  -exchange      EXHF   =         0.00000000
  -V(xc)+E(xc)   XCENC  =        -6.32226146
  PAW double counting   =      1663.09477733    -1569.03096555
  entropy T*S    EENTRO =         0.00000000
  eigenvalues    EBANDS =      -509.67694733
  atomic energy  EATOM  =      3026.66202984
  Solvation  Ediel_sol  =         0.00000000
  ---------------------------------------------------
  free energy    TOTEN  =       -40.43007967 eV

  energy without entropy =      -40.43007967  energy(sigma->0) =      -40.43007967


--------------------------------------------------------------------------------------------------------




--------------------------------------- Iteration      1(  18)  ---------------------------------------


    POTLOK:  cpu time   50.9560: real time   51.2425
    SETDIJ:  cpu time    0.0480: real time    0.0471
     EDDAV:  cpu time   29.3040: real time   29.7050
 BZINTS: Fermi energy: -3.581379; 61.000000 electrons
         Band energy:-510.403611;  BLOECHL correction: -0.004172
       DOS:  cpu time    0.0040: real time    0.0056
    CHARGE:  cpu time    2.0040: real time    2.0674
    MIXING:  cpu time    0.0480: real time    0.0496
    --------------------------------------------
      LOOP:  cpu time   82.3640: real time   83.1172

 eigenvalue-minimisations  :  1312
 total energy-change (2. order) : 0.2101547E+00  (-0.9712754E-02)
 number of electron      61.0000002 magnetization       8.0100781
 augmentation part        0.1480009 magnetization       4.5025355

 Broyden mixing:
  rms(total) = 0.29672E+00    rms(broyden)= 0.29672E+00
  rms(prec ) = 0.31297E+00
  weight for this iteration     100.00

 eigenvalues of (default mixing * dielectric matrix)
  average eigenvalue GAMMA=   0.9021
  1.9995  1.9995  1.5014  0.8252  0.8252  0.8753  0.8753  0.4233  0.4233  0.6946
  0.6946  0.5518  0.0378

 Free energy of the ion-electron system (eV)
  ---------------------------------------------------
  alpha Z        PSCENC =        37.09010617
  Ewald energy   TEWEN  =      7259.79945079
  -Hartree energ DENC   =     -9941.02310368
  -exchange      EXHF   =         0.00000000
  -V(xc)+E(xc)   XCENC  =        -6.19538760
  PAW double counting   =      1660.89204368    -1567.04145278
  entropy T*S    EENTRO =         0.00000000
  eigenvalues    EBANDS =      -510.40361140
  atomic energy  EATOM  =      3026.66202984
  Solvation  Ediel_sol  =         0.00000000
  ---------------------------------------------------
  free energy    TOTEN  =       -40.21992497 eV

  energy without entropy =      -40.21992497  energy(sigma->0) =      -40.21992497


--------------------------------------------------------------------------------------------------------




--------------------------------------- Iteration      1(  19)  ---------------------------------------


    POTLOK:  cpu time   50.5160: real time   50.9936
    SETDIJ:  cpu time    0.0480: real time    0.0457
     EDDAV:  cpu time   34.1840: real time   34.4670
 BZINTS: Fermi energy: -3.641783; 61.000000 electrons
         Band energy:-511.810003;  BLOECHL correction: -0.016229
       DOS:  cpu time    0.0040: real time    0.0067
    CHARGE:  cpu time    2.0480: real time    2.0513
    MIXING:  cpu time    0.0480: real time    0.0504
    --------------------------------------------
      LOOP:  cpu time   86.8480: real time   87.6147

 eigenvalue-minimisations  :  1536
 total energy-change (2. order) : 0.7217179E-02  (-0.4427818E-02)
 number of electron      61.0000003 magnetization       7.9940927
 augmentation part        0.3852105 magnetization       4.6998429

 Broyden mixing:
  rms(total) = 0.14913E+00    rms(broyden)= 0.14911E+00
  rms(prec ) = 0.15661E+00
  weight for this iteration     100.00

 eigenvalues of (default mixing * dielectric matrix)
  average eigenvalue GAMMA=   0.8752
  1.9965  1.9965  1.5592  0.8251  0.8251  0.9471  0.9471  0.4233  0.4233  0.6640
  0.6640  0.5360  0.0378  0.4080

 Free energy of the ion-electron system (eV)
  ---------------------------------------------------
  alpha Z        PSCENC =        37.09010617
  Ewald energy   TEWEN  =      7259.79945079
  -Hartree energ DENC   =     -9939.49994204
  -exchange      EXHF   =         0.00000000
  -V(xc)+E(xc)   XCENC  =        -6.29679013
  PAW double counting   =      1658.50712694    -1564.66468666
  entropy T*S    EENTRO =         0.00000000
  eigenvalues    EBANDS =      -511.81000272
  atomic energy  EATOM  =      3026.66202984
  Solvation  Ediel_sol  =         0.00000000
  ---------------------------------------------------
  free energy    TOTEN  =       -40.21270779 eV

  energy without entropy =      -40.21270779  energy(sigma->0) =      -40.21270779


--------------------------------------------------------------------------------------------------------




--------------------------------------- Iteration      1(  20)  ---------------------------------------


    POTLOK:  cpu time   51.0280: real time   51.2462
    SETDIJ:  cpu time    0.0480: real time    0.0471
     EDDAV:  cpu time   28.8640: real time   29.2582
 BZINTS: Fermi energy: -3.651515; 61.000000 electrons
         Band energy:-512.151873;  BLOECHL correction: -0.019833
       DOS:  cpu time    0.0040: real time    0.0072
    CHARGE:  cpu time    2.0200: real time    2.0421
    MIXING:  cpu time    0.0560: real time    0.0548
    --------------------------------------------
      LOOP:  cpu time   82.0200: real time   82.6556

 eigenvalue-minimisations  :  1280
 total energy-change (2. order) :-0.1480246E-01  (-0.1659802E-02)
 number of electron      61.0000003 magnetization       8.0032861
 augmentation part        0.4008985 magnetization       4.7785206

 Broyden mixing:
  rms(total) = 0.19148E+00    rms(broyden)= 0.19147E+00
  rms(prec ) = 0.20277E+00
  weight for this iteration     100.00

 eigenvalues of (default mixing * dielectric matrix)
  average eigenvalue GAMMA=   0.9147
  2.0589  2.0589  1.7123  1.0631  1.0631  0.8211  0.8211  0.7048  0.7048  0.4233
  0.4233  0.6385  0.6385  0.5510  0.0378

 Free energy of the ion-electron system (eV)
  ---------------------------------------------------
  alpha Z        PSCENC =        37.09010617
  Ewald energy   TEWEN  =      7259.79945079
  -Hartree energ DENC   =     -9939.22333484
  -exchange      EXHF   =         0.00000000
  -V(xc)+E(xc)   XCENC  =        -6.33404353
  PAW double counting   =      1658.60376999    -1564.67361553
  entropy T*S    EENTRO =         0.00000000
  eigenvalues    EBANDS =      -512.15187314
  atomic energy  EATOM  =      3026.66202984
  Solvation  Ediel_sol  =         0.00000000
  ---------------------------------------------------
  free energy    TOTEN  =       -40.22751025 eV

  energy without entropy =      -40.22751025  energy(sigma->0) =      -40.22751025


--------------------------------------------------------------------------------------------------------




--------------------------------------- Iteration      1(  21)  ---------------------------------------


    POTLOK:  cpu time   50.6840: real time   51.0039
    SETDIJ:  cpu time    0.0480: real time    0.0488
     EDDAV:  cpu time   30.0880: real time   30.2652
 BZINTS: Fermi energy: -3.660671; 61.000000 electrons
         Band energy:-512.349167;  BLOECHL correction: -0.022880
       DOS:  cpu time    0.0040: real time    0.0070
    CHARGE:  cpu time    2.0320: real time    2.0469
    MIXING:  cpu time    0.0560: real time    0.0530
    --------------------------------------------
      LOOP:  cpu time   82.9120: real time   83.4249

 eigenvalue-minimisations  :  1328
 total energy-change (2. order) :-0.8364088E-02  (-0.6088361E-03)
 number of electron      61.0000003 magnetization       7.9553399
 augmentation part        0.4380234 magnetization       4.8168786

 Broyden mixing:
  rms(total) = 0.20928E+00    rms(broyden)= 0.20928E+00
  rms(prec ) = 0.22275E+00
  weight for this iteration     100.00

 eigenvalues of (default mixing * dielectric matrix)
  average eigenvalue GAMMA=   1.0189
  2.3703  2.3703  2.0446  1.4571  1.4571  0.8203  0.8203  0.4233  0.4233  0.7746
  0.7746  0.6838  0.6838  0.5802  0.5802  0.0378

 Free energy of the ion-electron system (eV)
  ---------------------------------------------------
  alpha Z        PSCENC =        37.09010617
  Ewald energy   TEWEN  =      7259.79945079
  -Hartree energ DENC   =     -9939.06804925
  -exchange      EXHF   =         0.00000000
  -V(xc)+E(xc)   XCENC  =        -6.35206770
  PAW double counting   =      1658.79378247    -1564.81195968
  entropy T*S    EENTRO =         0.00000000
  eigenvalues    EBANDS =      -512.34916699
  atomic energy  EATOM  =      3026.66202984
  Solvation  Ediel_sol  =         0.00000000
  ---------------------------------------------------
  free energy    TOTEN  =       -40.23587434 eV

  energy without entropy =      -40.23587434  energy(sigma->0) =      -40.23587434


--------------------------------------------------------------------------------------------------------




--------------------------------------- Iteration      1(  22)  ---------------------------------------


    POTLOK:  cpu time   50.9400: real time   51.1962
    SETDIJ:  cpu time    0.0480: real time    0.0474
     EDDAV:  cpu time   28.7600: real time   29.0139
 BZINTS: Fermi energy: -3.646129; 61.000000 electrons
         Band energy:-511.985527;  BLOECHL correction: -0.019958
       DOS:  cpu time    0.0080: real time    0.0080
    CHARGE:  cpu time    2.0320: real time    2.0521
    MIXING:  cpu time    0.0600: real time    0.0587
    --------------------------------------------
      LOOP:  cpu time   81.8480: real time   82.3763

 eigenvalue-minimisations  :  1264
 total energy-change (2. order) :-0.5499420E-03  (-0.2796511E-02)
 number of electron      61.0000003 magnetization       8.0376106
 augmentation part        0.3405901 magnetization       4.8609868

 Broyden mixing:
  rms(total) = 0.15020E+00    rms(broyden)= 0.15019E+00
  rms(prec ) = 0.15806E+00
  weight for this iteration     100.00

 eigenvalues of (default mixing * dielectric matrix)
  average eigenvalue GAMMA=   1.0033
  2.2090  2.2090  2.0803  1.4287  1.4287  0.8200  0.8200  1.1740  0.4233  0.4233
  0.7460  0.7460  0.6772  0.6772  0.5607  0.5954  0.0378

 Free energy of the ion-electron system (eV)
  ---------------------------------------------------
  alpha Z        PSCENC =        37.09010617
  Ewald energy   TEWEN  =      7259.79945079
  -Hartree energ DENC   =     -9939.46373865
  -exchange      EXHF   =         0.00000000
  -V(xc)+E(xc)   XCENC  =        -6.42131423
[...]
     34      -0.9864      0.00000
     35      -0.8594      0.00000
     36      -0.7918      0.00000
     37      -0.4539      0.00000
     38       0.4110      0.00000
     39       0.5449      0.00000
     40       1.2591      0.00000
     41       1.5304      0.00000
     42       1.7686      0.00000
     43       2.1500      0.00000
     44       2.4546      0.00000
     45       2.8829      0.00000
     46       3.0724      0.00000
     47       3.5076      0.00000
     48       3.6061      0.00000

 k-point     5 :      -0.4000    0.2000    0.0000
  band No.  band energies     occupation 
      1     -16.9053      1.00000
      2     -16.3994      1.00000
      3     -16.0414      1.00000
      4     -15.7583      1.00000
      5     -15.5953      1.00000
      6     -15.4247      1.00000
      7     -12.5507      1.00000
      8     -10.4421      1.00000
      9      -8.1501      1.00000
     10      -7.6341      1.00000
     11      -7.3960      1.00000
     12      -6.8128      1.00000
     13      -6.7077      1.00000
     14      -6.2646      1.00000
     15      -6.1469      1.00000
     16      -5.9577      1.00000
     17      -5.8092      1.00000
     18      -5.4487      1.00000
     19      -5.4258      1.00000
     20      -5.1424      1.00000
     21      -5.0864      1.00000
     22      -4.4296      1.00000
     23      -4.1797      1.00000
     24      -4.0808      1.00000
     25      -3.8658      1.00000
     26      -3.5368      1.00000
     27      -2.9654      1.00000
     28      -2.8691      1.00000
     29      -2.7407      1.00000
     30      -2.5847      1.00000
     31      -2.3267      0.00000
     32      -2.0510      0.00000
     33      -1.2970      0.00000
     34      -1.2651      0.00000
     35      -0.9655      0.00000
     36      -0.6966      0.00000
     37      -0.4366      0.00000
     38       0.0124      0.00000
     39       0.4548      0.00000
     40       1.2302      0.00000
     41       1.3116      0.00000
     42       1.3678      0.00000
     43       2.7574      0.00000
     44       2.8801      0.00000
     45       3.0029      0.00000
     46       3.0188      0.00000
     47       3.3628      0.00000
     48       3.6427      0.00000


--------------------------------------------------------------------------------------------------------


 soft charge-density along one line, spin component           1
         0         1         2         3         4         5         6         7         8         9
 total charge-density along one line

 soft charge-density along one line, spin component           2
         0         1         2         3         4         5         6         7         8         9
 total charge-density along one line

 pseudopotential strength for first ion, spin component:           1
-10.423  -0.105  -0.000   0.018   0.000   0.744   0.031   0.000
 -0.105 -10.691   0.000   0.000   0.018   0.031   0.823  -0.000
 -0.000   0.000 -11.160   0.000   0.000   0.000  -0.000   0.958
  0.018   0.000   0.000 -10.691   0.105  -0.005  -0.000  -0.000
  0.000   0.018   0.000   0.105 -10.423  -0.000  -0.005  -0.000
  0.744   0.031   0.000  -0.005  -0.000   0.521  -0.010  -0.000
  0.031   0.823  -0.000  -0.000  -0.005  -0.010   0.498   0.000
  0.000  -0.000   0.958  -0.000  -0.000  -0.000   0.000   0.460
 -0.005  -0.000  -0.000   0.823  -0.031   0.002   0.000   0.000
 -0.000  -0.005  -0.000  -0.031   0.744   0.000   0.002   0.000
 -0.000  -0.000   0.084  -0.000   0.000  -0.000  -0.000  -0.021
  0.000   0.000  -0.009   0.000  -0.000  -0.000  -0.000   0.002
 -0.000   0.003   0.000  -0.000   0.002   0.000  -0.001  -0.000
 -0.000  -0.000   0.002  -0.000  -0.000  -0.000   0.000  -0.000
  0.002  -0.000   0.000   0.003   0.000  -0.000  -0.000  -0.000
  0.000  -0.002  -0.000   0.000  -0.002  -0.000   0.000   0.000
  0.000   0.000  -0.001   0.000   0.000  -0.000  -0.000   0.000
 -0.002   0.000  -0.000  -0.002  -0.000   0.000  -0.000   0.000
 pseudopotential strength for first ion, spin component:           2
 -9.708  -0.020  -0.000  -0.009   0.000   0.530   0.007   0.000
 -0.020 -10.048   0.000   0.000  -0.009   0.007   0.625  -0.000
 -0.000   0.000  -9.687   0.000   0.000   0.000  -0.000   0.527
 -0.009   0.000   0.000 -10.048   0.020   0.002  -0.000  -0.000
  0.000  -0.009   0.000   0.020  -9.708  -0.000   0.002  -0.000
  0.530   0.007   0.000   0.002  -0.000   0.585  -0.003  -0.000
  0.007   0.625  -0.000  -0.000   0.002  -0.003   0.559   0.000
  0.000  -0.000   0.527  -0.000  -0.000  -0.000   0.000   0.584
  0.002  -0.000  -0.000   0.625  -0.007  -0.001   0.000   0.000
 -0.000   0.002  -0.000  -0.007   0.530   0.000  -0.001   0.000
 -0.000  -0.000   0.013  -0.000   0.000  -0.000  -0.000  -0.007
  0.000   0.000  -0.003   0.000  -0.000  -0.000  -0.000   0.001
  0.000   0.003   0.000  -0.000   0.002   0.000  -0.001  -0.000
 -0.000  -0.000   0.005  -0.000  -0.000  -0.000   0.000  -0.001
  0.002  -0.000   0.000   0.003  -0.000  -0.000  -0.000  -0.000
 -0.000  -0.002  -0.000   0.000  -0.002   0.000   0.001   0.000
  0.000   0.000  -0.002   0.000   0.000  -0.000  -0.000   0.001
 -0.002   0.000  -0.000  -0.002   0.000   0.000  -0.000   0.000
 total augmentation occupancy for first ion, spin component:           1
  1.535  -0.335   0.000   0.034  -0.000   0.115   0.194   0.000  -0.007   0.000   0.000   0.000  -0.005  -0.000   0.019  -0.000
 -0.335   1.398  -0.000  -0.000   0.034   0.152   0.224   0.000   0.000  -0.003   0.000   0.000   0.004   0.000   0.010   0.001
  0.000  -0.000   1.153  -0.000  -0.000   0.000   0.000  -0.062   0.000  -0.000   0.009   0.057  -0.000  -0.003   0.000  -0.000
  0.034  -0.000  -0.000   1.398   0.335  -0.003  -0.000   0.000   0.224  -0.152   0.000  -0.000  -0.010   0.000   0.004   0.000
 -0.000   0.034  -0.000   0.335   1.535  -0.000  -0.007  -0.000  -0.194   0.115  -0.000  -0.000   0.019   0.000   0.005  -0.000
  0.115   0.152   0.000  -0.003  -0.000   0.126   0.066   0.000  -0.002  -0.000   0.000  -0.000   0.006  -0.000   0.021  -0.000
  0.194   0.224   0.000  -0.000  -0.007   0.066   0.188   0.000  -0.000  -0.002  -0.000  -0.000   0.003   0.000  -0.008  -0.000
  0.000   0.000  -0.062   0.000  -0.000   0.000   0.000   0.117   0.000  -0.000   0.037  -0.019  -0.000  -0.006   0.000   0.000
 -0.007   0.000   0.000   0.224  -0.194  -0.002  -0.000   0.000   0.188  -0.066   0.000   0.000   0.008  -0.000   0.003  -0.000
  0.000  -0.003  -0.000  -0.152   0.115  -0.000  -0.002  -0.000  -0.066   0.126  -0.000   0.000   0.021   0.000  -0.006  -0.003
  0.000   0.000   0.009  -0.000  -0.000   0.000   0.000   0.037   0.000  -0.000   1.107  -0.260   0.000   0.002   0.000   0.000
  0.000   0.000   0.057  -0.000  -0.000  -0.000  -0.000  -0.019   0.000   0.000  -0.260   0.125   0.000  -0.002   0.000   0.000
 -0.005   0.004  -0.000  -0.010   0.019   0.006   0.003  -0.000   0.008   0.021   0.000  -0.000   0.191  -0.000  -0.000  -0.012
 -0.000   0.000  -0.003   0.000   0.000  -0.000   0.000  -0.006  -0.000   0.000   0.002  -0.002   0.000   0.197  -0.000   0.000
  0.019   0.010   0.000   0.004   0.005   0.021  -0.008   0.000   0.003  -0.006   0.000   0.000  -0.000  -0.000   0.191   0.000
 -0.000   0.001  -0.000   0.000  -0.000  -0.000  -0.000   0.000  -0.000  -0.003   0.000   0.000  -0.012   0.000   0.000   0.001
  0.000   0.000   0.002   0.000  -0.000   0.000   0.000   0.000   0.000  -0.000   0.000   0.000   0.000  -0.013   0.000  -0.000
 -0.000  -0.000  -0.000   0.001   0.000  -0.003   0.000  -0.000  -0.000   0.000   0.000  -0.000  -0.000   0.000  -0.012  -0.000
 total augmentation occupancy for first ion, spin component:           2
  0.140   0.060   0.000  -0.022  -0.000  -0.078  -0.009  -0.000   0.007  -0.002   0.000   0.000   0.003   0.000  -0.001   0.000
  0.060   0.084   0.000  -0.000  -0.022   0.007  -0.058   0.000  -0.002   0.003   0.000   0.000   0.000   0.000   0.004   0.000
  0.000   0.000   0.783   0.000  -0.000  -0.000  -0.000  -0.191   0.000   0.000   0.007   0.063   0.000   0.010   0.000  -0.000
 -0.022  -0.000   0.000   0.084  -0.060   0.003   0.002   0.000  -0.058  -0.007  -0.000  -0.000  -0.004  -0.000   0.000  -0.000
 -0.000  -0.022  -0.000  -0.060   0.140   0.002   0.007   0.000   0.009  -0.078  -0.000  -0.000  -0.001  -0.000  -0.003   0.000
 -0.078   0.007  -0.000   0.003   0.002  -0.004  -0.016   0.000  -0.000  -0.000   0.000  -0.000   0.000  -0.000  -0.002   0.000
 -0.009  -0.058  -0.000   0.002   0.007  -0.016  -0.020  -0.000   0.000  -0.000   0.000   0.000  -0.000   0.000  -0.003  -0.000
 -0.000   0.000  -0.191   0.000   0.000   0.000  -0.000   0.036  -0.000  -0.000   0.012  -0.010   0.000  -0.002  -0.000   0.000
  0.007  -0.002   0.000  -0.058   0.009  -0.000   0.000  -0.000  -0.020   0.016   0.000   0.000   0.003  -0.000  -0.000   0.000
 -0.002   0.003   0.000  -0.007  -0.078  -0.000  -0.000  -0.000   0.016  -0.004  -0.000   0.000  -0.002   0.000  -0.000   0.000
  0.000   0.000   0.007  -0.000  -0.000   0.000   0.000   0.012   0.000  -0.000   0.049   0.039   0.000   0.001   0.000   0.000
  0.000   0.000   0.063  -0.000  -0.000  -0.000   0.000  -0.010   0.000   0.000   0.039  -0.014   0.000   0.000   0.000   0.000
  0.003   0.000   0.000  -0.004  -0.001   0.000  -0.000   0.000   0.003  -0.002   0.000   0.000   0.004  -0.000  -0.000   0.001
  0.000   0.000   0.010  -0.000  -0.000  -0.000   0.000  -0.002  -0.000   0.000   0.001   0.000  -0.000   0.008   0.000  -0.000
 -0.001   0.004   0.000   0.000  -0.003  -0.002  -0.003  -0.000  -0.000  -0.000   0.000   0.000  -0.000   0.000   0.004   0.000
  0.000   0.000  -0.000  -0.000   0.000   0.000  -0.000   0.000   0.000   0.000   0.000   0.000   0.001   0.000   0.000  -0.000
  0.000   0.000   0.001   0.000  -0.000  -0.000  -0.000  -0.000  -0.000   0.000   0.000   0.000   0.000   0.001  -0.000   0.000
  0.000   0.000   0.000   0.000  -0.000   0.000  -0.000   0.000  -0.000  -0.000   0.000   0.000  -0.000  -0.000   0.001   0.000


------------------------ aborting loop because EDIFF is reached ----------------------------------------





 total charge     

# of ion       s       p       d       tot
------------------------------------------
    1        0.378   0.469   6.329   7.177
    2        0.371   0.473   6.439   7.284
    3        1.152   1.135   0.106   2.394
    4        1.068   1.363   0.000   2.432
    5        1.494   2.255   0.057   3.806
    6        1.486   2.252   0.059   3.797
    7        1.493   2.249   0.058   3.800
    8        1.488   2.274   0.047   3.809
    9        1.483   2.294   0.047   3.824
   10        1.486   2.289   0.048   3.822
--------------------------------------------------
tot         11.898  17.053  13.190  42.142



 magnetization (x)

# of ion       s       p       d       tot
------------------------------------------
    1        0.010   0.009   1.231   1.250
    2        0.001   0.004  -0.209  -0.204
    3        0.001   0.005   0.000   0.005
    4        0.001   0.005   0.000   0.007
    5        0.001  -0.017   0.000  -0.015
    6        0.000  -0.007   0.000  -0.006
    7        0.001  -0.011   0.000  -0.010
    8        0.001  -0.016   0.000  -0.015
    9       -0.000  -0.009   0.000  -0.009
   10        0.000  -0.017   0.000  -0.016
--------------------------------------------------
tot          0.016  -0.054   1.023   0.985

    CHARGE:  cpu time    2.0440: real time    2.0532
    FORLOC:  cpu time    0.0640: real time    0.0630
    FORNL :  cpu time    6.7520: real time    6.8607
    STRESS:  cpu time   20.5400: real time   20.6406
    FORCOR:  cpu time   51.3200: real time   51.5612
    FORHAR:  cpu time    0.3320: real time    0.3338
    MIXING:  cpu time    0.0440: real time    0.0443
    OFIELD:  cpu time    0.0000: real time    0.0001

  FORCE on cell =-STRESS in cart. coord.  units (eV):
  Direction    XX          YY          ZZ          XY          YZ          ZX
  --------------------------------------------------------------------------------------
  Alpha Z    49.65697    49.65697    49.65697
  Ewald   10367.65112 10367.64862-12287.01134    -0.00193    -0.00053    -0.00096
  Hartree 10859.14039 10859.14118-10530.04412    -0.00024     0.00006     0.00011
  E(xc)    -246.31017  -246.31018  -245.84305     0.00002     0.00001     0.00001
  Local  -21980.96431-21980.96388 22027.85282     0.00173     0.00028     0.00052
  n-local   265.68616   265.94549   274.14130    -0.01697     0.08472     0.12876
  augment    43.51590    43.51601    36.12046    -0.00102     0.00004     0.00001
  Kinetic   643.84532   639.07726   675.00863    -2.67579     1.28737     1.59085
  Fock        0.00000     0.00000     0.00000     0.00000     0.00000     0.00000
  -------------------------------------------------------------------------------------
  Total      -0.03358    -0.03358    -0.11832     0.00000     0.00000    -0.00000
  in kB      -0.07434    -0.07434    -0.26197     0.00000     0.00000    -0.00000
  external pressure =       -0.14 kB  Pullay stress =        0.00 kB


 VOLUME and BASIS-vectors are now :
 -----------------------------------------------------------------------------
  energy-cutoff  :      520.00
  volume of cell :      723.65
      direct lattice vectors                 reciprocal lattice vectors
     6.245519951 -0.000000182 -0.000000000     0.160114769 -0.092442305  0.000000000
     3.122759779  5.408778588 -0.000000000     0.000000005  0.184884622 -0.000000000
    -0.000000000  0.000000000 21.421993496     0.000000000  0.000000000  0.046680996

  length of vectors
     6.245519951  6.245519550 21.421993496     0.184884610  0.184884622  0.046680996


 FORCES acting on ions
    electron-ion (+dipol)            ewald-force                    non-local-force                 convergence-correction
 -----------------------------------------------------------------------------------------------
   -.275E-04 -.295E-04 0.357E+01   0.633E-03 0.378E-03 -.404E+01   -.141E-16 0.593E-19 0.461E+00   0.292E-06 0.574E-07 0.125E-01
   0.596E-05 0.249E-04 0.529E+01   -.587E-03 -.352E-03 -.565E+01   0.276E-16 0.476E-19 0.370E+00   0.104E-06 -.307E-06 0.130E-01
   -.404E-04 -.109E-04 0.237E+03   -.172E-03 -.964E-04 -.235E+03   0.408E-17 0.674E-17 -.154E+01   0.249E-07 0.143E-07 0.552E-02
   0.353E-04 0.310E-04 -.296E+03   0.233E-03 0.130E-03 0.294E+03   0.313E-18 -.199E-17 0.140E+01   -.445E-08 0.526E-09 0.104E-01
   -.160E+02 -.410E+01 -.466E+03   0.135E+02 0.398E+01 0.468E+03   0.245E+01 0.845E-01 -.235E+01   0.555E-02 0.134E-01 0.107E-01
   0.444E+01 0.159E+02 -.466E+03   -.333E+01 -.137E+02 0.468E+03   -.115E+01 -.216E+01 -.235E+01   0.884E-02 -.115E-01 0.107E-01
   0.115E+02 -.118E+02 -.466E+03   -.102E+02 0.974E+01 0.468E+03   -.130E+01 0.208E+01 -.235E+01   -.144E-01 -.190E-02 0.107E-01
   0.250E+02 -.235E+01 0.482E+03   -.227E+02 0.229E+01 -.485E+03   -.228E+01 0.317E-01 0.244E+01   -.644E-03 0.131E-01 0.158E-02
   -.145E+02 -.204E+02 0.482E+03   0.133E+02 0.185E+02 -.485E+03   0.117E+01 0.196E+01 0.244E+01   0.116E-01 -.598E-02 0.158E-02
   -.104E+02 0.228E+02 0.482E+03   0.937E+01 -.208E+02 -.485E+03   0.111E+01 -.199E+01 0.244E+01   -.110E-01 -.709E-02 0.158E-02
 -----------------------------------------------------------------------------------------------
   0.794E-04 0.524E-04 -.105E+01   -.711E-14 0.107E-13 0.000E+00   0.222E-15 0.000E+00 0.966E+00   0.436E-06 -.220E-06 0.784E-01


 POSITION                                       TOTAL-FORCE (eV/Angst)
 -----------------------------------------------------------------------------------
      3.12276      1.80292     10.73784        -0.000000      0.000000      0.005638
      6.24552      3.60585     10.74197         0.000000      0.000000      0.028573
     -0.00000      0.00000      9.60168        -0.000000      0.000000      0.036977
     -0.00000      0.00000     11.93551        -0.000000      0.000000      0.002610
      3.88911     -0.01852     12.17457         0.008641     -0.020174     -0.020014
      1.16216      2.04997     12.17457        -0.021792      0.002604     -0.020014
      4.31701      3.37733     12.17457         0.013151      0.017570     -0.020014
      5.52586      5.39809      9.23815        -0.014969     -0.017880     -0.004585
      8.15747      3.33297      9.23815        -0.008000      0.021903     -0.004585
      5.05322      2.08649      9.23815         0.022968     -0.004023     -0.004585
 -----------------------------------------------------------------------------------
    total drift:                                0.000080      0.000052     -0.008524


--------------------------------------------------------------------------------------------------------



  FREE ENERGIE OF THE ION-ELECTRON SYSTEM (eV)
  ---------------------------------------------------
  free  energy   TOTEN  =       -43.52123517 eV

  energy  without entropy=      -43.52123517  energy(sigma->0) =      -43.52123517

 d Force =-0.1762165E-03[-0.238E-03,-0.115E-03]  d Energy = 0.2667502E-02-0.284E-02
 d Force =-0.9815523E+00[-0.984E+00,-0.979E+00]  d Ewald  =-0.2157076E+02 0.206E+02


--------------------------------------------------------------------------------------------------------


    POTLOK:  cpu time   52.3680: real time   52.8299


--------------------------------------------------------------------------------------------------------




--------------------------------------------------------------------------------------------------------


  
 reached required accuracy - stopping structural energy minimisation
     LOOP+:  cpu time  768.4840: real time  773.7205
    4ORBIT:  cpu time    0.0000: real time    0.0000



 total charge     

# of ion       s       p       d       tot
------------------------------------------
    1        0.378   0.469   6.329   7.177
    2        0.371   0.473   6.439   7.284
    3        1.152   1.135   0.106   2.394
    4        1.068   1.363   0.000   2.432
    5        1.494   2.255   0.057   3.806
    6        1.486   2.252   0.059   3.797
    7        1.493   2.249   0.058   3.800
    8        1.488   2.274   0.047   3.809
    9        1.483   2.294   0.047   3.824
   10        1.486   2.289   0.048   3.822
--------------------------------------------------
tot         11.898  17.053  13.190  42.142



 magnetization (x)

# of ion       s       p       d       tot
------------------------------------------
    1        0.010   0.009   1.231   1.250
    2        0.001   0.004  -0.209  -0.204
    3        0.001   0.005   0.000   0.005
    4        0.001   0.005   0.000   0.007
    5        0.001  -0.017   0.000  -0.015
    6        0.000  -0.007   0.000  -0.006
    7        0.001  -0.011   0.000  -0.010
    8        0.001  -0.016   0.000  -0.015
    9       -0.000  -0.009   0.000  -0.009
   10        0.000  -0.017   0.000  -0.016
--------------------------------------------------
tot          0.016  -0.054   1.023   0.985

 BZINTS: Fermi energy: -2.443987; 61.000000 electrons
         Band energy:-470.668231;  BLOECHL correction: -0.004854

 total amount of memory used by VASP MPI-rank0   132329. kBytes
=======================================================================

   base      :      30000. kBytes
   nonlr-proj:       9829. kBytes
   fftplans  :      11247. kBytes
   grid      :      68332. kBytes
   one-center:        311. kBytes
   wavefun   :      12610. kBytes

  
  
 General timing and accounting informations for this job:
 ========================================================
  
                  Total CPU time used (sec):    19340.316
                            User time (sec):    18902.488
                          System time (sec):      437.828
                         Elapsed time (sec):    19475.698
  
                   Maximum memory used (kb):      389164.
                   Average memory used (kb):           0.
  
                          Minor page faults:     18091307
                          Major page faults:            7
                 Voluntary context switches:         1099
