 vasp.5.4.4.18Apr17-6-g9f103f2a35 (build May  1 2020 15:48:39) complex           
 executed on             LinuxGNU date 2020.07.08  14:29:21
 running on   16 total cores
 distrk:  each k-point on   16 cores,    1 groups
 distr:  one band on NCORES_PER_BAND=   1 cores,   16 groups


--------------------------------------------------------------------------------------------------------


 INCAR:
 POTCAR:   PAW_PBE Fe 06Sep2000                   
 POTCAR:   PAW_PBE Si 05Jan2001                   
 POTCAR:    PAW_PBE P 17Jan2003                   
 POTCAR:    PAW_PBE S 17Jan2003                   

 ----------------------------------------------------------------------------- 
|                                                                             |
|           W    W    AA    RRRRR   N    N  II  N    N   GGGG   !!!           |
|           W    W   A  A   R    R  NN   N  II  NN   N  G    G  !!!           |
|           W    W  A    A  R    R  N N  N  II  N N  N  G       !!!           |
|           W WW W  AAAAAA  RRRRR   N  N N  II  N  N N  G  GGG   !            |
|           WW  WW  A    A  R   R   N   NN  II  N   NN  G    G                |
|           W    W  A    A  R    R  N    N  II  N    N   GGGG   !!!           |
|                                                                             |
|      For optimal performance we recommend to set                            |
|        NCORE= 4 - approx SQRT( number of cores)                             |
|      NCORE specifies how many cores store one orbital (NPAR=cpu/NCORE).     |
|      This setting can  greatly improve the performance of VASP for DFT.     |
|      The default,   NCORE=1            might be grossly inefficient         |
|      on modern multi-core architectures or massively parallel machines.     |
|      Do your own testing !!!!                                               |
|      Unfortunately you need to use the default for GW and RPA calculations. |
|      (for HF NCORE is supported but not extensively tested yet)             |
|                                                                             |
 ----------------------------------------------------------------------------- 


 ----------------------------------------------------------------------------- 
|                                                                             |
|  ADVICE TO THIS USER RUNNING 'VASP/VAMP'   (HEAR YOUR MASTER'S VOICE ...):  |
|                                                                             |
|      You have switched on vdW-DFT.                                          |
|      This routine was written and supplied by Jiri Klimes.                  |
|      We recommed that you carefully read and cite the following             |
|      publication                                                            |
|      J. Klimes, D.R. Bowler, A. Michelides                                  |
|        J. Phys.: Cond Matt. 22 022201 (2010)                                |
|      J. Klimes, D.R. Bowler, A. Michelides                                  |
|        Phys. Rev. B. 83, 195131 (2011)                                      |
|      and references therein.                                                |
|                                                                             |
 ----------------------------------------------------------------------------- 

 POTCAR:   PAW_PBE Fe 06Sep2000                   
   VRHFIN =Fe:  d7 s1                                                           
   LEXCH  = PE                                                                  
   EATOM  =   594.4687 eV,   43.6922 Ry                                         
                                                                                
   TITEL  = PAW_PBE Fe 06Sep2000                                                
   LULTRA =        F    use ultrasoft PP ?                                      
   IUNSCR =        1    unscreen: 0-lin 1-nonlin 2-no                           
   RPACOR =    2.000    partial core radius                                     
   POMASS =   55.847; ZVAL   =    8.000    mass and valenz                      
   RCORE  =    2.300    outmost cutoff radius                                   
   RWIGS  =    2.460; RWIGS  =    1.302    wigner-seitz radius (au A)           
   ENMAX  =  267.883; ENMIN  =  200.912 eV                                      
   RCLOC  =    1.701    cutoff for local pot                                    
   LCOR   =        T    correct aug charges                                     
   LPAW   =        T    paw PP                                                  
   EAUG   =  511.368                                                            
   DEXC   =    -.022                                                            
   RMAX   =    2.817    core radius for proj-oper                               
   RAUG   =    1.300    factor for augmentation sphere                          
   RDEP   =    2.442    radius for radial grids                                 
   QCUT   =   -4.437; QGAM   =    8.874    optimization parameters              
                                                                                
   Description                                                                  
     l     E      TYP  RCUT    TYP  RCUT                                        
     2   .000     23  2.300                                                     
     2   .000     23  2.300                                                     
     0   .000     23  2.300                                                     
     0   .000     23  2.300                                                     
     1  -.200     23  2.300                                                     
     1   .000     23  2.300                                                     
     3   .000      7   .000                                                     
  local pseudopotential read in
  partial core-charges read in
  atomic valenz-charges read in
  non local Contribution for L=           2  read in
    real space projection operators read in
  non local Contribution for L=           2  read in
    real space projection operators read in
  non local Contribution for L=           0  read in
    real space projection operators read in
  non local Contribution for L=           0  read in
    real space projection operators read in
  non local Contribution for L=           1  read in
    real space projection operators read in
  non local Contribution for L=           1  read in
    real space projection operators read in
    PAW grid and wavefunctions read in

   number of l-projection  operators is LMAX  =           6
   number of lm-projection operators is LMMAX =          18

 POTCAR:   PAW_PBE Si 05Jan2001                   
   VRHFIN =Si: s2p2                                                             
   LEXCH  = PE                                                                  
   EATOM  =   103.0669 eV,    7.5752 Ry                                         
                                                                                
   TITEL  = PAW_PBE Si 05Jan2001                                                
   LULTRA =        F    use ultrasoft PP ?                                      
   IUNSCR =        1    unscreen: 0-lin 1-nonlin 2-no                           
   RPACOR =    1.500    partial core radius                                     
   POMASS =   28.085; ZVAL   =    4.000    mass and valenz                      
   RCORE  =    1.900    outmost cutoff radius                                   
   RWIGS  =    2.480; RWIGS  =    1.312    wigner-seitz radius (au A)           
   ENMAX  =  245.345; ENMIN  =  184.009 eV                                      
   ICORE  =        2    local potential                                         
   LCOR   =        T    correct aug charges                                     
   LPAW   =        T    paw PP                                                  
   EAUG   =  322.069                                                            
   DEXC   =    -.007                                                            
   RMAX   =    2.944    core radius for proj-oper                               
   RAUG   =    1.300    factor for augmentation sphere                          
   RDEP   =    1.993    radius for radial grids                                 
   QCUT   =   -4.246; QGAM   =    8.493    optimization parameters              
                                                                                
   Description                                                                  
     l     E      TYP  RCUT    TYP  RCUT                                        
     0   .000     23  1.900                                                     
     0   .000     23  1.900                                                     
     1   .000     23  1.900                                                     
     1   .000     23  1.900                                                     
     2   .000      7  1.900                                                     
  local pseudopotential read in
  partial core-charges read in
  atomic valenz-charges read in
  non local Contribution for L=           0  read in
    real space projection operators read in
  non local Contribution for L=           0  read in
    real space projection operators read in
  non local Contribution for L=           1  read in
    real space projection operators read in
  non local Contribution for L=           1  read in
    real space projection operators read in
    PAW grid and wavefunctions read in

   number of l-projection  operators is LMAX  =           4
   number of lm-projection operators is LMMAX =           8

 POTCAR:    PAW_PBE P 17Jan2003                   
   VRHFIN =P : s2p3                                                             
   LEXCH  = PE                                                                  
   EATOM  =   176.0430 eV,   12.9388 Ry                                         
                                                                                
   TITEL  = PAW_PBE P 17Jan2003                                                 
   LULTRA =        F    use ultrasoft PP ?                                      
   IUNSCR =        1    unscreen: 0-lin 1-nonlin 2-no                           
   RPACOR =    1.500    partial core radius                                     
   POMASS =   30.974; ZVAL   =    5.000    mass and valenz                      
   RCORE  =    1.900    outmost cutoff radius                                   
   RWIGS  =    2.330; RWIGS  =    1.233    wigner-seitz radius (au A)           
   ENMAX  =  270.000; ENMIN  =  191.280 eV                                      
   ICORE  =        2    local potential                                         
   LCOR   =        T    correct aug charges                                     
   LPAW   =        T    paw PP                                                  
   EAUG   =  342.924                                                            
   DEXC   =    -.002                                                            
   RMAX   =    2.887    core radius for proj-oper                               
   RAUG   =    1.300    factor for augmentation sphere                          
   RDEP   =    1.931    radius for radial grids                                 
   QCUT   =   -4.330; QGAM   =    8.659    optimization parameters              
                                                                                
   Description                                                                  
     l     E      TYP  RCUT    TYP  RCUT                                        
     0   .000     23  1.900                                                     
     0   .000     23  1.900                                                     
     1   .000     23  1.900                                                     
     1   .000     23  1.900                                                     
     2   .000     23  1.900                                                     
  local pseudopotential read in
  partial core-charges read in
  atomic valenz-charges read in
  non local Contribution for L=           0  read in
    real space projection operators read in
  non local Contribution for L=           0  read in
    real space projection operators read in
  non local Contribution for L=           1  read in
    real space projection operators read in
  non local Contribution for L=           1  read in
    real space projection operators read in
    PAW grid and wavefunctions read in

   number of l-projection  operators is LMAX  =           4
   number of lm-projection operators is LMMAX =           8

 POTCAR:    PAW_PBE S 17Jan2003                   
   VRHFIN =S : s2p4                                                             
   LEXCH  = PE                                                                  
   EATOM  =   276.8230 eV,   20.3459 Ry                                         
                                                                                
   TITEL  = PAW_PBE S 17Jan2003                                                 
   LULTRA =        F    use ultrasoft PP ?                                      
   IUNSCR =        1    unscreen: 0-lin 1-nonlin 2-no                           
   RPACOR =    1.500    partial core radius                                     
   POMASS =   32.066; ZVAL   =    6.000    mass and valenz                      
   RCORE  =    1.900    outmost cutoff radius                                   
   RWIGS  =    2.200; RWIGS  =    1.164    wigner-seitz radius (au A)           
   ENMAX  =  280.000; ENMIN  =  194.016 eV                                      
   ICORE  =        2    local potential                                         
   LCOR   =        T    correct aug charges                                     
   LPAW   =        T    paw PP                                                  
   EAUG   =  335.092                                                            
   DEXC   =     .000                                                            
   RMAX   =    2.867    core radius for proj-oper                               
   RAUG   =    1.300    factor for augmentation sphere                          
   RDEP   =    1.954    radius for radial grids                                 
   QCUT   =   -4.360; QGAM   =    8.721    optimization parameters              
                                                                                
   Description                                                                  
     l     E      TYP  RCUT    TYP  RCUT                                        
     0   .000     23  1.900                                                     
     0   .000     23  1.900                                                     
     1   .000     23  1.900                                                     
     1   .000     23  1.900                                                     
     2   .000     23  1.900                                                     
  local pseudopotential read in
  partial core-charges read in
  atomic valenz-charges read in
  non local Contribution for L=           0  read in
    real space projection operators read in
  non local Contribution for L=           0  read in
    real space projection operators read in
  non local Contribution for L=           1  read in
    real space projection operators read in
  non local Contribution for L=           1  read in
    real space projection operators read in
    PAW grid and wavefunctions read in

   number of l-projection  operators is LMAX  =           4
   number of lm-projection operators is LMMAX =           8

 Optimization of the real space projectors (new method)

 maximal supplied QI-value         = 16.25
 optimisation between [QCUT,QGAM] = [ 11.54, 23.24] = [ 37.28,151.24] Ry 
 Optimized for a Real-space Cutoff    1.53 Angstroem

   l    n(q)    QCUT    max X(q) W(low)/X(q) W(high)/X(q)  e(spline) 
   2     10    11.539     4.378    0.86E-05    0.15E-04    0.46E-07
   2     10    11.539    23.237    0.11E-03    0.14E-03    0.22E-06
   0     11    11.539    17.641    0.19E-04    0.14E-05    0.18E-07
   0     11    11.539    50.908    0.43E-04    0.16E-04    0.30E-06
   1     10    11.539     6.148    0.11E-04    0.38E-05    0.26E-07
   1     10    11.539     8.345    0.44E-04    0.25E-04    0.11E-06
 Optimization of the real space projectors (new method)

 maximal supplied QI-value         = 19.84
 optimisation between [QCUT,QGAM] = [ 11.51, 23.22] = [ 37.09,150.92] Ry 
 Optimized for a Real-space Cutoff    1.21 Angstroem

   l    n(q)    QCUT    max X(q) W(low)/X(q) W(high)/X(q)  e(spline) 
   0      8    11.508     8.708    0.18E-04    0.44E-05    0.47E-08
   0      8    11.508   106.241    0.70E-04    0.15E-03    0.51E-07
   1      8    11.508     5.901    0.63E-05    0.23E-04    0.21E-07
   1      8    11.508    73.241    0.15E-03    0.36E-04    0.79E-07
 Optimization of the real space projectors (new method)

 maximal supplied QI-value         = 19.84
 optimisation between [QCUT,QGAM] = [ 11.51, 23.22] = [ 37.09,150.92] Ry 
 Optimized for a Real-space Cutoff    1.21 Angstroem

   l    n(q)    QCUT    max X(q) W(low)/X(q) W(high)/X(q)  e(spline) 
   0      8    11.508     6.651    0.19E-04    0.31E-05    0.49E-08
   0      8    11.508    90.285    0.95E-04    0.17E-03    0.51E-07
   1      8    11.508     4.328    0.14E-04    0.32E-04    0.22E-07
   1      8    11.508    54.583    0.16E-03    0.71E-04    0.89E-07
 Optimization of the real space projectors (new method)

 maximal supplied QI-value         = 19.84
 optimisation between [QCUT,QGAM] = [ 11.51, 23.22] = [ 37.09,150.92] Ry 
 Optimized for a Real-space Cutoff    1.21 Angstroem

   l    n(q)    QCUT    max X(q) W(low)/X(q) W(high)/X(q)  e(spline) 
   0      8    11.508     5.487    0.18E-04    0.22E-05    0.47E-08
   0      8    11.508    85.627    0.96E-04    0.18E-03    0.54E-07
   1      8    11.508     3.530    0.17E-04    0.28E-04    0.21E-07
   1      8    11.508    42.714    0.18E-03    0.63E-04    0.92E-07

 ----------------------------------------------------------------------------- 
|                                                                             |
|  ADVICE TO THIS USER RUNNING 'VASP/VAMP'   (HEAR YOUR MASTER'S VOICE ...):  |
|                                                                             |
|      You enforced a specific xc-type in the INCAR file,                     |
|      a different type was found on the POTCAR file                          |
|          I HOPE YOU KNOW, WHAT YOU ARE  DOING                               |
|                                                                             |
 ----------------------------------------------------------------------------- 

 PAW_PBE Fe 06Sep2000                   :
 energy of atom  1       EATOM= -594.4687
 kinetic energy error for atom=    0.0026 (will be added to EATOM!!)
 PAW_PBE Si 05Jan2001                   :
 energy of atom  2       EATOM= -103.0669
 kinetic energy error for atom=    0.0005 (will be added to EATOM!!)
  PAW_PBE P 17Jan2003                   :
 energy of atom  3       EATOM= -176.0430
 kinetic energy error for atom=    0.0011 (will be added to EATOM!!)
  PAW_PBE S 17Jan2003                   :
 energy of atom  4       EATOM= -276.8230
 kinetic energy error for atom=    0.0016 (will be added to EATOM!!)


 POSCAR: Fe2 Si P S6                             
  positions in direct lattice
  velocities in cartesian coordinates
  No initial velocities read in
 exchange correlation table for  LEXCH =       42
   RHO(1)=    0.500       N(1)  =     2000
   RHO(2)=  100.500       N(2)  =     4000



--------------------------------------------------------------------------------------------------------


 ion  position               nearest neighbor table
   1  0.333  0.333  0.500-   6 2.78   5 2.78   7 2.78   8 2.78  10 2.78   9 2.78
   2  0.667  0.667  0.500-   9 2.78   8 2.78  10 2.78   5 2.78   7 2.78   6 2.78
   3  0.000  0.000  0.448-   4 2.43   8 2.63  10 2.63   9 2.63
   4  0.000  0.000  0.552-   3 2.43   5 2.63   7 2.63   6 2.63
   5  0.626  0.000  0.574-   4 2.63   1 2.78   2 2.78
   6  0.000  0.373  0.574-   4 2.63   1 2.78   2 2.78
   7  0.373  0.626  0.574-   4 2.63   1 2.78   2 2.78
   8  0.374  1.000  0.426-   3 2.63   2 2.78   1 2.78
   9  1.000  0.627  0.426-   3 2.63   2 2.78   1 2.78
  10  0.627  0.374  0.426-   3 2.63   2 2.78   1 2.78

  LATTYP: Found a hexagonal cell.
 ALAT       =     6.9077769333
 C/A-ratio  =     3.3939410937
  
  Lattice vectors:
  
 A1 = (   3.4538890000,  -5.9823100000,   0.0000000000)
 A2 = (  -6.9077770000,   0.0000000000,   0.0000000000)
 A3 = (   0.0000000000,   0.0000000000, -23.4445880000)


Analysis of symmetry for initial positions (statically):
=====================================================================
 Subroutine PRICEL returns:
 Original cell was already a primitive cell.
 

 Routine SETGRP: Setting up the symmetry group for a 
 hexagonal supercell.


 Subroutine GETGRP returns: Found  3 space group operations
 (whereof  3 operations were pure point group operations)
 out of a pool of 24 trial point group operations.


The static configuration has the point symmetry C_3 .


Analysis of symmetry for dynamics (positions and initial velocities):
=====================================================================
 Subroutine PRICEL returns:
 Original cell was already a primitive cell.
 

 Routine SETGRP: Setting up the symmetry group for a 
 hexagonal supercell.


 Subroutine GETGRP returns: Found  3 space group operations
 (whereof  3 operations were pure point group operations)
 out of a pool of 24 trial point group operations.


The dynamic configuration has the point symmetry C_3 .


Analysis of constrained symmetry for selective dynamics:
=====================================================================
 Subroutine PRICEL returns:
 Original cell was already a primitive cell.
 

 Routine SETGRP: Setting up the symmetry group for a 
 hexagonal supercell.


 Subroutine GETGRP returns: Found  3 space group operations
 (whereof  3 operations were pure point group operations)
 out of a pool of 24 trial point group operations.


The constrained configuration has the point symmetry C_3 .


Analysis of structural, dynamic, and magnetic symmetry:
=====================================================================
 Subroutine PRICEL returns:
 Original cell was already a primitive cell.
 

 Routine SETGRP: Setting up the symmetry group for a 
 hexagonal supercell.


 Subroutine GETGRP returns: Found  3 space group operations
 (whereof  3 operations were pure point group operations)
 out of a pool of 24 trial point group operations.


The magnetic configuration has the point symmetry C_3 .


 Subroutine INISYM returns: Found  3 space group operations
 (whereof  3 operations are pure point group operations),
 and found     1 'primitive' translations



 KPOINTS: Kpoints from vasprun.xml                

Automatic generation of k-mesh.
Space group operators:
 irot       det(A)        alpha          n_x          n_y          n_z        tau_x        tau_y        tau_z
    1     1.000000     0.000000     1.000000     0.000000     0.000000     0.000000     0.000000     0.000000
    2     1.000000   120.000000     0.000000     0.000000     1.000000     0.000000     0.000000     0.000000
    3     1.000000   120.000000     0.000000     0.000000    -1.000000     0.000000     0.000000     0.000000
 
 Subroutine IBZKPT returns following result:
 ===========================================
 
 Found      5 irreducible k-points:
 
 Following reciprocal coordinates:
            Coordinates               Weight
  0.000000  0.000000  0.000000      1.000000
  0.200000  0.000000  0.000000      6.000000
  0.400000  0.000000  0.000000      6.000000
  0.400000  0.200000  0.000000      6.000000
 -0.400000  0.200000  0.000000      6.000000
 
 Following cartesian coordinates:
            Coordinates               Weight
  0.000000  0.000000  0.000000      1.000000
  0.028953 -0.016716  0.000000      6.000000
  0.057906 -0.033432  0.000000      6.000000
  0.057906  0.000000  0.000000      6.000000
 -0.057906  0.066864  0.000000      6.000000
 
 TETIRR: Found     15 inequivalent tetrahedra from      150


--------------------------------------------------------------------------------------------------------




 Dimension of arrays:
   k-points           NKPTS =      5   k-points in BZ     NKDIM =      5   number of bands    NBANDS=     48
   number of dos      NEDOS =    301   number of ions     NIONS =     10
   non local maximal  LDIM  =      6   non local SUM 2l+1 LMDIM =     18
   total plane-waves  NPLWV = 524880
   max r-space proj   IRMAX =   8238   max aug-charges    IRDMAX=  19496
   dimension x,y,z NGX =    54 NGY =   54 NGZ =  180
   dimension x,y,z NGXF=   108 NGYF=  108 NGZF=  360
   support grid    NGXF=   108 NGYF=  108 NGZF=  360
   ions per type =               2   1   1   6
   NGX,Y,Z   is equivalent  to a cutoff of  13.00, 13.00, 12.76 a.u.
   NGXF,Y,Z  is equivalent  to a cutoff of  25.99, 25.99, 25.53 a.u.

 SYSTEM =  unknown system                          
 POSCAR =  Fe2 Si P S6                             

 Startparameter for this run:
   NWRITE =      2    write-flag & timer
   PREC   = accura    normal or accurate (medium, high low for compatibility)
   ISTART =      0    job   : 0-new  1-cont  2-samecut
   ICHARG =      2    charge: 1-file 2-atom 10-const
   ISPIN  =      2    spin polarized calculation?
   LNONCOLLINEAR =      F non collinear calculations
   LSORBIT =      F    spin-orbit coupling
   INIWAV =      1    electr: 0-lowe 1-rand  2-diag
   LASPH  =      F    aspherical Exc in radial PAW
   METAGGA=      F    non-selfconsistent MetaGGA calc.

 Electronic Relaxation 1
   ENCUT  =  520.0 eV  38.22 Ry    6.18 a.u.  12.84 12.84 43.59*2*pi/ulx,y,z
   ENINI  =  520.0     initial cutoff
   ENAUG  =  511.4 eV  augmentation charge cutoff
   NELM   =    400;   NELMIN=  2; NELMDL=  0     # of ELM steps 
   EDIFF  = 0.1E-03   stopping-criterion for ELM
   LREAL  =      T    real-space projection
   NLSPLINE    = F    spline interpolate recip. space projectors
   LCOMPAT=      F    compatible to vasp.4.4
   GGA_COMPAT  = T    GGA compatible to vasp.4.4-vasp.4.6
   LMAXPAW     = -100 max onsite density
   LMAXMIX     =    2 max onsite mixed and CHGCAR
   VOSKOWN=      0    Vosko Wilk Nusair interpolation
   ROPT   =   -0.00025  -0.00025  -0.00025  -0.00025
 Ionic relaxation
   EDIFFG = 0.1E-02   stopping-criterion for IOM
   NSW    =     99    number of steps for IOM
   NBLOCK =      1;   KBLOCK =     99    inner block; outer block 
   IBRION =      2    ionic relax: 0-MD 1-quasi-New 2-CG
   NFREE  =      1    steps in history (QN), initial steepest desc. (CG)
   ISIF   =      3    stress and relaxation
   IWAVPR =     11    prediction:  0-non 1-charg 2-wave 3-comb
   ISYM   =      2    0-nonsym 1-usesym 2-fastsym
   LCORR  =      T    Harris-Foulkes like correction to forces

   POTIM  = 0.5000    time-step for ionic-motion
   TEIN   =    0.0    initial temperature
   TEBEG  =    0.0;   TEEND  =   0.0 temperature during run
   SMASS  =  -3.00    Nose mass-parameter (am)
   estimated Nose-frequenzy (Omega)   =  0.10E-29 period in steps =****** mass=  -0.109E-26a.u.
   SCALEE = 1.0000    scale energy and forces
   NPACO  =    256;   APACO  = 16.0  distance and # of slots for P.C.
   PSTRESS=    0.0 pullay stress

  Mass of Ions in am
   POMASS =  55.85 28.09 30.97 32.07
  Ionic Valenz
   ZVAL   =   8.00  4.00  5.00  6.00
  Atomic Wigner-Seitz radii
   RWIGS  =  -1.00 -1.00 -1.00 -1.00
  virtual crystal weights 
   VCA    =   1.00  1.00  1.00  1.00
   NELECT =      61.0000    total number of electrons
   NUPDOWN=      -1.0000    fix difference up-down

 DOS related values:
   EMIN   =  10.00;   EMAX   =-10.00  energy-range for DOS
   EFERMI =   0.00
   ISMEAR =    -5;   SIGMA  =   0.05  broadening in eV -4-tet -1-fermi 0-gaus

 Electronic relaxation 2 (details)
   IALGO  =     38    algorithm
   LDIAG  =      T    sub-space diagonalisation (order eigenvalues)
   LSUBROT=      F    optimize rotation matrix (better conditioning)
   TURBO    =      0    0=normal 1=particle mesh
   IRESTART =      0    0=no restart 2=restart with 2 vectors
   NREBOOT  =      0    no. of reboots
   NMIN     =      0    reboot dimension
   EREF     =   0.00    reference energy to select bands
   IMIX   =      4    mixing-type and parameters
     AMIX     =   0.40;   BMIX     =  1.00
     AMIX_MAG =   1.60;   BMIX_MAG =  1.00
     AMIN     =   0.01
     WC   =   100.;   INIMIX=   1;  MIXPRE=   1;  MAXMIX= -45

 Intra band minimization:
   WEIMIN = 0.0010     energy-eigenvalue tresh-hold
   EBREAK =  0.52E-06  absolut break condition
   DEPER  =   0.30     relativ break condition  

   TIME   =   0.40     timestep for ELM

  volume/ion in A,a.u.               =      96.88       653.80
  Fermi-wavevector in a.u.,A,eV,Ry     =   0.651281  1.230742  5.771135  0.424166
  Thomas-Fermi vector in A             =   1.720830

 Write flags
   LWAVE        =      F    write WAVECAR
   LDOWNSAMPLE  =      F    k-point downsampling of WAVECAR
   LCHARG       =      T    write CHGCAR
   LVTOT        =      F    write LOCPOT, total local potential
   LVHAR        =      F    write LOCPOT, Hartree potential only
   LELF         =      F    write electronic localiz. function (ELF)
   LORBIT       =     11    0 simple, 1 ext, 2 COOP (PROOUT), +10 PAW based schemes


 Dipole corrections
   LMONO  =      F    monopole corrections only (constant potential shift)
   LDIPOL =      F    correct potential (dipole corrections)
   IDIPOL =      0    1-x, 2-y, 3-z, 4-all directions 
   EPSILON=  1.0000000 bulk dielectric constant

 Exchange correlation treatment:
   GGA     =    BO    GGA type
   LEXCH   =    42    internal setting for exchange type
   VOSKOWN=      0    Vosko Wilk Nusair interpolation
   LHFCALC =     F    Hartree Fock is set to
   LHFONE  =     F    Hartree Fock one center treatment
   AEXX    =    0.0000 exact exchange contribution

 vdW DFT:
   LUSE_VDW   =     T    switch on vdW DFT
   Zab_VDW    =-.8491    correlation parameter
   PARAM1     =0.1833
   PARAM2     =0.2200
   PARAM3     =0.0000
   -- rVV10 --
   BPARAM     = 6.3000
   CPARAM     = 0.0093

 Linear response parameters
   LEPSILON=     F    determine dielectric tensor
   LRPA    =     F    only Hartree local field effects (RPA)
   LNABLA  =     F    use nabla operator in PAW spheres
   LVEL    =     F    velocity operator in full k-point grid
   LINTERFAST=   F  fast interpolation
   KINTER  =     0    interpolate to denser k-point grid
   CSHIFT  =0.1000    complex shift for real part using Kramers Kronig
   OMEGAMAX=  -1.0    maximum frequency
   DEG_THRESHOLD= 0.2000000E-02 threshold for treating states as degnerate
   RTIME   =   -0.100 relaxation time in fs
  (WPLASMAI=    0.000 imaginary part of plasma frequency in eV, 0.658/RTIME)
   DFIELD  = 0.0000000 0.0000000 0.0000000 field for delta impulse in time

 Orbital magnetization related:
   ORBITALMAG=     F  switch on orbital magnetization
   LCHIMAG   =     F  perturbation theory with respect to B field
   DQ        =  0.001000  dq finite difference perturbation B field
   LLRAUG    =     F  two centre corrections for induced B field



--------------------------------------------------------------------------------------------------------


 conjugate gradient relaxation of ions
   using selective dynamics as specified on POSCAR
 charge density and potential will be updated during run
 spin polarized calculation
 Variant of blocked Davidson
 Davidson routine will perform the subspace rotation
 perform sub-space diagonalisation
    after iterative eigenvector-optimisation
 modified Broyden-mixing scheme, WC =      100.0
 initial mixing is a Kerker type mixing with AMIX =  0.4000 and BMIX =      1.0000
 Hartree-type preconditioning will be used
 using additional bands           17
 real space projection scheme for non local part
 use partial core corrections
 calculate Harris-corrections to forces   (improved forces if not selfconsistent)
 use gradient corrections 
 use of overlap-Matrix (Vanderbilt PP)
 Fermi weights with tetrahedron method with Bloechl corrections


--------------------------------------------------------------------------------------------------------


  energy-cutoff  :      520.00
  volume of cell :      968.84
      direct lattice vectors                 reciprocal lattice vectors
     6.907777000 -0.000000000  0.000000000     0.144764372 -0.083579742  0.000000000
     3.453888000  5.982310000  0.000000000     0.000000000  0.167159509 -0.000000000
     0.000000000  0.000000000 23.444588000    -0.000000000  0.000000000  0.042653767

  length of vectors
     6.907777000  6.907776433 23.444588000     0.167159495  0.167159509  0.042653767



 k-points in units of 2pi/SCALE and weight: Kpoints from vasprun.xml                
   0.00000000  0.00000000  0.00000000       0.040
   0.02895287 -0.01671595  0.00000000       0.240
   0.05790575 -0.03343190  0.00000000       0.240
   0.05790575  0.00000000  0.00000000       0.240
  -0.05790575  0.06686380  0.00000000       0.240

 k-points in reciprocal lattice and weights: Kpoints from vasprun.xml                
   0.00000000  0.00000000  0.00000000       0.040
   0.20000000  0.00000000  0.00000000       0.240
   0.40000000  0.00000000  0.00000000       0.240
   0.40000000  0.20000000  0.00000000       0.240
  -0.40000000  0.20000000  0.00000000       0.240

 position of ions in fractional coordinates (direct lattice) 
   0.33333300  0.33333300  0.49992500
   0.66666700  0.66666700  0.50007500
   0.00000000  0.00000000  0.44821600
   0.00000000  0.00000000  0.55178400
   0.62635700  0.00042000  0.57375200
   0.00042000  0.37322400  0.57375200
   0.37322400  0.62635700  0.57375200
   0.37364300  0.99958000  0.42624800
   0.99958000  0.62677600  0.42624800
   0.62677600  0.37364300  0.42624800

 position of ions in cartesian coordinates  (Angst):
   3.45388488  1.99410134 11.72053566
   6.90778012  3.98820866 11.72405234
   0.00000000  0.00000000 10.50823946
   0.00000000  0.00000000 12.93634854
   4.32818511  0.00251257 13.45137925
   1.29197516  2.23274167 13.45137925
   4.74151509  3.74706174 13.45137925
   6.03347989  5.97979743  9.99320875
   9.06968984  3.74956833  9.99320875
   5.62014991  2.23524826  9.99320875



--------------------------------------------------------------------------------------------------------


 k-point  1 :   0.0000 0.0000 0.0000  plane waves:   26073
 k-point  2 :   0.2000 0.0000 0.0000  plane waves:   26070
 k-point  3 :   0.4000 0.0000 0.0000  plane waves:   26086
 k-point  4 :   0.4000 0.2000 0.0000  plane waves:   26085
 k-point  5 :  -0.4000 0.2000 0.0000  plane waves:   26115

 maximum and minimum number of plane-waves per node :     26115    26070

 maximum number of plane-waves:     26115
 maximum index in each direction: 
   IXMAX=   13   IYMAX=   12   IZMAX=   43
   IXMIN=  -13   IYMIN=  -13   IZMIN=  -43


 serial   3D FFT for wavefunctions
 parallel 3D FFT for charge:
    minimum data exchange during FFTs selected (reduces bandwidth)


 total amount of memory used by VASP MPI-rank0   128589. kBytes
=======================================================================

   base      :      30000. kBytes
   nonlr-proj:       6104. kBytes
   fftplans  :      11247. kBytes
   grid      :      68332. kBytes
   one-center:        311. kBytes
   wavefun   :      12595. kBytes

     INWAV:  cpu time    0.0000: real time    0.0004
 Broyden mixing: mesh for mixing (old mesh)
   NGX = 25   NGY = 25   NGZ = 87
  (NGX  =108   NGY  =108   NGZ  =360)
  gives a total of  54375 points

 initial charge density was supplied:
 charge density of overlapping atoms calculated
 number of electron      61.0000000 magnetization       7.2600000
 keeping initial charge density in first step


--------------------------------------------------------------------------------------------------------


 Maximum index for non-local projection operator         7925
 Maximum index for augmentation-charges         1288 (set IRDMAX)


--------------------------------------------------------------------------------------------------------


 First call to EWALD:  gamma=   0.179
 Maximum number of real-space cells 4x 4x 1
 Maximum number of reciprocal cells 2x 2x 6

    FEWALD:  cpu time    0.0040: real time    0.0015


--------------------------------------- Iteration      1(   1)  ---------------------------------------


vdW kernel read from vdw_kernel.bindat
  0.0000  0.2424  0.5071  0.7962  1.1119  1.4567  1.8333  2.2446  2.6937  3.1842
  3.7199  4.3049  4.9438  5.6415  6.4036  7.2358  8.1446  9.1372 10.2212 11.4050
 12.6979 14.1099 15.6519 17.3360 19.1751 21.1837 23.3773 25.7729 28.3892 31.2465
 34.3669 37.7748 41.4965 45.5611 50.0000

    POTLOK:  cpu time   52.1320: real time   52.4250
    SETDIJ:  cpu time    0.0400: real time    0.0401
     EDDAV:  cpu time   22.5000: real time   22.7215
 BZINTS: Fermi energy:  5.160431; 61.000000 electrons
         Band energy: -26.237642;  BLOECHL correction: -0.030616
       DOS:  cpu time    0.0200: real time    0.0223
    --------------------------------------------
      LOOP:  cpu time   74.6920: real time   75.2089

 eigenvalue-minimisations  :   960
 total energy-change (2. order) : 0.4178728E+03  (-0.1812206E+04)
 number of electron      61.0000000 magnetization       7.2600000
 augmentation part       61.0000000 magnetization       7.2600000

 Free energy of the ion-electron system (eV)
  ---------------------------------------------------
  alpha Z        PSCENC =        22.17121322
  Ewald energy   TEWEN  =      7259.79945079
  -Hartree energ DENC   =    -10080.72049668
  -exchange      EXHF   =         0.00000000
  -V(xc)+E(xc)   XCENC  =        66.57406238
  PAW double counting   =      1630.99227140    -1595.67887204
  entropy T*S    EENTRO =         0.00000000
  eigenvalues    EBANDS =       -26.23764187
  atomic energy  EATOM  =      3140.97280396
  Solvation  Ediel_sol  =         0.00000000
  ---------------------------------------------------
  free energy    TOTEN  =       417.87279117 eV

  energy without entropy =      417.87279117  energy(sigma->0) =      417.87279117


--------------------------------------------------------------------------------------------------------




--------------------------------------- Iteration      1(   2)  ---------------------------------------


     EDDAV:  cpu time   27.2760: real time   27.8948
 BZINTS: Fermi energy: -1.348479; 61.000000 electrons
         Band energy:-411.902692;  BLOECHL correction: -0.069858
       DOS:  cpu time    0.0040: real time    0.0043
    --------------------------------------------
      LOOP:  cpu time   27.2800: real time   27.8991

 eigenvalue-minimisations  :  1216
 total energy-change (2. order) :-0.3856650E+03  (-0.3540325E+03)
 number of electron      61.0000000 magnetization       7.2600000
 augmentation part       61.0000000 magnetization       7.2600000

 Free energy of the ion-electron system (eV)
  ---------------------------------------------------
  alpha Z        PSCENC =        22.17121322
  Ewald energy   TEWEN  =      7259.79945079
  -Hartree energ DENC   =    -10080.72049668
  -exchange      EXHF   =         0.00000000
  -V(xc)+E(xc)   XCENC  =        66.57406238
  PAW double counting   =      1630.99227140    -1595.67887204
  entropy T*S    EENTRO =         0.00000000
  eigenvalues    EBANDS =      -411.90269159
  atomic energy  EATOM  =      3140.97280396
  Solvation  Ediel_sol  =         0.00000000
  ---------------------------------------------------
  free energy    TOTEN  =        32.20774145 eV

  energy without entropy =       32.20774145  energy(sigma->0) =       32.20774145


--------------------------------------------------------------------------------------------------------




--------------------------------------- Iteration      1(   3)  ---------------------------------------


     EDDAV:  cpu time   29.2160: real time   29.6138
 BZINTS: Fermi energy: -2.805232; 61.000000 electrons
         Band energy:-494.307726;  BLOECHL correction: -0.001459
       DOS:  cpu time    0.0080: real time    0.0069
    --------------------------------------------
      LOOP:  cpu time   29.2240: real time   29.6207

 eigenvalue-minimisations  :  1296
 total energy-change (2. order) :-0.8240503E+02  (-0.8004134E+02)
 number of electron      61.0000000 magnetization       7.2600000
 augmentation part       61.0000000 magnetization       7.2600000

 Free energy of the ion-electron system (eV)
  ---------------------------------------------------
  alpha Z        PSCENC =        22.17121322
  Ewald energy   TEWEN  =      7259.79945079
  -Hartree energ DENC   =    -10080.72049668
  -exchange      EXHF   =         0.00000000
  -V(xc)+E(xc)   XCENC  =        66.57406238
  PAW double counting   =      1630.99227140    -1595.67887204
  entropy T*S    EENTRO =         0.00000000
  eigenvalues    EBANDS =      -494.30772591
  atomic energy  EATOM  =      3140.97280396
  Solvation  Ediel_sol  =         0.00000000
  ---------------------------------------------------
  free energy    TOTEN  =       -50.19729288 eV

  energy without entropy =      -50.19729288  energy(sigma->0) =      -50.19729288


--------------------------------------------------------------------------------------------------------




--------------------------------------- Iteration      1(   4)  ---------------------------------------


     EDDAV:  cpu time   27.3920: real time   27.5736
 BZINTS: Fermi energy: -2.842662; 61.000000 electrons
         Band energy:-497.929483;  BLOECHL correction: -0.002325
       DOS:  cpu time    0.0160: real time    0.0168
    --------------------------------------------
      LOOP:  cpu time   27.4080: real time   27.5903

 eigenvalue-minimisations  :  1200
 total energy-change (2. order) :-0.3621758E+01  (-0.3575019E+01)
 number of electron      61.0000000 magnetization       7.2600000
 augmentation part       61.0000000 magnetization       7.2600000

 Free energy of the ion-electron system (eV)
  ---------------------------------------------------
  alpha Z        PSCENC =        22.17121322
  Ewald energy   TEWEN  =      7259.79945079
  -Hartree energ DENC   =    -10080.72049668
  -exchange      EXHF   =         0.00000000
  -V(xc)+E(xc)   XCENC  =        66.57406238
  PAW double counting   =      1630.99227140    -1595.67887204
  entropy T*S    EENTRO =         0.00000000
  eigenvalues    EBANDS =      -497.92948344
  atomic energy  EATOM  =      3140.97280396
  Solvation  Ediel_sol  =         0.00000000
  ---------------------------------------------------
  free energy    TOTEN  =       -53.81905040 eV

  energy without entropy =      -53.81905040  energy(sigma->0) =      -53.81905040


--------------------------------------------------------------------------------------------------------




--------------------------------------- Iteration      1(   5)  ---------------------------------------


     EDDAV:  cpu time   29.4200: real time   29.8295
 BZINTS: Fermi energy: -2.842974; 61.000000 electrons
         Band energy:-498.067383;  BLOECHL correction: -0.002313
       DOS:  cpu time    0.0040: real time    0.0059
    CHARGE:  cpu time    1.8480: real time    2.0483
    MIXING:  cpu time    0.0680: real time    0.0685
    --------------------------------------------
      LOOP:  cpu time   31.3400: real time   31.9522

 eigenvalue-minimisations  :  1312
 total energy-change (2. order) :-0.1378996E+00  (-0.1378594E+00)
 number of electron      61.0000002 magnetization       7.2321232
 augmentation part       -1.2995446 magnetization       4.9707182

 Broyden mixing:
  rms(total) = 0.28652E+01    rms(broyden)= 0.28650E+01
  rms(prec ) = 0.31918E+01
  weight for this iteration     100.00

 Free energy of the ion-electron system (eV)
  ---------------------------------------------------
  alpha Z        PSCENC =        22.17121322
  Ewald energy   TEWEN  =      7259.79945079
  -Hartree energ DENC   =    -10080.72049668
  -exchange      EXHF   =         0.00000000
  -V(xc)+E(xc)   XCENC  =        66.57406238
  PAW double counting   =      1630.99227140    -1595.67887204
  entropy T*S    EENTRO =         0.00000000
  eigenvalues    EBANDS =      -498.06738304
  atomic energy  EATOM  =      3140.97280396
  Solvation  Ediel_sol  =         0.00000000
  ---------------------------------------------------
  free energy    TOTEN  =       -53.95695000 eV

  energy without entropy =      -53.95695000  energy(sigma->0) =      -53.95695000


--------------------------------------------------------------------------------------------------------




--------------------------------------- Iteration      1(   6)  ---------------------------------------


    POTLOK:  cpu time   50.0800: real time   51.9953
    SETDIJ:  cpu time    0.0400: real time    0.0390
     EDDAV:  cpu time   27.7800: real time   28.1485
 BZINTS: Fermi energy: -4.819804; 61.000000 electrons
         Band energy:-695.148411;  BLOECHL correction: -0.017763
       DOS:  cpu time    0.0040: real time    0.0072
    CHARGE:  cpu time    1.9360: real time    2.0073
    MIXING:  cpu time    0.0440: real time    0.0444
    --------------------------------------------
      LOOP:  cpu time   79.8840: real time   82.2417

 eigenvalue-minimisations  :  1232
 total energy-change (2. order) :-0.7304972E+02  (-0.4187987E+02)
 number of electron      61.0000012 magnetization       7.0058228
 augmentation part       10.0777696 magnetization       6.8808957

 Broyden mixing:
  rms(total) = 0.66093E+01    rms(broyden)= 0.66092E+01
  rms(prec ) = 0.71232E+01
  weight for this iteration     100.00

 eigenvalues of (default mixing * dielectric matrix)
  average eigenvalue GAMMA=   0.2394
  0.2394

 Free energy of the ion-electron system (eV)
  ---------------------------------------------------
  alpha Z        PSCENC =        22.17121322
  Ewald energy   TEWEN  =      7259.79945079
  -Hartree energ DENC   =     -9971.71692799
  -exchange      EXHF   =         0.00000000
  -V(xc)+E(xc)   XCENC  =        66.95538111
  PAW double counting   =      1437.62772310    -1387.66790042
  entropy T*S    EENTRO =         0.00000000
  eigenvalues    EBANDS =      -695.14841092
  atomic energy  EATOM  =      3140.97280396
  Solvation  Ediel_sol  =         0.00000000
  ---------------------------------------------------
  free energy    TOTEN  =      -127.00666714 eV

  energy without entropy =     -127.00666714  energy(sigma->0) =     -127.00666714


--------------------------------------------------------------------------------------------------------




--------------------------------------- Iteration      1(   7)  ---------------------------------------


    POTLOK:  cpu time   51.2840: real time   51.5761
    SETDIJ:  cpu time    0.0400: real time    0.0382
     EDDAV:  cpu time   25.9840: real time   26.3617
 BZINTS: Fermi energy: -5.004630; 61.000000 electrons
         Band energy:-538.443010;  BLOECHL correction: -0.015244
       DOS:  cpu time    0.0040: real time    0.0064
    CHARGE:  cpu time    2.0240: real time    2.0250
    MIXING:  cpu time    0.0440: real time    0.0451
    --------------------------------------------
      LOOP:  cpu time   79.3800: real time   80.0526

 eigenvalue-minimisations  :  1152
 total energy-change (2. order) : 0.7724384E+02  (-0.7914127E+01)
 number of electron      61.0000010 magnetization       6.6823131
 augmentation part        7.5261562 magnetization       6.4386711

 Broyden mixing:
  rms(total) = 0.37423E+01    rms(broyden)= 0.37423E+01
  rms(prec ) = 0.40872E+01
  weight for this iteration     100.00

 eigenvalues of (default mixing * dielectric matrix)
  average eigenvalue GAMMA=   0.5432
  0.5432  0.5432

 Free energy of the ion-electron system (eV)
  ---------------------------------------------------
  alpha Z        PSCENC =        22.17121322
  Ewald energy   TEWEN  =      7259.79945079
  -Hartree energ DENC   =    -10036.14023627
  -exchange      EXHF   =         0.00000000
  -V(xc)+E(xc)   XCENC  =        65.17411506
  PAW double counting   =      1555.75194956    -1519.04911224
  entropy T*S    EENTRO =         0.00000000
  eigenvalues    EBANDS =      -538.44300987
  atomic energy  EATOM  =      3140.97280396
  Solvation  Ediel_sol  =         0.00000000
  ---------------------------------------------------
  free energy    TOTEN  =       -49.76282579 eV

  energy without entropy =      -49.76282579  energy(sigma->0) =      -49.76282579


--------------------------------------------------------------------------------------------------------




--------------------------------------- Iteration      1(   8)  ---------------------------------------


    POTLOK:  cpu time   51.4040: real time   52.1054
    SETDIJ:  cpu time    0.0400: real time    0.0381
     EDDAV:  cpu time   31.0640: real time   31.4704
 BZINTS: Fermi energy: -2.870757; 61.000000 electrons
         Band energy:-492.790671;  BLOECHL correction: -0.002071
       DOS:  cpu time    0.0080: real time    0.0051
    CHARGE:  cpu time    2.0680: real time    2.0834
    MIXING:  cpu time    0.0400: real time    0.0411
    --------------------------------------------
      LOOP:  cpu time   84.6240: real time   85.7434

 eigenvalue-minimisations  :  1392
 total energy-change (2. order) : 0.1897031E+01  (-0.8481158E+01)
 number of electron      61.0000002 magnetization       6.6009965
 augmentation part       -0.9744524 magnetization       4.2333535

 Broyden mixing:
  rms(total) = 0.29735E+01    rms(broyden)= 0.29732E+01
  rms(prec ) = 0.32372E+01
  weight for this iteration     100.00

 eigenvalues of (default mixing * dielectric matrix)
  average eigenvalue GAMMA=   0.5615
  0.8782  0.4031  0.4031

 Free energy of the ion-electron system (eV)
  ---------------------------------------------------
  alpha Z        PSCENC =        22.17121322
  Ewald energy   TEWEN  =      7259.79945079
  -Hartree energ DENC   =    -10077.45049358
  -exchange      EXHF   =         0.00000000
  -V(xc)+E(xc)   XCENC  =        65.17684200
  PAW double counting   =      1634.37242444    -1600.11736441
  entropy T*S    EENTRO =         0.00000000
  eigenvalues    EBANDS =      -492.79067134
  atomic energy  EATOM  =      3140.97280396
  Solvation  Ediel_sol  =         0.00000000
  ---------------------------------------------------
  free energy    TOTEN  =       -47.86579491 eV

  energy without entropy =      -47.86579491  energy(sigma->0) =      -47.86579491


--------------------------------------------------------------------------------------------------------




--------------------------------------- Iteration      1(   9)  ---------------------------------------


    POTLOK:  cpu time   51.4920: real time   51.6934
    SETDIJ:  cpu time    0.0280: real time    0.0444
     EDDAV:  cpu time   31.2120: real time   32.3584
 BZINTS: Fermi energy: -4.200168; 61.000000 electrons
         Band energy:-513.964068;  BLOECHL correction: -0.014527
       DOS:  cpu time    0.0040: real time    0.0072
    CHARGE:  cpu time    1.9720: real time    2.0381
    MIXING:  cpu time    0.0760: real time    0.0776
    --------------------------------------------
      LOOP:  cpu time   84.7880: real time   86.2190

 eigenvalue-minimisations  :  1440
 total energy-change (2. order) : 0.5874199E+01  (-0.2507126E+01)
 number of electron      61.0000004 magnetization       6.6439968
 augmentation part        2.7209190 magnetization       3.7966546

 Broyden mixing:
  rms(total) = 0.12142E+01    rms(broyden)= 0.12139E+01
  rms(prec ) = 0.12285E+01
  weight for this iteration     100.00

 eigenvalues of (default mixing * dielectric matrix)
  average eigenvalue GAMMA=   0.4186
  0.8261  0.4046  0.4046  0.0390

 Free energy of the ion-electron system (eV)
  ---------------------------------------------------
  alpha Z        PSCENC =        22.17121322
  Ewald energy   TEWEN  =      7259.79945079
  -Hartree energ DENC   =    -10050.81263863
  -exchange      EXHF   =         0.00000000
  -V(xc)+E(xc)   XCENC  =        65.16841395
  PAW double counting   =      1584.09711484    -1549.42388545
  entropy T*S    EENTRO =         0.00000000
  eigenvalues    EBANDS =      -513.96406810
  atomic energy  EATOM  =      3140.97280396
  Solvation  Ediel_sol  =         0.00000000
  ---------------------------------------------------
  free energy    TOTEN  =       -41.99159541 eV

  energy without entropy =      -41.99159541  energy(sigma->0) =      -41.99159541


--------------------------------------------------------------------------------------------------------




--------------------------------------- Iteration      1(  10)  ---------------------------------------


    POTLOK:  cpu time   51.5200: real time   52.0213
    SETDIJ:  cpu time    0.0440: real time    0.0451
     EDDAV:  cpu time   32.2760: real time   32.7722
 BZINTS: Fermi energy: -4.280246; 60.988586 electrons
         Band energy:-514.366806;  BLOECHL correction: -0.011812
       DOS:  cpu time    0.0080: real time    0.0094
    CHARGE:  cpu time    2.0560: real time    2.0708
    MIXING:  cpu time    0.0440: real time    0.0464
    --------------------------------------------
      LOOP:  cpu time   85.9440: real time   86.9653

 eigenvalue-minimisations  :  1456
 total energy-change (2. order) :-0.1140780E+00  (-0.1368446E+00)
 number of electron      60.9885863 magnetization       6.6608973
 augmentation part        2.8859687 magnetization       4.1125954

 Broyden mixing:
  rms(total) = 0.11354E+01    rms(broyden)= 0.11353E+01
  rms(prec ) = 0.11686E+01
  weight for this iteration     100.00

 eigenvalues of (default mixing * dielectric matrix)
  average eigenvalue GAMMA=   0.3394
  0.7702  0.4072  0.4072  0.0562  0.0562

 Free energy of the ion-electron system (eV)
  ---------------------------------------------------
  alpha Z        PSCENC =        22.17121322
  Ewald energy   TEWEN  =      7259.79945079
  -Hartree energ DENC   =    -10050.66116606
  -exchange      EXHF   =         0.00000000
  -V(xc)+E(xc)   XCENC  =        65.33414610
  PAW double counting   =      1583.56687603    -1548.92219155
  entropy T*S    EENTRO =         0.00000000
  eigenvalues    EBANDS =      -514.36680586
  atomic energy  EATOM  =      3140.97280396
  Solvation  Ediel_sol  =         0.00000000
  ---------------------------------------------------
  free energy    TOTEN  =       -42.10567337 eV

  energy without entropy =      -42.10567337  energy(sigma->0) =      -42.10567337


--------------------------------------------------------------------------------------------------------




--------------------------------------- Iteration      1(  11)  ---------------------------------------


    POTLOK:  cpu time   51.8800: real time   51.9596
    SETDIJ:  cpu time    0.0360: real time    0.0382
     EDDAV:  cpu time   31.6760: real time   32.1694
 BZINTS: Fermi energy: -4.280955; 61.000000 electrons
         Band energy:-514.634759;  BLOECHL correction: -0.012046
       DOS:  cpu time    0.0080: real time    0.0070
    CHARGE:  cpu time    1.9080: real time    2.1003
    MIXING:  cpu time    0.0320: real time    0.0438
    --------------------------------------------
      LOOP:  cpu time   85.5400: real time   86.3182

 eigenvalue-minimisations  :  1424
 total energy-change (2. order) :-0.7581254E-01  (-0.4553458E-01)
 number of electron      61.0000005 magnetization       6.6753546
 augmentation part        2.9054457 magnetization       4.0829391

 Broyden mixing:
  rms(total) = 0.97614E+00    rms(broyden)= 0.97611E+00
  rms(prec ) = 0.99076E+00
  weight for this iteration     100.00

 eigenvalues of (default mixing * dielectric matrix)
  average eigenvalue GAMMA=   0.3322
  0.7760  0.3987  0.3987  0.1951  0.1951  0.0293

 Free energy of the ion-electron system (eV)
  ---------------------------------------------------
  alpha Z        PSCENC =        22.17121322
  Ewald energy   TEWEN  =      7259.79945079
  -Hartree energ DENC   =    -10050.51806107
  -exchange      EXHF   =         0.00000000
  -V(xc)+E(xc)   XCENC  =        65.39409289
  PAW double counting   =      1583.20694407    -1548.57317114
  entropy T*S    EENTRO =         0.00000000
  eigenvalues    EBANDS =      -514.63475864
  atomic energy  EATOM  =      3140.97280396
  Solvation  Ediel_sol  =         0.00000000
  ---------------------------------------------------
  free energy    TOTEN  =       -42.18148591 eV

  energy without entropy =      -42.18148591  energy(sigma->0) =      -42.18148591


--------------------------------------------------------------------------------------------------------




--------------------------------------- Iteration      1(  12)  ---------------------------------------


    POTLOK:  cpu time   51.3560: real time   51.8472
    SETDIJ:  cpu time    0.0400: real time    0.0402
     EDDAV:  cpu time   27.7600: real time   28.0296
 BZINTS: Fermi energy: -4.339641; 61.000000 electrons
         Band energy:-515.608670;  BLOECHL correction: -0.009158
       DOS:  cpu time    0.0040: real time    0.0075
    CHARGE:  cpu time    2.0520: real time    2.0502
    MIXING:  cpu time    0.0440: real time    0.0460
    --------------------------------------------
      LOOP:  cpu time   81.2560: real time   82.0208

 eigenvalue-minimisations  :  1216
 total energy-change (2. order) :-0.1206327E+00  (-0.2351349E-01)
 number of electron      61.0000005 magnetization       6.6769982
 augmentation part        3.0581369 magnetization       4.1965300

 Broyden mixing:
  rms(total) = 0.10941E+01    rms(broyden)= 0.10941E+01
  rms(prec ) = 0.11434E+01
  weight for this iteration     100.00

 eigenvalues of (default mixing * dielectric matrix)
  average eigenvalue GAMMA=   0.3716
  0.8089  0.4021  0.4021  0.3757  0.3757  0.2040  0.0324

 Free energy of the ion-electron system (eV)
  ---------------------------------------------------
  alpha Z        PSCENC =        22.17121322
  Ewald energy   TEWEN  =      7259.79945079
  -Hartree energ DENC   =    -10049.77221471
  -exchange      EXHF   =         0.00000000
  -V(xc)+E(xc)   XCENC  =        65.48592776
  PAW double counting   =      1581.67099709    -1547.02162689
  entropy T*S    EENTRO =         0.00000000
  eigenvalues    EBANDS =      -515.60866979
  atomic energy  EATOM  =      3140.97280396
  Solvation  Ediel_sol  =         0.00000000
  ---------------------------------------------------
  free energy    TOTEN  =       -42.30211857 eV

  energy without entropy =      -42.30211857  energy(sigma->0) =      -42.30211857


--------------------------------------------------------------------------------------------------------




--------------------------------------- Iteration      1(  13)  ---------------------------------------


    POTLOK:  cpu time   52.0720: real time   52.1872
    SETDIJ:  cpu time    0.0720: real time    0.0747
     EDDAV:  cpu time   28.4840: real time   28.7252
 BZINTS: Fermi energy: -4.410083; 61.000000 electrons
         Band energy:-517.575454;  BLOECHL correction: -0.007518
       DOS:  cpu time    0.0080: real time    0.0051
    CHARGE:  cpu time    2.0760: real time    2.0796
    MIXING:  cpu time    0.0480: real time    0.0461
    --------------------------------------------
      LOOP:  cpu time   82.7600: real time   83.1177

 eigenvalue-minimisations  :  1264
 total energy-change (2. order) :-0.1493533E+00  (-0.1353683E+00)
 number of electron      61.0000005 magnetization       6.6848700
 augmentation part        3.3195045 magnetization       4.4621418

 Broyden mixing:
  rms(total) = 0.10744E+01    rms(broyden)= 0.10742E+01
  rms(prec ) = 0.11411E+01
  weight for this iteration     100.00

 eigenvalues of (default mixing * dielectric matrix)
  average eigenvalue GAMMA=   0.3913
  0.8135  0.5052  0.5052  0.4078  0.4078  0.2294  0.2294  0.0324

 Free energy of the ion-electron system (eV)
  ---------------------------------------------------
  alpha Z        PSCENC =        22.17121322
  Ewald energy   TEWEN  =      7259.79945079
  -Hartree energ DENC   =    -10048.15296932
  -exchange      EXHF   =         0.00000000
  -V(xc)+E(xc)   XCENC  =        65.65540937
  PAW double counting   =      1578.53651891    -1543.85844440
  entropy T*S    EENTRO =         0.00000000
  eigenvalues    EBANDS =      -517.57545443
  atomic energy  EATOM  =      3140.97280396
  Solvation  Ediel_sol  =         0.00000000
  ---------------------------------------------------
  free energy    TOTEN  =       -42.45147189 eV

  energy without entropy =      -42.45147189  energy(sigma->0) =      -42.45147189


--------------------------------------------------------------------------------------------------------




--------------------------------------- Iteration      1(  14)  ---------------------------------------


    POTLOK:  cpu time   52.2520: real time   52.2882
    SETDIJ:  cpu time    0.0400: real time    0.0371
     EDDAV:  cpu time   27.9120: real time   28.5627
 BZINTS: Fermi energy: -4.304552; 61.000000 electrons
         Band energy:-516.491014;  BLOECHL correction: -0.012779
       DOS:  cpu time    0.0040: real time    0.0073
    CHARGE:  cpu time    1.9400: real time    2.0349
    MIXING:  cpu time    0.0480: real time    0.0471
    --------------------------------------------
      LOOP:  cpu time   82.1960: real time   82.9774

 eigenvalue-minimisations  :  1248
 total energy-change (2. order) :-0.1938527E-01  (-0.3119926E-01)
 number of electron      61.0000004 magnetization       6.7346270
 augmentation part        2.9561190 magnetization       4.2109791

 Broyden mixing:
  rms(total) = 0.10329E+01    rms(broyden)= 0.10329E+01
  rms(prec ) = 0.10779E+01
  weight for this iteration     100.00

 eigenvalues of (default mixing * dielectric matrix)
  average eigenvalue GAMMA=   0.4787
  0.8370  0.8370  0.7650  0.3219  0.4003  0.4003  0.3574  0.3574  0.0324

 Free energy of the ion-electron system (eV)
  ---------------------------------------------------
  alpha Z        PSCENC =        22.17121322
  Ewald energy   TEWEN  =      7259.79945079
  -Hartree energ DENC   =    -10049.34201301
  -exchange      EXHF   =         0.00000000
  -V(xc)+E(xc)   XCENC  =        65.86478973
  PAW double counting   =      1580.33373595    -1545.77982386
  entropy T*S    EENTRO =         0.00000000
  eigenvalues    EBANDS =      -516.49101395
  atomic energy  EATOM  =      3140.97280396
  Solvation  Ediel_sol  =         0.00000000
  ---------------------------------------------------
  free energy    TOTEN  =       -42.47085717 eV

  energy without entropy =      -42.47085717  energy(sigma->0) =      -42.47085717


--------------------------------------------------------------------------------------------------------




--------------------------------------- Iteration      1(  15)  ---------------------------------------


    POTLOK:  cpu time   51.2520: real time   52.2674
    SETDIJ:  cpu time    0.0320: real time    0.0346
     EDDAV:  cpu time   29.9960: real time   30.7337
 BZINTS: Fermi energy: -4.211944; 61.000000 electrons
         Band energy:-515.652393;  BLOECHL correction: -0.018245
       DOS:  cpu time    0.0040: real time    0.0071
    CHARGE:  cpu time    2.0520: real time    2.0695
    MIXING:  cpu time    0.0480: real time    0.0498
    --------------------------------------------
      LOOP:  cpu time   83.3840: real time   85.1620

 eigenvalue-minimisations  :  1360
 total energy-change (2. order) :-0.5572279E-01  (-0.1636174E-01)
 number of electron      61.0000004 magnetization       6.9143336
 augmentation part        2.5990235 magnetization       4.1991386

 Broyden mixing:
  rms(total) = 0.99319E+00    rms(broyden)= 0.99318E+00
  rms(prec ) = 0.10167E+01
  weight for this iteration     100.00

 eigenvalues of (default mixing * dielectric matrix)
  average eigenvalue GAMMA=   0.5762
  1.1927  1.1927  0.8636  0.4521  0.4521  0.3943  0.3943  0.3938  0.3938  0.0324

 Free energy of the ion-electron system (eV)
  ---------------------------------------------------
  alpha Z        PSCENC =        22.17121322
  Ewald energy   TEWEN  =      7259.79945079
  -Hartree energ DENC   =    -10050.30726328
  -exchange      EXHF   =         0.00000000
  -V(xc)+E(xc)   XCENC  =        66.10735509
  PAW double counting   =      1581.72403234    -1547.34177887
  entropy T*S    EENTRO =         0.00000000
  eigenvalues    EBANDS =      -515.65239321
  atomic energy  EATOM  =      3140.97280396
  Solvation  Ediel_sol  =         0.00000000
  ---------------------------------------------------
  free energy    TOTEN  =       -42.52657996 eV

  energy without entropy =      -42.52657996  energy(sigma->0) =      -42.52657996


--------------------------------------------------------------------------------------------------------




--------------------------------------- Iteration      1(  16)  ---------------------------------------


    POTLOK:  cpu time   51.7480: real time   52.1970
    SETDIJ:  cpu time    0.0400: real time    0.0373
     EDDAV:  cpu time   27.7800: real time   28.1831
 BZINTS: Fermi energy: -4.126142; 61.000000 electrons
         Band energy:-517.615902;  BLOECHL correction: -0.000000
       DOS:  cpu time    0.0040: real time    0.0054
    CHARGE:  cpu time    1.9400: real time    2.0130
    MIXING:  cpu time    0.0480: real time    0.0472
    --------------------------------------------
      LOOP:  cpu time   81.5600: real time   82.4831

 eigenvalue-minimisations  :  1232
 total energy-change (2. order) :-0.3480360E+00  (-0.3538860E-01)
 number of electron      61.0000003 magnetization       6.9885591
 augmentation part        2.1546437 magnetization       3.6943029

 Broyden mixing:
  rms(total) = 0.89697E+00    rms(broyden)= 0.89689E+00
  rms(prec ) = 0.91761E+00
  weight for this iteration     100.00

 eigenvalues of (default mixing * dielectric matrix)
  average eigenvalue GAMMA=   0.5736
  1.2226  1.2226  0.9072  0.4978  0.4978  0.4255  0.4255  0.3700  0.3700  0.3380
  0.0324

 Free energy of the ion-electron system (eV)
  ---------------------------------------------------
  alpha Z        PSCENC =        22.17121322
  Ewald energy   TEWEN  =      7259.79945079
  -Hartree energ DENC   =    -10049.55602018
  -exchange      EXHF   =         0.00000000
  -V(xc)+E(xc)   XCENC  =        67.36102294
  PAW double counting   =      1578.57201697    -1544.57920143
  entropy T*S    EENTRO =         0.00000000
  eigenvalues    EBANDS =      -517.61590224
  atomic energy  EATOM  =      3140.97280396
  Solvation  Ediel_sol  =         0.00000000
  ---------------------------------------------------
  free energy    TOTEN  =       -42.87461596 eV

  energy without entropy =      -42.87461596  energy(sigma->0) =      -42.87461596


--------------------------------------------------------------------------------------------------------




--------------------------------------- Iteration      1(  17)  ---------------------------------------


    POTLOK:  cpu time   52.0560: real time   52.2077
    SETDIJ:  cpu time    0.0400: real time    0.0389
     EDDAV:  cpu time   30.3440: real time   31.4128
 BZINTS: Fermi energy: -4.124598; 61.000000 electrons
         Band energy:-517.553259;  BLOECHL correction: -0.000000
       DOS:  cpu time    0.0040: real time    0.0048
    CHARGE:  cpu time    2.0160: real time    2.0322
    MIXING:  cpu time    0.0680: real time    0.0695
    --------------------------------------------
      LOOP:  cpu time   84.5280: real time   85.7660

 eigenvalue-minimisations  :  1392
 total energy-change (2. order) :-0.1427591E+00  (-0.2003341E-01)
 number of electron      61.0000003 magnetization       7.0888804
 augmentation part        2.0197531 magnetization       3.9400355

 Broyden mixing:
  rms(total) = 0.87276E+00    rms(broyden)= 0.87275E+00
  rms(prec ) = 0.90286E+00
  weight for this iteration     100.00

 eigenvalues of (default mixing * dielectric matrix)
  average eigenvalue GAMMA=   0.6157
  1.2935  1.2935  0.6310  0.6310  0.7671  0.5268  0.5268  0.3832  0.3832  0.4601
  0.4601  0.0324

 Free energy of the ion-electron system (eV)
  ---------------------------------------------------
  alpha Z        PSCENC =        22.17121322
  Ewald energy   TEWEN  =      7259.79945079
  -Hartree energ DENC   =    -10049.87326311
  -exchange      EXHF   =         0.00000000
  -V(xc)+E(xc)   XCENC  =        67.71438804
  PAW double counting   =      1578.64558759    -1544.89429618
  entropy T*S    EENTRO =         0.00000000
  eigenvalues    EBANDS =      -517.55325940
  atomic energy  EATOM  =      3140.97280396
  Solvation  Ediel_sol  =         0.00000000
  ---------------------------------------------------
  free energy    TOTEN  =       -43.01737510 eV

  energy without entropy =      -43.01737510  energy(sigma->0) =      -43.01737510


--------------------------------------------------------------------------------------------------------




--------------------------------------- Iteration      1(  18)  ---------------------------------------


    POTLOK:  cpu time   51.5160: real time   51.8741
    SETDIJ:  cpu time    0.0360: real time    0.0381
     EDDAV:  cpu time   29.9440: real time   30.3398
 BZINTS: Fermi energy: -4.128924; 61.000000 electrons
         Band energy:-517.567778;  BLOECHL correction:  0.000000
       DOS:  cpu time    0.0000: real time    0.0050
    CHARGE:  cpu time    2.0440: real time    2.0930
    MIXING:  cpu time    0.0520: real time    0.0520
    --------------------------------------------
      LOOP:  cpu time   83.5920: real time   84.4021

 eigenvalue-minimisations  :  1344
 total energy-change (2. order) :-0.1241561E+00  (-0.1049220E-01)
 number of electron      61.0000003 magnetization       7.3263578
 augmentation part        1.9175402 magnetization       4.2927267

 Broyden mixing:
  rms(total) = 0.84317E+00    rms(broyden)= 0.84317E+00
  rms(prec ) = 0.88291E+00
  weight for this iteration     100.00

 eigenvalues of (default mixing * dielectric matrix)
  average eigenvalue GAMMA=   0.7267
  1.5642  1.5642  1.1027  1.1027  0.8794  0.5111  0.5111  0.3823  0.3823  0.4883
  0.4883  0.4384  0.0324

 Free energy of the ion-electron system (eV)
  ---------------------------------------------------
  alpha Z        PSCENC =        22.17121322
  Ewald energy   TEWEN  =      7259.79945079
  -Hartree energ DENC   =    -10050.10970901
  -exchange      EXHF   =         0.00000000
  -V(xc)+E(xc)   XCENC  =        68.10326932
  PAW double counting   =      1578.90810903    -1545.41889019
  entropy T*S    EENTRO =         0.00000000
  eigenvalues    EBANDS =      -517.56777828
  atomic energy  EATOM  =      3140.97280396
  Solvation  Ediel_sol  =         0.00000000
  ---------------------------------------------------
  free energy    TOTEN  =       -43.14153116 eV

  energy without entropy =      -43.14153116  energy(sigma->0) =      -43.14153116


--------------------------------------------------------------------------------------------------------




--------------------------------------- Iteration      1(  19)  ---------------------------------------


    POTLOK:  cpu time   51.2840: real time   52.1227
    SETDIJ:  cpu time    0.0400: real time    0.0381
     EDDAV:  cpu time   31.9040: real time   32.8010
 BZINTS: Fermi energy: -4.125009; 61.000000 electrons
         Band energy:-519.436922;  BLOECHL correction:  0.000000
       DOS:  cpu time    0.0040: real time    0.0037
    CHARGE:  cpu time    1.9960: real time    2.0531
    MIXING:  cpu time    0.0560: real time    0.0565
    --------------------------------------------
      LOOP:  cpu time   85.2840: real time   87.0751

 eigenvalue-minimisations  :  1456
 total energy-change (2. order) : 0.2515946E-01  (-0.2073818E-01)
 number of electron      61.0000003 magnetization       7.4317626
 augmentation part        1.9914380 magnetization       4.4081923

 Broyden mixing:
  rms(total) = 0.64021E+00    rms(broyden)= 0.64020E+00
  rms(prec ) = 0.67966E+00
  weight for this iteration     100.00

 eigenvalues of (default mixing * dielectric matrix)
  average eigenvalue GAMMA=   0.7593
  1.7741  1.7741  1.1014  1.1014  1.1084  0.5135  0.5135  0.3822  0.3822  0.4934
  0.4934  0.4804  0.4804  0.0324

 Free energy of the ion-electron system (eV)
  ---------------------------------------------------
  alpha Z        PSCENC =        22.17121322
  Ewald energy   TEWEN  =      7259.79945079
  -Hartree energ DENC   =    -10048.46729590
  -exchange      EXHF   =         0.00000000
  -V(xc)+E(xc)   XCENC  =        68.80609523
  PAW double counting   =      1575.67132816    -1542.63304533
  entropy T*S    EENTRO =         0.00000000
  eigenvalues    EBANDS =      -519.43692184
  atomic energy  EATOM  =      3140.97280396
  Solvation  Ediel_sol  =         0.00000000
  ---------------------------------------------------
  free energy    TOTEN  =       -43.11637170 eV

  energy without entropy =      -43.11637170  energy(sigma->0) =      -43.11637170


--------------------------------------------------------------------------------------------------------




--------------------------------------- Iteration      1(  20)  ---------------------------------------


    POTLOK:  cpu time   52.0880: real time   52.2659
    SETDIJ:  cpu time    0.0360: real time    0.0379
     EDDAV:  cpu time   31.9200: real time   32.0772
 BZINTS: Fermi energy: -4.175475; 61.000000 electrons
         Band energy:-520.757973;  BLOECHL correction:  0.000000
       DOS:  cpu time    0.0000: real time    0.0038
    CHARGE:  cpu time    2.0400: real time    2.0493
    MIXING:  cpu time    0.0520: real time    0.0543
    --------------------------------------------
      LOOP:  cpu time   86.1400: real time   86.4884

 eigenvalue-minimisations  :  1424
 total energy-change (2. order) : 0.5033871E-01  (-0.6311227E-02)
 number of electron      61.0000003 magnetization       7.5966846
 augmentation part        2.1082550 magnetization       4.4959749

 Broyden mixing:
  rms(total) = 0.54323E+00    rms(broyden)= 0.54323E+00
  rms(prec ) = 0.57518E+00
  weight for this iteration     100.00

 eigenvalues of (default mixing * dielectric matrix)
  average eigenvalue GAMMA=   0.8264
  2.1382  2.1382  1.1462  1.1462  1.0716  0.5172  0.5172  0.7301  0.7301  0.3825
  0.3825  0.5079  0.5079  0.4485  0.0324

 Free energy of the ion-electron system (eV)
  ---------------------------------------------------
  alpha Z        PSCENC =        22.17121322
  Ewald energy   TEWEN  =      7259.79945079
  -Hartree energ DENC   =    -10047.07558645
  -exchange      EXHF   =         0.00000000
  -V(xc)+E(xc)   XCENC  =        68.89044590
  PAW double counting   =      1573.29538166    -1540.36176917
  entropy T*S    EENTRO =         0.00000000
  eigenvalues    EBANDS =      -520.75797290
  atomic energy  EATOM  =      3140.97280396
  Solvation  Ediel_sol  =         0.00000000
  ---------------------------------------------------
  free energy    TOTEN  =       -43.06603299 eV

  energy without entropy =      -43.06603299  energy(sigma->0) =      -43.06603299


--------------------------------------------------------------------------------------------------------




--------------------------------------- Iteration      1(  21)  ---------------------------------------


    POTLOK:  cpu time   51.6440: real time   51.7694
    SETDIJ:  cpu time    0.0360: real time    0.0381
     EDDAV:  cpu time   31.7880: real time   32.0610
 BZINTS: Fermi energy: -4.183893; 61.000000 electrons
         Band energy:-522.072842;  BLOECHL correction:  0.000000
       DOS:  cpu time    0.0040: real time    0.0039
    CHARGE:  cpu time    2.0240: real time    2.0301
    MIXING:  cpu time    0.0520: real time    0.0547
    --------------------------------------------
      LOOP:  cpu time   85.5440: real time   85.9573

 eigenvalue-minimisations  :  1424
 total energy-change (2. order) : 0.1630458E-01  (-0.3158567E-02)
 number of electron      61.0000004 magnetization       7.9258783
 augmentation part        2.2067113 magnetization       4.7435872

 Broyden mixing:
  rms(total) = 0.46882E+00    rms(broyden)= 0.46882E+00
  rms(prec ) = 0.49473E+00
  weight for this iteration     100.00

 eigenvalues of (default mixing * dielectric matrix)
  average eigenvalue GAMMA=   0.9219
  2.6915  2.6915  1.2390  1.2390  1.0821  0.9601  0.9601  0.5163  0.5163  0.3824
  0.3824  0.5007  0.5007  0.5967  0.4588  0.0324

 Free energy of the ion-electron system (eV)
  ---------------------------------------------------
  alpha Z        PSCENC =        22.17121322
  Ewald energy   TEWEN  =      7259.79945079
  -Hartree energ DENC   =    -10045.64984163
  -exchange      EXHF   =         0.00000000
  -V(xc)+E(xc)   XCENC  =        68.89216372
  PAW double counting   =      1571.23352045    -1538.39619687
  entropy T*S    EENTRO =         0.00000000
  eigenvalues    EBANDS =      -522.07284205
  atomic energy  EATOM  =      3140.97280396
  Solvation  Ediel_sol  =         0.00000000
  ---------------------------------------------------
  free energy    TOTEN  =       -43.04972841 eV

  energy without entropy =      -43.04972841  energy(sigma->0) =      -43.04972841


--------------------------------------------------------------------------------------------------------




--------------------------------------- Iteration      1(  22)  ---------------------------------------


    POTLOK:  cpu time   51.7640: real time   51.9281
    SETDIJ:  cpu time    0.0400: real time    0.0423
     EDDAV:  cpu time   29.1600: real time   29.5510
 BZINTS: Fermi energy: -4.202784; 61.000000 electrons
         Band energy:-523.948056;  BLOECHL correction:  0.000000
       DOS:  cpu time    0.0000: real time    0.0035
    CHARGE:  cpu time    2.0200: real time    2.0212
    MIXING:  cpu time    0.0560: real time    0.0571
    --------------------------------------------
      LOOP:  cpu time   83.0400: real time   83.6033

 eigenvalue-minimisations  :  1296
 total energy-change (2. order) :-0.2097110E-03  (-0.4115786E-02)
 number of electron      61.0000004 magnetization       8.1284624
 augmentation part        2.3387937 magnetization       4.8358710

 Broyden mixing:
  rms(total) = 0.35478E+00    rms(broyden)= 0.35478E+00
  rms(prec ) = 0.37425E+00
  weight for this iteration     100.00

 eigenvalues of (default mixing * dielectric matrix)
  average eigenvalue GAMMA=   0.9699
  2.9128  2.9128  1.2845  1.2845  1.3568  1.0716  1.0716  0.5162  0.5162  0.3824
  0.3824  0.6508  0.6508  0.5038  0.5038  0.4552  0.0324

 Free energy of the ion-electron system (eV)
  ---------------------------------------------------
  alpha Z        PSCENC =        22.17121322
  Ewald energy   TEWEN  =      7259.79945079
  -Hartree energ DENC   =    -10043.71334126
  -exchange      EXHF   =         0.00000000
  -V(xc)+E(xc)   XCENC  =        69.02612819
  PAW double counting   =      1568.78689161    -1536.14502913
  entropy T*S    EENTRO =         0.00000000
  eigenvalues    EBANDS =      -523.94805551
  atomic energy  EATOM  =      3140.97280396
  Solvation  Ediel_sol  =         0.00000000
  ---------------------------------------------------
  free energy    TOTEN  =       -43.04993812 eV

  energy without entropy =      -43.04993812  energy(sigma->0) =      -43.04993812


[...]
     34      -1.1047      0.00000
     35      -0.8885      0.00000
     36       0.0080      0.00000
     37       0.9359      0.00000
     38       1.0569      0.00000
     39       1.3504      0.00000
     40       1.8837      0.00000
     41       2.2997      0.00000
     42       2.4546      0.00000
     43       2.6367      0.00000
     44       2.8204      0.00000
     45       3.0927      0.00000
     46       3.3309      0.00000
     47       3.8088      0.00000
     48       3.9555      0.00000

 k-point     5 :      -0.4000    0.2000    0.0000
  band No.  band energies     occupation 
      1     -18.0231      1.00000
      2     -16.3611      1.00000
      3     -16.1426      1.00000
      4     -15.9551      1.00000
      5     -15.6057      1.00000
      6     -15.3372      1.00000
      7     -11.8795      1.00000
      8      -9.9064      1.00000
      9      -8.7076      1.00000
     10      -8.1750      1.00000
     11      -8.0377      1.00000
     12      -7.5082      1.00000
     13      -7.2087      1.00000
     14      -6.6484      1.00000
     15      -6.2266      1.00000
     16      -5.9665      1.00000
     17      -5.8714      1.00000
     18      -5.6741      1.00000
     19      -5.4728      1.00000
     20      -5.3945      1.00000
     21      -5.0426      1.00000
     22      -4.6952      1.00000
     23      -4.4775      1.00000
     24      -4.4147      1.00000
     25      -3.9952      1.00000
     26      -3.3010      1.00000
     27      -2.9965      1.00000
     28      -2.9280      1.00000
     29      -2.3401      0.00000
     30      -2.3250      0.00000
     31      -2.0746      0.00000
     32      -1.5095      0.00000
     33      -1.3899      0.00000
     34      -1.0246      0.00000
     35      -0.8868      0.00000
     36      -0.2098      0.00000
     37       0.6301      0.00000
     38       0.9719      0.00000
     39       1.1425      0.00000
     40       1.8650      0.00000
     41       2.0195      0.00000
     42       2.2864      0.00000
     43       3.0704      0.00000
     44       3.2054      0.00000
     45       3.3462      0.00000
     46       3.4462      0.00000
     47       3.5131      0.00000
     48       3.9266      0.00000


--------------------------------------------------------------------------------------------------------


 soft charge-density along one line, spin component           1
         0         1         2         3         4         5         6         7         8         9
 total charge-density along one line

 soft charge-density along one line, spin component           2
         0         1         2         3         4         5         6         7         8         9
 total charge-density along one line

 pseudopotential strength for first ion, spin component:           1
-11.886  -0.051  -0.000   0.014  -0.000   1.172   0.015   0.000
 -0.051 -11.863   0.000  -0.000   0.014   0.015   1.167  -0.000
 -0.000   0.000 -12.007   0.000   0.000   0.000  -0.000   1.208
  0.014  -0.000   0.000 -11.863   0.051  -0.004   0.000  -0.000
 -0.000   0.014   0.000   0.051 -11.886   0.000  -0.004  -0.000
  1.172   0.015   0.000  -0.004   0.000   0.397  -0.004  -0.000
  0.015   1.167  -0.000   0.000  -0.004  -0.004   0.398   0.000
  0.000  -0.000   1.208  -0.000  -0.000  -0.000   0.000   0.386
 -0.004   0.000  -0.000   1.167  -0.015   0.001  -0.000   0.000
  0.000  -0.004  -0.000  -0.015   1.172  -0.000   0.001   0.000
  0.000  -0.000   0.010  -0.000   0.000  -0.000  -0.000  -0.003
 -0.000   0.000  -0.001   0.000  -0.000   0.000  -0.000   0.000
 -0.001   0.003   0.000   0.000  -0.003   0.000  -0.001  -0.000
  0.000  -0.000   0.006  -0.000   0.000   0.000   0.000  -0.001
 -0.003   0.000   0.000   0.003   0.001   0.001   0.000  -0.000
  0.000  -0.004  -0.000  -0.000   0.001  -0.000   0.001   0.000
 -0.000   0.000  -0.005   0.000  -0.000   0.000  -0.000   0.001
  0.001  -0.000  -0.000  -0.004  -0.000  -0.001   0.000   0.000
 pseudopotential strength for first ion, spin component:           2
 -9.636   0.054  -0.000  -0.014  -0.000   0.498  -0.015   0.000
  0.054  -9.706   0.000  -0.000  -0.014  -0.015   0.515  -0.000
 -0.000   0.000  -9.552   0.000   0.000   0.000  -0.000   0.476
 -0.014  -0.000   0.000  -9.706  -0.054   0.004   0.000  -0.000
 -0.000  -0.014   0.000  -0.054  -9.636   0.000   0.004  -0.000
  0.498  -0.015   0.000   0.004   0.000   0.597   0.004  -0.000
 -0.015   0.515  -0.000   0.000   0.004   0.004   0.593   0.000
  0.000  -0.000   0.476  -0.000  -0.000  -0.000   0.000   0.602
  0.004   0.000  -0.000   0.515   0.015  -0.001  -0.000   0.000
  0.000   0.004  -0.000   0.015   0.498  -0.000  -0.001   0.000
  0.000  -0.000  -0.004  -0.000   0.000  -0.000  -0.000   0.000
 -0.000   0.000   0.000   0.000  -0.000   0.000  -0.000  -0.000
  0.001   0.010   0.000   0.000   0.003  -0.001  -0.003  -0.000
  0.000  -0.000   0.009  -0.000  -0.000   0.000   0.000  -0.002
  0.003   0.000   0.000   0.010  -0.001  -0.001   0.000  -0.000
 -0.001  -0.006  -0.000  -0.000  -0.001   0.000   0.002   0.000
 -0.000   0.000  -0.006   0.000   0.000   0.000  -0.000   0.002
 -0.001  -0.000  -0.000  -0.006   0.001   0.000   0.000   0.000
 total augmentation occupancy for first ion, spin component:           1
  1.272  -0.046   0.000   0.020  -0.000  -0.096   0.045  -0.000  -0.002   0.000   0.000  -0.000  -0.007   0.000  -0.019   0.001
 -0.046   1.371  -0.000  -0.000   0.020   0.045  -0.048   0.000   0.000  -0.002   0.000   0.000  -0.008  -0.000   0.013   0.004
  0.000  -0.000   1.119  -0.000  -0.000  -0.000   0.000  -0.144   0.000   0.000   0.022  -0.009   0.000   0.002  -0.000   0.000
  0.020  -0.000  -0.000   1.371   0.046  -0.002  -0.000   0.000  -0.048  -0.045  -0.000  -0.000  -0.013   0.000  -0.008   0.000
 -0.000   0.020  -0.000   0.046   1.272  -0.000  -0.002   0.000  -0.045  -0.096  -0.000   0.000  -0.019  -0.000   0.007   0.001
 -0.096   0.045  -0.000  -0.002  -0.000   0.190   0.144   0.000  -0.008  -0.000   0.000  -0.000  -0.013  -0.000   0.006   0.000
  0.045  -0.048   0.000  -0.000  -0.002   0.144   0.319   0.000  -0.000  -0.008   0.000   0.000  -0.021  -0.000  -0.005   0.000
 -0.000   0.000  -0.144   0.000   0.000   0.000   0.000   0.125   0.000  -0.000   0.025  -0.003  -0.000  -0.002  -0.000   0.000
 -0.002   0.000   0.000  -0.048  -0.045  -0.008  -0.000   0.000   0.319  -0.144   0.000   0.000   0.005  -0.000  -0.021  -0.000
  0.000  -0.002   0.000  -0.045  -0.096  -0.000  -0.008  -0.000  -0.144   0.190  -0.000   0.000   0.006   0.000   0.013  -0.002
  0.000   0.000   0.022  -0.000  -0.000   0.000   0.000   0.025   0.000  -0.000   0.983  -0.180  -0.000  -0.025   0.000   0.000
 -0.000   0.000  -0.009  -0.000   0.000  -0.000   0.000  -0.003   0.000   0.000  -0.180   0.089   0.000   0.004   0.000   0.000
 -0.007  -0.008   0.000  -0.013  -0.019  -0.013  -0.021  -0.000   0.005   0.006  -0.000   0.000   0.149  -0.000  -0.000  -0.009
  0.000  -0.000   0.002   0.000  -0.000  -0.000  -0.000  -0.002  -0.000   0.000  -0.025   0.004  -0.000   0.155   0.000   0.000
 -0.019   0.013  -0.000  -0.008   0.007   0.006  -0.005  -0.000  -0.021   0.013   0.000   0.000  -0.000   0.000   0.149   0.000
  0.001   0.004   0.000   0.000   0.001   0.000   0.000   0.000  -0.000  -0.002  -0.000  -0.000  -0.009   0.000   0.000   0.001
  0.000  -0.000   0.003  -0.000  -0.000  -0.000  -0.000  -0.000   0.000   0.000   0.003  -0.001   0.000  -0.010   0.000  -0.000
  0.001  -0.000   0.000   0.004  -0.001  -0.002   0.000  -0.000   0.000  -0.000   0.000   0.000  -0.000   0.000  -0.009  -0.000
 total augmentation occupancy for first ion, spin component:           2
  0.652   0.042   0.000  -0.019  -0.000  -0.276  -0.075  -0.000   0.003   0.000  -0.000  -0.000   0.011   0.000   0.023   0.000
  0.042   0.545   0.000  -0.000  -0.019  -0.075  -0.344  -0.000   0.000   0.003  -0.000  -0.000   0.017  -0.000  -0.009   0.002
  0.000   0.000   0.808   0.000  -0.000  -0.000  -0.000  -0.258  -0.000   0.000  -0.048  -0.003  -0.000   0.002   0.000  -0.000
 -0.019  -0.000   0.000   0.545  -0.042   0.003  -0.000  -0.000  -0.344   0.075   0.000   0.000   0.009  -0.000   0.017  -0.000
 -0.000  -0.019  -0.000  -0.042   0.652  -0.000   0.003   0.000   0.075  -0.276   0.000   0.000   0.023  -0.000  -0.011   0.000
 -0.276  -0.075  -0.000   0.003  -0.000   0.078   0.056   0.000  -0.002  -0.000   0.000   0.000  -0.005  -0.000  -0.002  -0.001
 -0.075  -0.344  -0.000  -0.000   0.003   0.056   0.130   0.000  -0.000  -0.002   0.000   0.000  -0.009   0.000  -0.001  -0.001
 -0.000  -0.000  -0.258  -0.000   0.000   0.000   0.000   0.059   0.000  -0.000   0.007   0.004  -0.000  -0.000  -0.000  -0.000
  0.003   0.000  -0.000  -0.344   0.075  -0.002  -0.000   0.000   0.130  -0.056  -0.000   0.000   0.001   0.000  -0.009   0.000
  0.000   0.003   0.000   0.075  -0.276  -0.000  -0.002  -0.000  -0.056   0.078  -0.000  -0.000  -0.002   0.000   0.005  -0.000
 -0.000   0.000  -0.048   0.000   0.000   0.000   0.000   0.007   0.000  -0.000   0.104   0.096  -0.000   0.000   0.000   0.000
 -0.000  -0.000  -0.003   0.000   0.000   0.000   0.000   0.004   0.000  -0.000   0.096  -0.035   0.000  -0.003   0.000   0.000
  0.011   0.017  -0.000   0.009   0.023  -0.005  -0.009  -0.000   0.001  -0.002   0.000   0.000   0.012  -0.000  -0.000   0.002
  0.000   0.000   0.002  -0.000  -0.000  -0.000   0.000  -0.000   0.000   0.000   0.000  -0.003  -0.000   0.010   0.000  -0.000
  0.023  -0.009   0.000   0.017  -0.011  -0.002  -0.001  -0.000  -0.009   0.005   0.000   0.000  -0.000   0.000   0.012  -0.000
  0.000   0.002  -0.000  -0.000   0.000  -0.001  -0.001  -0.000   0.000  -0.000   0.000   0.000   0.002  -0.000  -0.000  -0.000
  0.000  -0.000   0.002   0.000  -0.000  -0.000   0.000  -0.001   0.000   0.000  -0.000   0.000  -0.000   0.002   0.000   0.000
  0.000   0.000   0.000   0.002  -0.000  -0.000  -0.000  -0.000  -0.001   0.001   0.000   0.000   0.000   0.000   0.002   0.000


------------------------ aborting loop because EDIFF is reached ----------------------------------------





 total charge     

# of ion       s       p       d       tot
------------------------------------------
    1        0.329   0.366   6.078   6.773
    2        0.352   0.461   6.306   7.120
    3        0.730   0.911   0.000   1.641
    4        1.009   1.452   0.000   2.461
    5        1.373   2.334   0.000   3.706
    6        1.360   2.324   0.000   3.685
    7        1.372   2.334   0.000   3.707
    8        1.365   2.369   0.000   3.734
    9        1.356   2.377   0.000   3.733
   10        1.360   2.363   0.000   3.723
--------------------------------------------------
tot         10.607  17.292  12.384  40.283



 magnetization (x)

# of ion       s       p       d       tot
------------------------------------------
    1        0.019   0.018   3.319   3.356
    2        0.009   0.011   1.001   1.021
    3       -0.000   0.011   0.000   0.010
    4       -0.002   0.002   0.000  -0.000
    5        0.005   0.044   0.000   0.049
    6        0.005   0.037   0.000   0.042
    7        0.006   0.044   0.000   0.050
    8        0.008   0.051   0.000   0.059
    9        0.007   0.045   0.000   0.052
   10        0.005   0.048   0.000   0.053
--------------------------------------------------
tot          0.061   0.312   4.320   4.692

    CHARGE:  cpu time    2.0680: real time    2.0689
    FORLOC:  cpu time    0.0640: real time    0.0650
    FORNL :  cpu time    6.7240: real time    6.8463
    STRESS:  cpu time   20.5560: real time   20.7308
    FORCOR:  cpu time   52.9040: real time   53.2927
    FORHAR:  cpu time    0.3320: real time    0.3303
    MIXING:  cpu time    0.0400: real time    0.0399
    OFIELD:  cpu time    0.0000: real time    0.0001

  FORCE on cell =-STRESS in cart. coord.  units (eV):
  Direction    XX          YY          ZZ          XY          YZ          ZX
  --------------------------------------------------------------------------------------
  Alpha Z    33.65575    33.65575    33.65575
  Ewald   12005.93388 12005.93070-14034.13724    -0.00142    -0.00056    -0.00101
  Hartree 12501.20045 12501.20094-12182.97006    -0.00012     0.00005     0.00007
  E(xc)    -241.01850  -241.01852  -240.69352     0.00003     0.00000     0.00000
  Local  -25434.84103-25434.83992 25249.74841     0.00112     0.00032     0.00058
  n-local   475.20911   476.42811   479.88492     0.37463     0.69129     0.51913
  augment   -40.40592   -40.40594   -44.95179     0.00146    -0.00000     0.00001
  Kinetic   702.06075   696.99611   739.40404    -2.95578    -0.51945    -0.14612
  Fock        0.00000     0.00000     0.00000     0.00000     0.00000     0.00000
  -------------------------------------------------------------------------------------
  Total      -0.12915    -0.12915    -0.05949     0.00000    -0.00000     0.00000
  in kB      -0.32420    -0.32420    -0.14935     0.00000    -0.00000     0.00000
  external pressure =       -0.27 kB  Pullay stress =        0.00 kB


 VOLUME and BASIS-vectors are now :
 -----------------------------------------------------------------------------
  energy-cutoff  :      520.00
  volume of cell :      638.23
      direct lattice vectors                 reciprocal lattice vectors
     5.836840081 -0.000000086 -0.000000000     0.171325576 -0.098914866  0.000000000
     2.918419851  5.054851552 -0.000000000     0.000000003  0.197829745  0.000000000
    -0.000000000 -0.000000000 21.631856270     0.000000000  0.000000000  0.046228118

  length of vectors
     5.836840081  5.836839782 21.631856270     0.197829734  0.197829745  0.046228118


 FORCES acting on ions
    electron-ion (+dipol)            ewald-force                    non-local-force                 convergence-correction
 -----------------------------------------------------------------------------------------------
   -.148E-03 -.123E-03 0.635E+01   0.678E-03 0.398E-03 -.748E+01   -.182E-18 -.204E-18 0.116E+01   -.106E-05 -.542E-06 -.129E-01
   0.732E-04 0.749E-04 0.117E+01   -.621E-03 -.362E-03 -.184E+01   -.105E-18 0.276E-16 0.664E+00   -.816E-06 -.535E-06 -.609E-02
   -.354E-04 -.172E-04 0.273E+03   -.229E-03 -.131E-03 -.269E+03   0.649E-18 0.726E-18 -.412E+01   -.658E-07 -.235E-07 -.180E-01
   0.350E-04 0.285E-04 -.294E+03   0.277E-03 0.152E-03 0.285E+03   -.152E-16 -.146E-17 0.828E+01   0.794E-07 0.604E-07 0.160E-01
   0.115E+02 -.152E+02 -.549E+03   -.150E+02 0.160E+02 0.554E+03   0.344E+01 -.645E+00 -.415E+01   0.595E-02 -.135E+00 0.212E-01
   -.189E+02 -.238E+01 -.549E+03   0.213E+02 0.501E+01 0.554E+03   -.228E+01 -.266E+01 -.415E+01   -.120E+00 0.625E-01 0.212E-01
   0.741E+01 0.176E+02 -.549E+03   -.633E+01 -.210E+02 0.553E+03   -.116E+01 0.330E+01 -.415E+01   0.114E+00 0.728E-01 0.212E-01
   0.639E+01 -.137E+02 0.552E+03   -.377E+01 0.148E+02 -.556E+03   -.262E+01 -.947E+00 0.380E+01   -.457E-02 -.146E+00 -.339E-01
   -.150E+02 0.131E+01 0.552E+03   0.147E+02 -.413E+01 -.556E+03   0.487E+00 0.274E+01 0.380E+01   -.124E+00 0.771E-01 -.339E-01
   0.865E+01 0.124E+02 0.552E+03   -.109E+02 -.107E+02 -.556E+03   0.213E+01 -.179E+01 0.380E+01   0.129E+00 0.692E-01 -.339E-01
 -----------------------------------------------------------------------------------------------
   -.218E-04 -.141E-04 -.485E+01   -.178E-14 0.178E-14 0.000E+00   0.000E+00 0.000E+00 0.493E+01   -.224E-05 -.131E-05 -.591E-01


 POSITION                                       TOTAL-FORCE (eV/Angst)
 -----------------------------------------------------------------------------------
      2.91842      1.68495     10.79892        -0.000000     -0.000000      0.021199
      5.83684      3.36990     10.82067        -0.000000     -0.000000     -0.012033
     -0.00000     -0.00000      9.67482        -0.000000     -0.000000     -0.027918
     -0.00000     -0.00000     11.87430        -0.000000     -0.000000     -0.080038
      3.81783     -0.09623     12.36474        -0.035794     -0.009868      0.003622
      0.92617      1.79663     12.36474         0.009351      0.035932      0.003622
      4.01127      3.35445     12.36474         0.026442     -0.026065      0.003622
      5.00503      4.97055      9.29879        -0.000730      0.015598      0.029308
      7.63895      3.28994      9.29879         0.013873     -0.007166      0.029308
      4.86654      1.84921      9.29879        -0.013143     -0.008431      0.029308
 -----------------------------------------------------------------------------------
    total drift:                               -0.000024     -0.000015      0.023949


--------------------------------------------------------------------------------------------------------



  FREE ENERGIE OF THE ION-ELECTRON SYSTEM (eV)
  ---------------------------------------------------
  free  energy   TOTEN  =       -51.28377958 eV

  energy  without entropy=      -51.28377958  energy(sigma->0) =      -51.28377958

 d Force =-0.1530659E-04[-0.146E-04,-0.160E-04]  d Energy = 0.6901176E-04-0.843E-04
 d Force = 0.1079879E-01[ 0.108E-01, 0.108E-01]  d Ewald  =-0.5505607E+00 0.561E+00


--------------------------------------------------------------------------------------------------------


    POTLOK:  cpu time   51.7280: real time   53.2418


--------------------------------------------------------------------------------------------------------




--------------------------------------------------------------------------------------------------------


  
 reached required accuracy - stopping structural energy minimisation
     LOOP+:  cpu time  287.0440: real time  290.6146
    4ORBIT:  cpu time    0.0000: real time    0.0000



 total charge     

# of ion       s       p       d       tot
------------------------------------------
    1        0.329   0.366   6.078   6.773
    2        0.352   0.461   6.306   7.120
    3        0.730   0.911   0.000   1.641
    4        1.009   1.452   0.000   2.461
    5        1.373   2.334   0.000   3.706
    6        1.360   2.324   0.000   3.685
    7        1.372   2.334   0.000   3.707
    8        1.365   2.369   0.000   3.734
    9        1.356   2.377   0.000   3.733
   10        1.360   2.363   0.000   3.723
--------------------------------------------------
tot         10.607  17.292  12.384  40.283



 magnetization (x)

# of ion       s       p       d       tot
------------------------------------------
    1        0.019   0.018   3.319   3.356
    2        0.009   0.011   1.001   1.021
    3       -0.000   0.011   0.000   0.010
    4       -0.002   0.002   0.000  -0.000
    5        0.005   0.044   0.000   0.049
    6        0.005   0.037   0.000   0.042
    7        0.006   0.044   0.000   0.050
    8        0.008   0.051   0.000   0.059
    9        0.007   0.045   0.000   0.052
   10        0.005   0.048   0.000   0.053
--------------------------------------------------
tot          0.061   0.312   4.320   4.692

 BZINTS: Fermi energy: -2.663966; 61.000000 electrons
         Band energy:-493.486314;  BLOECHL correction:  0.000000

 total amount of memory used by VASP MPI-rank0   131401. kBytes
=======================================================================

   base      :      30000. kBytes
   nonlr-proj:       8916. kBytes
   fftplans  :      11247. kBytes
   grid      :      68332. kBytes
   one-center:        311. kBytes
   wavefun   :      12595. kBytes

  
  
 General timing and accounting informations for this job:
 ========================================================
  
                  Total CPU time used (sec):    23567.279
                            User time (sec):    22887.064
                          System time (sec):      680.216
                         Elapsed time (sec):    23804.783
  
                   Maximum memory used (kb):      391556.
                   Average memory used (kb):           0.
  
                          Minor page faults:     20278195
                          Major page faults:            7
                 Voluntary context switches:         1173
