 vasp.5.4.4.18Apr17-6-g9f103f2a35 (build May  1 2020 15:48:39) complex           
 executed on             LinuxGNU date 2020.06.28  13:08:10
 running on   16 total cores
 distrk:  each k-point on   16 cores,    1 groups
 distr:  one band on NCORES_PER_BAND=   1 cores,   16 groups


--------------------------------------------------------------------------------------------------------


 INCAR:
 POTCAR:   PAW_PBE Co 06Sep2000                   
 POTCAR:    PAW_PBE P 17Jan2003                   
 POTCAR:   PAW_PBE Se 06Sep2000                   

 ----------------------------------------------------------------------------- 
|                                                                             |
|           W    W    AA    RRRRR   N    N  II  N    N   GGGG   !!!           |
|           W    W   A  A   R    R  NN   N  II  NN   N  G    G  !!!           |
|           W    W  A    A  R    R  N N  N  II  N N  N  G       !!!           |
|           W WW W  AAAAAA  RRRRR   N  N N  II  N  N N  G  GGG   !            |
|           WW  WW  A    A  R   R   N   NN  II  N   NN  G    G                |
|           W    W  A    A  R    R  N    N  II  N    N   GGGG   !!!           |
|                                                                             |
|      For optimal performance we recommend to set                            |
|        NCORE= 4 - approx SQRT( number of cores)                             |
|      NCORE specifies how many cores store one orbital (NPAR=cpu/NCORE).     |
|      This setting can  greatly improve the performance of VASP for DFT.     |
|      The default,   NCORE=1            might be grossly inefficient         |
|      on modern multi-core architectures or massively parallel machines.     |
|      Do your own testing !!!!                                               |
|      Unfortunately you need to use the default for GW and RPA calculations. |
|      (for HF NCORE is supported but not extensively tested yet)             |
|                                                                             |
 ----------------------------------------------------------------------------- 


 ----------------------------------------------------------------------------- 
|                                                                             |
|  ADVICE TO THIS USER RUNNING 'VASP/VAMP'   (HEAR YOUR MASTER'S VOICE ...):  |
|                                                                             |
|      You have switched on vdW-DFT.                                          |
|      This routine was written and supplied by Jiri Klimes.                  |
|      We recommed that you carefully read and cite the following             |
|      publication                                                            |
|      J. Klimes, D.R. Bowler, A. Michelides                                  |
|        J. Phys.: Cond Matt. 22 022201 (2010)                                |
|      J. Klimes, D.R. Bowler, A. Michelides                                  |
|        Phys. Rev. B. 83, 195131 (2011)                                      |
|      and references therein.                                                |
|                                                                             |
 ----------------------------------------------------------------------------- 

 POTCAR:   PAW_PBE Co 06Sep2000                   
   VRHFIN =Co: d8 s1                                                            
   LEXCH  = PE                                                                  
   EATOM  =   813.5563 eV,   59.7947 Ry                                         
                                                                                
   TITEL  = PAW_PBE Co 06Sep2000                                                
   LULTRA =        F    use ultrasoft PP ?                                      
   IUNSCR =        1    unscreen: 0-lin 1-nonlin 2-no                           
   RPACOR =    2.000    partial core radius                                     
   POMASS =   58.933; ZVAL   =    9.000    mass and valenz                      
   RCORE  =    2.300    outmost cutoff radius                                   
   RWIGS  =    2.460; RWIGS  =    1.302    wigner-seitz radius (au A)           
   ENMAX  =  267.969; ENMIN  =  200.977 eV                                      
   RCLOC  =    1.697    cutoff for local pot                                    
   LCOR   =        T    correct aug charges                                     
   LPAW   =        T    paw PP                                                  
   EAUG   =  477.818                                                            
   DEXC   =    -.016                                                            
   RMAX   =    2.817    core radius for proj-oper                               
   RAUG   =    1.300    factor for augmentation sphere                          
   RDEP   =    2.393    radius for radial grids                                 
   QCUT   =   -4.438; QGAM   =    8.876    optimization parameters              
                                                                                
   Description                                                                  
     l     E      TYP  RCUT    TYP  RCUT                                        
     2   .000     23  2.300                                                     
     2   .000     23  2.300                                                     
     0   .000     23  2.300                                                     
     0   .000     23  2.300                                                     
     1  -.200     23  2.300                                                     
     1   .000     23  2.300                                                     
     3   .000      7   .000                                                     
  local pseudopotential read in
  partial core-charges read in
  atomic valenz-charges read in
  non local Contribution for L=           2  read in
    real space projection operators read in
  non local Contribution for L=           2  read in
    real space projection operators read in
  non local Contribution for L=           0  read in
    real space projection operators read in
  non local Contribution for L=           0  read in
    real space projection operators read in
  non local Contribution for L=           1  read in
    real space projection operators read in
  non local Contribution for L=           1  read in
    real space projection operators read in
    PAW grid and wavefunctions read in

   number of l-projection  operators is LMAX  =           6
   number of lm-projection operators is LMMAX =          18

 POTCAR:    PAW_PBE P 17Jan2003                   
   VRHFIN =P : s2p3                                                             
   LEXCH  = PE                                                                  
   EATOM  =   176.0430 eV,   12.9388 Ry                                         
                                                                                
   TITEL  = PAW_PBE P 17Jan2003                                                 
   LULTRA =        F    use ultrasoft PP ?                                      
   IUNSCR =        1    unscreen: 0-lin 1-nonlin 2-no                           
   RPACOR =    1.500    partial core radius                                     
   POMASS =   30.974; ZVAL   =    5.000    mass and valenz                      
   RCORE  =    1.900    outmost cutoff radius                                   
   RWIGS  =    2.330; RWIGS  =    1.233    wigner-seitz radius (au A)           
   ENMAX  =  270.000; ENMIN  =  191.280 eV                                      
   ICORE  =        2    local potential                                         
   LCOR   =        T    correct aug charges                                     
   LPAW   =        T    paw PP                                                  
   EAUG   =  342.924                                                            
   DEXC   =    -.002                                                            
   RMAX   =    2.887    core radius for proj-oper                               
   RAUG   =    1.300    factor for augmentation sphere                          
   RDEP   =    1.931    radius for radial grids                                 
   QCUT   =   -4.330; QGAM   =    8.659    optimization parameters              
                                                                                
   Description                                                                  
     l     E      TYP  RCUT    TYP  RCUT                                        
     0   .000     23  1.900                                                     
     0   .000     23  1.900                                                     
     1   .000     23  1.900                                                     
     1   .000     23  1.900                                                     
     2   .000     23  1.900                                                     
  local pseudopotential read in
  partial core-charges read in
  atomic valenz-charges read in
  non local Contribution for L=           0  read in
    real space projection operators read in
  non local Contribution for L=           0  read in
    real space projection operators read in
  non local Contribution for L=           1  read in
    real space projection operators read in
  non local Contribution for L=           1  read in
    real space projection operators read in
    PAW grid and wavefunctions read in

   number of l-projection  operators is LMAX  =           4
   number of lm-projection operators is LMMAX =           8

 POTCAR:   PAW_PBE Se 06Sep2000                   
   VRHFIN =Se: s2p4                                                             
   LEXCH  = PE                                                                  
   EATOM  =   256.9644 eV,   18.8864 Ry                                         
                                                                                
   TITEL  = PAW_PBE Se 06Sep2000                                                
   LULTRA =        F    use ultrasoft PP ?                                      
   IUNSCR =        1    unscreen: 0-lin 1-nonlin 2-no                           
   RPACOR =    1.900    partial core radius                                     
   POMASS =   78.960; ZVAL   =    6.000    mass and valenz                      
   RCORE  =    2.100    outmost cutoff radius                                   
   RWIGS  =    2.200; RWIGS  =    1.164    wigner-seitz radius (au A)           
   ENMAX  =  211.534; ENMIN  =  158.651 eV                                      
   ICORE  =        3    local potential                                         
   LCOR   =        T    correct aug charges                                     
   LPAW   =        T    paw PP                                                  
   EAUG   =  446.842                                                            
   DEXC   =    -.031                                                            
   RMAX   =    3.170    core radius for proj-oper                               
   RAUG   =    1.300    factor for augmentation sphere                          
   RDEP   =    2.177    radius for radial grids                                 
   QCUT   =   -3.943; QGAM   =    7.886    optimization parameters              
                                                                                
   Description                                                                  
     l     E      TYP  RCUT    TYP  RCUT                                        
     0   .000     23  2.100                                                     
     0   .000     23  2.100                                                     
     1   .000     23  2.100                                                     
     1   .000     23  2.100                                                     
     2   .000     23  2.100                                                     
     3  -.100      7  2.100                                                     
  local pseudopotential read in
  partial core-charges read in
  atomic valenz-charges read in
  non local Contribution for L=           0  read in
    real space projection operators read in
  non local Contribution for L=           0  read in
    real space projection operators read in
  non local Contribution for L=           1  read in
    real space projection operators read in
  non local Contribution for L=           1  read in
    real space projection operators read in
  non local Contribution for L=           2  read in
    real space projection operators read in
    PAW grid and wavefunctions read in

   number of l-projection  operators is LMAX  =           5
   number of lm-projection operators is LMMAX =          13

 Optimization of the real space projectors (new method)

 maximal supplied QI-value         = 16.25
 optimisation between [QCUT,QGAM] = [ 11.54, 23.24] = [ 37.28,151.24] Ry 
 Optimized for a Real-space Cutoff    1.53 Angstroem

   l    n(q)    QCUT    max X(q) W(low)/X(q) W(high)/X(q)  e(spline) 
   2     10    11.539     4.599    0.83E-05    0.15E-04    0.45E-07
   2     10    11.539    18.158    0.10E-03    0.14E-03    0.24E-06
   0     11    11.539    15.740    0.19E-04    0.12E-05    0.17E-07
   0     11    11.539    47.662    0.48E-04    0.15E-04    0.31E-06
   1     10    11.539     5.777    0.11E-04    0.46E-05    0.25E-07
   1     10    11.539     8.007    0.46E-04    0.29E-04    0.11E-06
 Optimization of the real space projectors (new method)

 maximal supplied QI-value         = 19.84
 optimisation between [QCUT,QGAM] = [ 11.51, 23.22] = [ 37.09,150.92] Ry 
 Optimized for a Real-space Cutoff    1.21 Angstroem

   l    n(q)    QCUT    max X(q) W(low)/X(q) W(high)/X(q)  e(spline) 
   0      8    11.508     6.651    0.19E-04    0.31E-05    0.49E-08
   0      8    11.508    90.285    0.95E-04    0.17E-03    0.51E-07
   1      8    11.508     4.328    0.14E-04    0.32E-04    0.22E-07
   1      8    11.508    54.583    0.16E-03    0.71E-04    0.89E-07
 Optimization of the real space projectors (new method)

 maximal supplied QI-value         = 17.95
 optimisation between [QCUT,QGAM] = [ 11.67, 23.34] = [ 38.13,152.52] Ry 
 Optimized for a Real-space Cutoff    1.25 Angstroem

   l    n(q)    QCUT    max X(q) W(low)/X(q) W(high)/X(q)  e(spline) 
   0      9    11.669     6.499    0.13E-04    0.81E-05    0.11E-07
   0      9    11.669    52.623    0.18E-03    0.46E-04    0.72E-07
   1      8    11.669     4.229    0.40E-04    0.45E-04    0.31E-07
   1      8    11.669    29.991    0.22E-03    0.36E-03    0.10E-06
   2      8    11.669     3.719    0.19E-03    0.46E-04    0.50E-07

 ----------------------------------------------------------------------------- 
|                                                                             |
|  ADVICE TO THIS USER RUNNING 'VASP/VAMP'   (HEAR YOUR MASTER'S VOICE ...):  |
|                                                                             |
|      You enforced a specific xc-type in the INCAR file,                     |
|      a different type was found on the POTCAR file                          |
|          I HOPE YOU KNOW, WHAT YOU ARE  DOING                               |
|                                                                             |
 ----------------------------------------------------------------------------- 

 PAW_PBE Co 06Sep2000                   :
 energy of atom  1       EATOM= -813.5563
 kinetic energy error for atom=    0.0028 (will be added to EATOM!!)
  PAW_PBE P 17Jan2003                   :
 energy of atom  2       EATOM= -176.0430
 kinetic energy error for atom=    0.0011 (will be added to EATOM!!)
 PAW_PBE Se 06Sep2000                   :
 energy of atom  3       EATOM= -256.9644
 kinetic energy error for atom=    0.0007 (will be added to EATOM!!)


 POSCAR: Co2 P2 Se6                              
  positions in direct lattice
  velocities in cartesian coordinates
  No initial velocities read in
 exchange correlation table for  LEXCH =       42
   RHO(1)=    0.500       N(1)  =     2000
   RHO(2)=  100.500       N(2)  =     4000



--------------------------------------------------------------------------------------------------------


 ion  position               nearest neighbor table
   1  0.333  0.333  0.500-   6 2.78   5 2.78   7 2.78   8 2.78  10 2.78   9 2.78
   2  0.667  0.667  0.500-   9 2.78   8 2.78  10 2.78   5 2.78   7 2.78   6 2.78
   3  0.000  0.000  0.448-   4 2.43   8 2.63  10 2.63   9 2.63
   4  0.000  0.000  0.552-   3 2.43   5 2.63   7 2.63   6 2.63
   5  0.626  0.000  0.574-   4 2.63   1 2.78   2 2.78
   6  0.000  0.373  0.574-   4 2.63   1 2.78   2 2.78
   7  0.373  0.626  0.574-   4 2.63   1 2.78   2 2.78
   8  0.374  1.000  0.426-   3 2.63   2 2.78   1 2.78
   9  1.000  0.627  0.426-   3 2.63   2 2.78   1 2.78
  10  0.627  0.374  0.426-   3 2.63   2 2.78   1 2.78

  LATTYP: Found a hexagonal cell.
 ALAT       =     6.9077769333
 C/A-ratio  =     3.3939410937
  
  Lattice vectors:
  
 A1 = (   3.4538890000,  -5.9823100000,   0.0000000000)
 A2 = (  -6.9077770000,   0.0000000000,   0.0000000000)
 A3 = (   0.0000000000,   0.0000000000, -23.4445880000)


Analysis of symmetry for initial positions (statically):
=====================================================================
 Subroutine PRICEL returns:
 Original cell was already a primitive cell.
 

 Routine SETGRP: Setting up the symmetry group for a 
 hexagonal supercell.


 Subroutine GETGRP returns: Found  6 space group operations
 (whereof  6 operations were pure point group operations)
 out of a pool of 24 trial point group operations.


The static configuration has the point symmetry S_6 .


Analysis of symmetry for dynamics (positions and initial velocities):
=====================================================================
 Subroutine PRICEL returns:
 Original cell was already a primitive cell.
 

 Routine SETGRP: Setting up the symmetry group for a 
 hexagonal supercell.


 Subroutine GETGRP returns: Found  6 space group operations
 (whereof  6 operations were pure point group operations)
 out of a pool of 24 trial point group operations.


The dynamic configuration has the point symmetry S_6 .


Analysis of constrained symmetry for selective dynamics:
=====================================================================
 Subroutine PRICEL returns:
 Original cell was already a primitive cell.
 

 Routine SETGRP: Setting up the symmetry group for a 
 hexagonal supercell.


 Subroutine GETGRP returns: Found  6 space group operations
 (whereof  6 operations were pure point group operations)
 out of a pool of 24 trial point group operations.


The constrained configuration has the point symmetry S_6 .


Analysis of structural, dynamic, and magnetic symmetry:
=====================================================================
 Subroutine PRICEL returns:
 Original cell was already a primitive cell.
 

 Routine SETGRP: Setting up the symmetry group for a 
 hexagonal supercell.


 Subroutine GETGRP returns: Found  6 space group operations
 (whereof  6 operations were pure point group operations)
 out of a pool of 24 trial point group operations.


The magnetic configuration has the point symmetry S_6 .


 Subroutine INISYM returns: Found  6 space group operations
 (whereof  6 operations are pure point group operations),
 and found     1 'primitive' translations



 KPOINTS: Kpoints from vasprun.xml                

Automatic generation of k-mesh.
Space group operators:
 irot       det(A)        alpha          n_x          n_y          n_z        tau_x        tau_y        tau_z
    1     1.000000     0.000000     1.000000     0.000000     0.000000     0.000000     0.000000     0.000000
    2    -1.000000     0.000000     1.000000     0.000000     0.000000     0.000000     0.000000     0.000000
    3     1.000000   120.000000     0.000000     0.000000     1.000000     0.000000     0.000000     0.000000
    4    -1.000000   120.000000     0.000000     0.000000     1.000000     0.000000     0.000000     0.000000
    5     1.000000   120.000000     0.000000     0.000000    -1.000000     0.000000     0.000000     0.000000
    6    -1.000000   120.000000     0.000000     0.000000    -1.000000     0.000000     0.000000     0.000000
 
 Subroutine IBZKPT returns following result:
 ===========================================
 
 Found      5 irreducible k-points:
 
 Following reciprocal coordinates:
            Coordinates               Weight
  0.000000  0.000000  0.000000      1.000000
  0.200000  0.000000  0.000000      6.000000
  0.400000  0.000000  0.000000      6.000000
  0.400000  0.200000  0.000000      6.000000
 -0.400000  0.200000  0.000000      6.000000
 
 Following cartesian coordinates:
            Coordinates               Weight
  0.000000  0.000000  0.000000      1.000000
  0.028953 -0.016716  0.000000      6.000000
  0.057906 -0.033432  0.000000      6.000000
  0.057906  0.000000  0.000000      6.000000
 -0.057906  0.066864  0.000000      6.000000
 
 TETIRR: Found     15 inequivalent tetrahedra from      150


--------------------------------------------------------------------------------------------------------




 Dimension of arrays:
   k-points           NKPTS =      5   k-points in BZ     NKDIM =      5   number of bands    NBANDS=     48
   number of dos      NEDOS =    301   number of ions     NIONS =     10
   non local maximal  LDIM  =      6   non local SUM 2l+1 LMDIM =     18
   total plane-waves  NPLWV = 524880
   max r-space proj   IRMAX =   8238   max aug-charges    IRDMAX=  23823
   dimension x,y,z NGX =    54 NGY =   54 NGZ =  180
   dimension x,y,z NGXF=   108 NGYF=  108 NGZF=  360
   support grid    NGXF=   108 NGYF=  108 NGZF=  360
   ions per type =               2   2   6
   NGX,Y,Z   is equivalent  to a cutoff of  13.00, 13.00, 12.76 a.u.
   NGXF,Y,Z  is equivalent  to a cutoff of  25.99, 25.99, 25.53 a.u.

 SYSTEM =  unknown system                          
 POSCAR =  Co2 P2 Se6                              

 Startparameter for this run:
   NWRITE =      2    write-flag & timer
   PREC   = accura    normal or accurate (medium, high low for compatibility)
   ISTART =      0    job   : 0-new  1-cont  2-samecut
   ICHARG =      2    charge: 1-file 2-atom 10-const
   ISPIN  =      2    spin polarized calculation?
   LNONCOLLINEAR =      F non collinear calculations
   LSORBIT =      F    spin-orbit coupling
   INIWAV =      1    electr: 0-lowe 1-rand  2-diag
   LASPH  =      F    aspherical Exc in radial PAW
   METAGGA=      F    non-selfconsistent MetaGGA calc.

 Electronic Relaxation 1
   ENCUT  =  520.0 eV  38.22 Ry    6.18 a.u.  12.84 12.84 43.59*2*pi/ulx,y,z
   ENINI  =  520.0     initial cutoff
   ENAUG  =  477.8 eV  augmentation charge cutoff
   NELM   =    400;   NELMIN=  2; NELMDL=  0     # of ELM steps 
   EDIFF  = 0.1E-03   stopping-criterion for ELM
   LREAL  =      T    real-space projection
   NLSPLINE    = F    spline interpolate recip. space projectors
   LCOMPAT=      F    compatible to vasp.4.4
   GGA_COMPAT  = T    GGA compatible to vasp.4.4-vasp.4.6
   LMAXPAW     = -100 max onsite density
   LMAXMIX     =    2 max onsite mixed and CHGCAR
   VOSKOWN=      0    Vosko Wilk Nusair interpolation
   ROPT   =   -0.00025  -0.00025  -0.00025
 Ionic relaxation
   EDIFFG = 0.1E-02   stopping-criterion for IOM
   NSW    =     99    number of steps for IOM
   NBLOCK =      1;   KBLOCK =     99    inner block; outer block 
   IBRION =      2    ionic relax: 0-MD 1-quasi-New 2-CG
   NFREE  =      1    steps in history (QN), initial steepest desc. (CG)
   ISIF   =      3    stress and relaxation
   IWAVPR =     11    prediction:  0-non 1-charg 2-wave 3-comb
   ISYM   =      2    0-nonsym 1-usesym 2-fastsym
   LCORR  =      T    Harris-Foulkes like correction to forces

   POTIM  = 0.5000    time-step for ionic-motion
   TEIN   =    0.0    initial temperature
   TEBEG  =    0.0;   TEEND  =   0.0 temperature during run
   SMASS  =  -3.00    Nose mass-parameter (am)
   estimated Nose-frequenzy (Omega)   =  0.10E-29 period in steps =****** mass=  -0.109E-26a.u.
   SCALEE = 1.0000    scale energy and forces
   NPACO  =    256;   APACO  = 16.0  distance and # of slots for P.C.
   PSTRESS=    0.0 pullay stress

  Mass of Ions in am
   POMASS =  58.93 30.97 78.96
  Ionic Valenz
   ZVAL   =   9.00  5.00  6.00
  Atomic Wigner-Seitz radii
   RWIGS  =  -1.00 -1.00 -1.00
  virtual crystal weights 
   VCA    =   1.00  1.00  1.00
   NELECT =      64.0000    total number of electrons
   NUPDOWN=      -1.0000    fix difference up-down

 DOS related values:
   EMIN   =  10.00;   EMAX   =-10.00  energy-range for DOS
   EFERMI =   0.00
   ISMEAR =    -5;   SIGMA  =   0.05  broadening in eV -4-tet -1-fermi 0-gaus

 Electronic relaxation 2 (details)
   IALGO  =     38    algorithm
   LDIAG  =      T    sub-space diagonalisation (order eigenvalues)
   LSUBROT=      F    optimize rotation matrix (better conditioning)
   TURBO    =      0    0=normal 1=particle mesh
   IRESTART =      0    0=no restart 2=restart with 2 vectors
   NREBOOT  =      0    no. of reboots
   NMIN     =      0    reboot dimension
   EREF     =   0.00    reference energy to select bands
   IMIX   =      4    mixing-type and parameters
     AMIX     =   0.40;   BMIX     =  1.00
     AMIX_MAG =   1.60;   BMIX_MAG =  1.00
     AMIN     =   0.01
     WC   =   100.;   INIMIX=   1;  MIXPRE=   1;  MAXMIX= -45

 Intra band minimization:
   WEIMIN = 0.0010     energy-eigenvalue tresh-hold
   EBREAK =  0.52E-06  absolut break condition
   DEPER  =   0.30     relativ break condition  

   TIME   =   0.40     timestep for ELM

  volume/ion in A,a.u.               =      96.88       653.80
  Fermi-wavevector in a.u.,A,eV,Ry     =   0.661787  1.250596  5.958835  0.437962
  Thomas-Fermi vector in A             =   1.734655

 Write flags
   LWAVE        =      F    write WAVECAR
   LDOWNSAMPLE  =      F    k-point downsampling of WAVECAR
   LCHARG       =      T    write CHGCAR
   LVTOT        =      F    write LOCPOT, total local potential
   LVHAR        =      F    write LOCPOT, Hartree potential only
   LELF         =      F    write electronic localiz. function (ELF)
   LORBIT       =     11    0 simple, 1 ext, 2 COOP (PROOUT), +10 PAW based schemes


 Dipole corrections
   LMONO  =      F    monopole corrections only (constant potential shift)
   LDIPOL =      F    correct potential (dipole corrections)
   IDIPOL =      0    1-x, 2-y, 3-z, 4-all directions 
   EPSILON=  1.0000000 bulk dielectric constant

 Exchange correlation treatment:
   GGA     =    BO    GGA type
   LEXCH   =    42    internal setting for exchange type
   VOSKOWN=      0    Vosko Wilk Nusair interpolation
   LHFCALC =     F    Hartree Fock is set to
   LHFONE  =     F    Hartree Fock one center treatment
   AEXX    =    0.0000 exact exchange contribution

 vdW DFT:
   LUSE_VDW   =     T    switch on vdW DFT
   Zab_VDW    =-.8491    correlation parameter
   PARAM1     =0.1833
   PARAM2     =0.2200
   PARAM3     =0.0000
   -- rVV10 --
   BPARAM     = 6.3000
   CPARAM     = 0.0093

 Linear response parameters
   LEPSILON=     F    determine dielectric tensor
   LRPA    =     F    only Hartree local field effects (RPA)
   LNABLA  =     F    use nabla operator in PAW spheres
   LVEL    =     F    velocity operator in full k-point grid
   LINTERFAST=   F  fast interpolation
   KINTER  =     0    interpolate to denser k-point grid
   CSHIFT  =0.1000    complex shift for real part using Kramers Kronig
   OMEGAMAX=  -1.0    maximum frequency
   DEG_THRESHOLD= 0.2000000E-02 threshold for treating states as degnerate
   RTIME   =   -0.100 relaxation time in fs
  (WPLASMAI=    0.000 imaginary part of plasma frequency in eV, 0.658/RTIME)
   DFIELD  = 0.0000000 0.0000000 0.0000000 field for delta impulse in time

 Orbital magnetization related:
   ORBITALMAG=     F  switch on orbital magnetization
   LCHIMAG   =     F  perturbation theory with respect to B field
   DQ        =  0.001000  dq finite difference perturbation B field
   LLRAUG    =     F  two centre corrections for induced B field



--------------------------------------------------------------------------------------------------------


 conjugate gradient relaxation of ions
   using selective dynamics as specified on POSCAR
 charge density and potential will be updated during run
 spin polarized calculation
 Variant of blocked Davidson
 Davidson routine will perform the subspace rotation
 perform sub-space diagonalisation
    after iterative eigenvector-optimisation
 modified Broyden-mixing scheme, WC =      100.0
 initial mixing is a Kerker type mixing with AMIX =  0.4000 and BMIX =      1.0000
 Hartree-type preconditioning will be used
 using additional bands           16
 real space projection scheme for non local part
 use partial core corrections
 calculate Harris-corrections to forces   (improved forces if not selfconsistent)
 use gradient corrections 
 use of overlap-Matrix (Vanderbilt PP)
 Fermi weights with tetrahedron method with Bloechl corrections


--------------------------------------------------------------------------------------------------------


  energy-cutoff  :      520.00
  volume of cell :      968.84
      direct lattice vectors                 reciprocal lattice vectors
     6.907777000 -0.000000000  0.000000000     0.144764372 -0.083579742  0.000000000
     3.453888000  5.982310000  0.000000000     0.000000000  0.167159509 -0.000000000
     0.000000000  0.000000000 23.444588000    -0.000000000  0.000000000  0.042653767

  length of vectors
     6.907777000  6.907776433 23.444588000     0.167159495  0.167159509  0.042653767



 k-points in units of 2pi/SCALE and weight: Kpoints from vasprun.xml                
   0.00000000  0.00000000  0.00000000       0.040
   0.02895287 -0.01671595  0.00000000       0.240
   0.05790575 -0.03343190  0.00000000       0.240
   0.05790575  0.00000000  0.00000000       0.240
  -0.05790575  0.06686380  0.00000000       0.240

 k-points in reciprocal lattice and weights: Kpoints from vasprun.xml                
   0.00000000  0.00000000  0.00000000       0.040
   0.20000000  0.00000000  0.00000000       0.240
   0.40000000  0.00000000  0.00000000       0.240
   0.40000000  0.20000000  0.00000000       0.240
  -0.40000000  0.20000000  0.00000000       0.240

 position of ions in fractional coordinates (direct lattice) 
   0.33333300  0.33333300  0.49992500
   0.66666700  0.66666700  0.50007500
   0.00000000  0.00000000  0.44821600
   0.00000000  0.00000000  0.55178400
   0.62635700  0.00042000  0.57375200
   0.00042000  0.37322400  0.57375200
   0.37322400  0.62635700  0.57375200
   0.37364300  0.99958000  0.42624800
   0.99958000  0.62677600  0.42624800
   0.62677600  0.37364300  0.42624800

 position of ions in cartesian coordinates  (Angst):
   3.45388488  1.99410134 11.72053566
   6.90778012  3.98820866 11.72405234
   0.00000000  0.00000000 10.50823946
   0.00000000  0.00000000 12.93634854
   4.32818511  0.00251257 13.45137925
   1.29197516  2.23274167 13.45137925
   4.74151509  3.74706174 13.45137925
   6.03347989  5.97979743  9.99320875
   9.06968984  3.74956833  9.99320875
   5.62014991  2.23524826  9.99320875



--------------------------------------------------------------------------------------------------------


 k-point  1 :   0.0000 0.0000 0.0000  plane waves:   26073
 k-point  2 :   0.2000 0.0000 0.0000  plane waves:   26070
 k-point  3 :   0.4000 0.0000 0.0000  plane waves:   26086
 k-point  4 :   0.4000 0.2000 0.0000  plane waves:   26085
 k-point  5 :  -0.4000 0.2000 0.0000  plane waves:   26115

 maximum and minimum number of plane-waves per node :     26115    26070

 maximum number of plane-waves:     26115
 maximum index in each direction: 
   IXMAX=   13   IYMAX=   12   IZMAX=   43
   IXMIN=  -13   IYMIN=  -13   IZMIN=  -43


 serial   3D FFT for wavefunctions
 parallel 3D FFT for charge:
    minimum data exchange during FFTs selected (reduces bandwidth)


 total amount of memory used by VASP MPI-rank0   127696. kBytes
=======================================================================

   base      :      30000. kBytes
   nonlr-proj:       7386. kBytes
   fftplans  :      11247. kBytes
   grid      :      66142. kBytes
   one-center:        311. kBytes
   wavefun   :      12610. kBytes

     INWAV:  cpu time    0.0000: real time    0.0005
 Broyden mixing: mesh for mixing (old mesh)
   NGX = 25   NGY = 25   NGZ = 87
  (NGX  =108   NGY  =108   NGZ  =360)
  gives a total of  54375 points

 initial charge density was supplied:
 charge density of overlapping atoms calculated
 number of electron      64.0000000 magnetization       9.7800000
 keeping initial charge density in first step


--------------------------------------------------------------------------------------------------------


 Maximum index for non-local projection operator         7925
 Maximum index for augmentation-charges         1715 (set IRDMAX)


--------------------------------------------------------------------------------------------------------


 First call to EWALD:  gamma=   0.179
 Maximum number of real-space cells 4x 4x 1
 Maximum number of reciprocal cells 2x 2x 6

    FEWALD:  cpu time    0.0040: real time    0.0015


--------------------------------------- Iteration      1(   1)  ---------------------------------------


vdW kernel read from vdw_kernel.bindat
  0.0000  0.2424  0.5071  0.7962  1.1119  1.4567  1.8333  2.2446  2.6937  3.1842
  3.7199  4.3049  4.9438  5.6415  6.4036  7.2358  8.1446  9.1372 10.2212 11.4050
 12.6979 14.1099 15.6519 17.3360 19.1751 21.1837 23.3773 25.7729 28.3892 31.2465
 34.3669 37.7748 41.4965 45.5611 50.0000

    POTLOK:  cpu time   52.2440: real time   52.7372
    SETDIJ:  cpu time    0.0800: real time    0.0814
     EDDAV:  cpu time   22.7240: real time   23.0174
 BZINTS: Fermi energy:  4.799044; 64.000000 electrons
         Band energy: -30.622923;  BLOECHL correction: -0.026724
       DOS:  cpu time    0.0080: real time    0.0048
    --------------------------------------------
      LOOP:  cpu time   75.0560: real time   75.8408

 eigenvalue-minimisations  :   960
 total energy-change (2. order) : 0.4308331E+03  (-0.1946856E+04)
 number of electron      64.0000000 magnetization       9.7800000
 augmentation part       64.0000000 magnetization       9.7800000

 Free energy of the ion-electron system (eV)
  ---------------------------------------------------
  alpha Z        PSCENC =        38.82057990
  Ewald energy   TEWEN  =      8063.44724659
  -Hartree energ DENC   =    -11204.17664081
  -exchange      EXHF   =         0.00000000
  -V(xc)+E(xc)   XCENC  =        26.45878538
  PAW double counting   =      1998.01171039    -1998.13580081
  entropy T*S    EENTRO =         0.00000000
  eigenvalues    EBANDS =       -30.62292331
  atomic energy  EATOM  =      3537.03019007
  Solvation  Ediel_sol  =         0.00000000
  ---------------------------------------------------
  free energy    TOTEN  =       430.83314741 eV

  energy without entropy =      430.83314741  energy(sigma->0) =      430.83314741


--------------------------------------------------------------------------------------------------------




--------------------------------------- Iteration      1(   2)  ---------------------------------------


     EDDAV:  cpu time   29.2480: real time   30.6484
 BZINTS: Fermi energy: -1.589616; 64.000000 electrons
         Band energy:-427.506829;  BLOECHL correction: -0.035623
       DOS:  cpu time    0.0040: real time    0.0049
    --------------------------------------------
      LOOP:  cpu time   29.2520: real time   30.6533

 eigenvalue-minimisations  :  1264
 total energy-change (2. order) :-0.3968839E+03  (-0.3628761E+03)
 number of electron      64.0000000 magnetization       9.7800000
 augmentation part       64.0000000 magnetization       9.7800000

 Free energy of the ion-electron system (eV)
  ---------------------------------------------------
  alpha Z        PSCENC =        38.82057990
  Ewald energy   TEWEN  =      8063.44724659
  -Hartree energ DENC   =    -11204.17664081
  -exchange      EXHF   =         0.00000000
  -V(xc)+E(xc)   XCENC  =        26.45878538
  PAW double counting   =      1998.01171039    -1998.13580081
  entropy T*S    EENTRO =         0.00000000
  eigenvalues    EBANDS =      -427.50682913
  atomic energy  EATOM  =      3537.03019007
  Solvation  Ediel_sol  =         0.00000000
  ---------------------------------------------------
  free energy    TOTEN  =        33.94924159 eV

  energy without entropy =       33.94924159  energy(sigma->0) =       33.94924159


--------------------------------------------------------------------------------------------------------




--------------------------------------- Iteration      1(   3)  ---------------------------------------


     EDDAV:  cpu time   29.8040: real time   31.0620
 BZINTS: Fermi energy: -2.664990; 64.000000 electrons
         Band energy:-502.024136;  BLOECHL correction:  0.000000
       DOS:  cpu time    0.0000: real time    0.0015
    --------------------------------------------
      LOOP:  cpu time   29.8040: real time   31.0634

 eigenvalue-minimisations  :  1296
 total energy-change (2. order) :-0.7451731E+02  (-0.7116000E+02)
 number of electron      64.0000000 magnetization       9.7800000
 augmentation part       64.0000000 magnetization       9.7800000

 Free energy of the ion-electron system (eV)
  ---------------------------------------------------
  alpha Z        PSCENC =        38.82057990
  Ewald energy   TEWEN  =      8063.44724659
  -Hartree energ DENC   =    -11204.17664081
  -exchange      EXHF   =         0.00000000
  -V(xc)+E(xc)   XCENC  =        26.45878538
  PAW double counting   =      1998.01171039    -1998.13580081
  entropy T*S    EENTRO =         0.00000000
  eigenvalues    EBANDS =      -502.02413629
  atomic energy  EATOM  =      3537.03019007
  Solvation  Ediel_sol  =         0.00000000
  ---------------------------------------------------
  free energy    TOTEN  =       -40.56806557 eV

  energy without entropy =      -40.56806557  energy(sigma->0) =      -40.56806557


--------------------------------------------------------------------------------------------------------




--------------------------------------- Iteration      1(   4)  ---------------------------------------


     EDDAV:  cpu time   27.2400: real time   28.0613
 BZINTS: Fermi energy: -2.719743; 64.000000 electrons
         Band energy:-504.882644;  BLOECHL correction:  0.000000
       DOS:  cpu time    0.0000: real time    0.0029
    --------------------------------------------
      LOOP:  cpu time   27.2400: real time   28.0643

 eigenvalue-minimisations  :  1152
 total energy-change (2. order) :-0.2858507E+01  (-0.2830941E+01)
 number of electron      64.0000000 magnetization       9.7800000
 augmentation part       64.0000000 magnetization       9.7800000

 Free energy of the ion-electron system (eV)
  ---------------------------------------------------
  alpha Z        PSCENC =        38.82057990
  Ewald energy   TEWEN  =      8063.44724659
  -Hartree energ DENC   =    -11204.17664081
  -exchange      EXHF   =         0.00000000
  -V(xc)+E(xc)   XCENC  =        26.45878538
  PAW double counting   =      1998.01171039    -1998.13580081
  entropy T*S    EENTRO =         0.00000000
  eigenvalues    EBANDS =      -504.88264351
  atomic energy  EATOM  =      3537.03019007
  Solvation  Ediel_sol  =         0.00000000
  ---------------------------------------------------
  free energy    TOTEN  =       -43.42657279 eV

  energy without entropy =      -43.42657279  energy(sigma->0) =      -43.42657279


--------------------------------------------------------------------------------------------------------




--------------------------------------- Iteration      1(   5)  ---------------------------------------


     EDDAV:  cpu time   29.4520: real time   30.1218
 BZINTS: Fermi energy: -2.722448; 64.000000 electrons
         Band energy:-504.955178;  BLOECHL correction:  0.000000
       DOS:  cpu time    0.0000: real time    0.0020
    CHARGE:  cpu time    2.3080: real time    2.3186
    MIXING:  cpu time    0.0520: real time    0.0510
    --------------------------------------------
      LOOP:  cpu time   31.8120: real time   32.4934

 eigenvalue-minimisations  :  1280
 total energy-change (2. order) :-0.7253428E-01  (-0.7250382E-01)
 number of electron      63.9999987 magnetization       9.8035881
 augmentation part       -1.4427617 magnetization       5.9196903

 Broyden mixing:
  rms(total) = 0.33484E+01    rms(broyden)= 0.33484E+01
  rms(prec ) = 0.35780E+01
  weight for this iteration     100.00

 Free energy of the ion-electron system (eV)
  ---------------------------------------------------
  alpha Z        PSCENC =        38.82057990
  Ewald energy   TEWEN  =      8063.44724659
  -Hartree energ DENC   =    -11204.17664081
  -exchange      EXHF   =         0.00000000
  -V(xc)+E(xc)   XCENC  =        26.45878538
  PAW double counting   =      1998.01171039    -1998.13580081
  entropy T*S    EENTRO =         0.00000000
  eigenvalues    EBANDS =      -504.95517779
  atomic energy  EATOM  =      3537.03019007
  Solvation  Ediel_sol  =         0.00000000
  ---------------------------------------------------
  free energy    TOTEN  =       -43.49910707 eV

  energy without entropy =      -43.49910707  energy(sigma->0) =      -43.49910707


--------------------------------------------------------------------------------------------------------




--------------------------------------- Iteration      1(   6)  ---------------------------------------


    POTLOK:  cpu time   52.3080: real time   52.9912
    SETDIJ:  cpu time    0.0480: real time    0.0474
     EDDAV:  cpu time   28.0280: real time   28.5629
 BZINTS: Fermi energy: -4.190781; 64.000000 electrons
         Band energy:-733.256153;  BLOECHL correction: -0.032415
       DOS:  cpu time    0.0040: real time    0.0066
    CHARGE:  cpu time    2.1240: real time    2.1627
    MIXING:  cpu time    0.0600: real time    0.0619
    --------------------------------------------
      LOOP:  cpu time   82.5760: real time   83.8327

 eigenvalue-minimisations  :  1216
 total energy-change (2. order) :-0.5758529E+02  (-0.5435916E+02)
 number of electron      63.9999980 magnetization       9.4556955
 augmentation part        8.5183861 magnetization       9.3123224

 Broyden mixing:
  rms(total) = 0.64731E+01    rms(broyden)= 0.64731E+01
  rms(prec ) = 0.67926E+01
  weight for this iteration     100.00

 eigenvalues of (default mixing * dielectric matrix)
  average eigenvalue GAMMA=   0.3211
  0.3211

 Free energy of the ion-electron system (eV)
  ---------------------------------------------------
  alpha Z        PSCENC =        38.82057990
  Ewald energy   TEWEN  =      8063.44724659
  -Hartree energ DENC   =    -11067.75465181
  -exchange      EXHF   =         0.00000000
  -V(xc)+E(xc)   XCENC  =        30.18147911
  PAW double counting   =      1769.15945082    -1738.71253851
  entropy T*S    EENTRO =         0.00000000
  eigenvalues    EBANDS =      -733.25615314
  atomic energy  EATOM  =      3537.03019007
  Solvation  Ediel_sol  =         0.00000000
  ---------------------------------------------------
  free energy    TOTEN  =      -101.08439696 eV

  energy without entropy =     -101.08439696  energy(sigma->0) =     -101.08439696


--------------------------------------------------------------------------------------------------------




--------------------------------------- Iteration      1(   7)  ---------------------------------------


    POTLOK:  cpu time   52.6800: real time   52.8103
    SETDIJ:  cpu time    0.0440: real time    0.0416
     EDDAV:  cpu time   26.7200: real time   27.2939
 BZINTS: Fermi energy: -4.265305; 64.000000 electrons
         Band energy:-572.919858;  BLOECHL correction: -0.016643
       DOS:  cpu time    0.0040: real time    0.0070
    CHARGE:  cpu time    2.1400: real time    2.1423
    MIXING:  cpu time    0.0440: real time    0.0441
    --------------------------------------------
      LOOP:  cpu time   81.6280: real time   82.3393

 eigenvalue-minimisations  :  1168
 total energy-change (2. order) : 0.5513387E+02  (-0.7372686E+01)
 number of electron      63.9999982 magnetization       9.2227594
 augmentation part        6.6707532 magnetization       7.6821061

 Broyden mixing:
  rms(total) = 0.34805E+01    rms(broyden)= 0.34805E+01
  rms(prec ) = 0.37175E+01
  weight for this iteration     100.00

 eigenvalues of (default mixing * dielectric matrix)
  average eigenvalue GAMMA=   0.4287
  0.4287  0.4287

 Free energy of the ion-electron system (eV)
  ---------------------------------------------------
  alpha Z        PSCENC =        38.82057990
  Ewald energy   TEWEN  =      8063.44724659
  -Hartree energ DENC   =    -11144.18542435
  -exchange      EXHF   =         0.00000000
  -V(xc)+E(xc)   XCENC  =        26.15956071
  PAW double counting   =      1911.78476312    -1906.08758509
  entropy T*S    EENTRO =         0.00000000
  eigenvalues    EBANDS =      -572.91985838
  atomic energy  EATOM  =      3537.03019007
  Solvation  Ediel_sol  =         0.00000000
  ---------------------------------------------------
  free energy    TOTEN  =       -45.95052744 eV

  energy without entropy =      -45.95052744  energy(sigma->0) =      -45.95052744


--------------------------------------------------------------------------------------------------------




--------------------------------------- Iteration      1(   8)  ---------------------------------------


    POTLOK:  cpu time   52.0720: real time   53.2158
    SETDIJ:  cpu time    0.0400: real time    0.0425
     EDDAV:  cpu time   31.0160: real time   31.4546
 BZINTS: Fermi energy: -3.769675; 64.000000 electrons
         Band energy:-524.693850;  BLOECHL correction: -0.015307
       DOS:  cpu time    0.0040: real time    0.0073
    CHARGE:  cpu time    2.0920: real time    2.1233
    MIXING:  cpu time    0.0440: real time    0.0436
    --------------------------------------------
      LOOP:  cpu time   85.2680: real time   86.8872

 eigenvalue-minimisations  :  1360
 total energy-change (2. order) : 0.9842663E+01  (-0.1577240E+01)
 number of electron      63.9999983 magnetization       9.1702020
 augmentation part        2.9749234 magnetization       7.0504384

 Broyden mixing:
  rms(total) = 0.58071E+00    rms(broyden)= 0.58040E+00
  rms(prec ) = 0.60355E+00
  weight for this iteration     100.00

 eigenvalues of (default mixing * dielectric matrix)
  average eigenvalue GAMMA=   0.3309
  0.4265  0.4265  0.1398

 Free energy of the ion-electron system (eV)
  ---------------------------------------------------
  alpha Z        PSCENC =        38.82057990
  Ewald energy   TEWEN  =      8063.44724659
  -Hartree energ DENC   =    -11176.83169755
  -exchange      EXHF   =         0.00000000
  -V(xc)+E(xc)   XCENC  =        26.24066637
  PAW double counting   =      1971.10251967    -1971.22351968
  entropy T*S    EENTRO =         0.00000000
  eigenvalues    EBANDS =      -524.69384965
  atomic energy  EATOM  =      3537.03019007
  Solvation  Ediel_sol  =         0.00000000
  ---------------------------------------------------
  free energy    TOTEN  =       -36.10786427 eV

  energy without entropy =      -36.10786427  energy(sigma->0) =      -36.10786427


--------------------------------------------------------------------------------------------------------




--------------------------------------- Iteration      1(   9)  ---------------------------------------


    POTLOK:  cpu time   52.0320: real time   52.4303
    SETDIJ:  cpu time    0.0440: real time    0.0427
     EDDAV:  cpu time   26.1360: real time   26.2939
 BZINTS: Fermi energy: -3.747171; 64.000000 electrons
         Band energy:-525.176664;  BLOECHL correction: -0.012908
       DOS:  cpu time    0.0040: real time    0.0073
    CHARGE:  cpu time    2.1600: real time    2.1611
    MIXING:  cpu time    0.0440: real time    0.0415
    --------------------------------------------
      LOOP:  cpu time   80.4200: real time   80.9769

 eigenvalue-minimisations  :  1120
 total energy-change (2. order) :-0.2889345E+00  (-0.2601151E+00)
 number of electron      63.9999983 magnetization       9.1311190
 augmentation part        2.7691998 magnetization       6.8282918

 Broyden mixing:
  rms(total) = 0.50230E+00    rms(broyden)= 0.50224E+00
  rms(prec ) = 0.51944E+00
  weight for this iteration     100.00

 eigenvalues of (default mixing * dielectric matrix)
  average eigenvalue GAMMA=   0.3749
  0.4314  0.4314  0.3184  0.3184

 Free energy of the ion-electron system (eV)
  ---------------------------------------------------
  alpha Z        PSCENC =        38.82057990
  Ewald energy   TEWEN  =      8063.44724659
  -Hartree energ DENC   =    -11176.72695802
  -exchange      EXHF   =         0.00000000
  -V(xc)+E(xc)   XCENC  =        26.19969216
  PAW double counting   =      1971.72929467    -1971.72018041
  entropy T*S    EENTRO =         0.00000000
  eigenvalues    EBANDS =      -525.17666371
  atomic energy  EATOM  =      3537.03019007
  Solvation  Ediel_sol  =         0.00000000
  ---------------------------------------------------
  free energy    TOTEN  =       -36.39679875 eV

  energy without entropy =      -36.39679875  energy(sigma->0) =      -36.39679875


--------------------------------------------------------------------------------------------------------




--------------------------------------- Iteration      1(  10)  ---------------------------------------


    POTLOK:  cpu time   51.0120: real time   51.7880
    SETDIJ:  cpu time    0.0440: real time    0.0410
     EDDAV:  cpu time   33.1640: real time   33.9635
 BZINTS: Fermi energy: -3.743648; 64.000000 electrons
         Band energy:-524.591518;  BLOECHL correction: -0.014221
       DOS:  cpu time    0.0080: real time    0.0074
    CHARGE:  cpu time    1.9400: real time    2.1286
    MIXING:  cpu time    0.0400: real time    0.0425
    --------------------------------------------
      LOOP:  cpu time   86.2080: real time   87.9710

 eigenvalue-minimisations  :  1440
 total energy-change (2. order) :-0.7500319E-01  (-0.7658739E-02)
 number of electron      63.9999983 magnetization       8.8353322
 augmentation part        2.9090684 magnetization       6.5276391

 Broyden mixing:
  rms(total) = 0.52611E+00    rms(broyden)= 0.52610E+00
  rms(prec ) = 0.54828E+00
  weight for this iteration     100.00

 eigenvalues of (default mixing * dielectric matrix)
  average eigenvalue GAMMA=   0.6071
  0.8336  0.8336  0.4576  0.4576  0.4532

 Free energy of the ion-electron system (eV)
  ---------------------------------------------------
  alpha Z        PSCENC =        38.82057990
  Ewald energy   TEWEN  =      8063.44724659
  -Hartree energ DENC   =    -11177.37529081
  -exchange      EXHF   =         0.00000000
  -V(xc)+E(xc)   XCENC  =        26.25361392
  PAW double counting   =      1972.52991031    -1972.58653348
  entropy T*S    EENTRO =         0.00000000
  eigenvalues    EBANDS =      -524.59151845
  atomic energy  EATOM  =      3537.03019007
  Solvation  Ediel_sol  =         0.00000000
  ---------------------------------------------------
  free energy    TOTEN  =       -36.47180194 eV

  energy without entropy =      -36.47180194  energy(sigma->0) =      -36.47180194


--------------------------------------------------------------------------------------------------------




--------------------------------------- Iteration      1(  11)  ---------------------------------------


    POTLOK:  cpu time   50.8440: real time   51.1574
    SETDIJ:  cpu time    0.0440: real time    0.0464
     EDDAV:  cpu time   31.0200: real time   31.4071
 BZINTS: Fermi energy: -3.700749; 64.000000 electrons
         Band energy:-519.817019;  BLOECHL correction: -0.015097
       DOS:  cpu time    0.0080: real time    0.0069
    CHARGE:  cpu time    2.0440: real time    2.1291
    MIXING:  cpu time    0.0440: real time    0.0432
    --------------------------------------------
      LOOP:  cpu time   84.0040: real time   84.7902

 eigenvalue-minimisations  :  1392
 total energy-change (2. order) :-0.1184415E+00  (-0.3367012E-01)
 number of electron      63.9999983 magnetization       8.2328044
 augmentation part        3.0864264 magnetization       6.1116332

 Broyden mixing:
  rms(total) = 0.53955E+00    rms(broyden)= 0.53955E+00
  rms(prec ) = 0.56617E+00
  weight for this iteration     100.00

 eigenvalues of (default mixing * dielectric matrix)
  average eigenvalue GAMMA=   0.7275
  0.9248  0.9248  0.8848  0.4752  0.4752  0.6801

 Free energy of the ion-electron system (eV)
  ---------------------------------------------------
  alpha Z        PSCENC =        38.82057990
  Ewald energy   TEWEN  =      8063.44724659
  -Hartree energ DENC   =    -11182.25582484
  -exchange      EXHF   =         0.00000000
  -V(xc)+E(xc)   XCENC  =        26.40277518
  PAW double counting   =      1979.78893303    -1980.00712453
  entropy T*S    EENTRO =         0.00000000
  eigenvalues    EBANDS =      -519.81701883
  atomic energy  EATOM  =      3537.03019007
  Solvation  Ediel_sol  =         0.00000000
  ---------------------------------------------------
  free energy    TOTEN  =       -36.59024342 eV

  energy without entropy =      -36.59024342  energy(sigma->0) =      -36.59024342


--------------------------------------------------------------------------------------------------------




--------------------------------------- Iteration      1(  12)  ---------------------------------------


    POTLOK:  cpu time   50.8320: real time   51.0812
    SETDIJ:  cpu time    0.0640: real time    0.0632
     EDDAV:  cpu time   30.2720: real time   31.1276
 BZINTS: Fermi energy: -3.588158; 64.000000 electrons
         Band energy:-516.199687;  BLOECHL correction: -0.010360
       DOS:  cpu time    0.0080: real time    0.0073
    CHARGE:  cpu time    2.0720: real time    2.1534
    MIXING:  cpu time    0.0640: real time    0.0680
    --------------------------------------------
      LOOP:  cpu time   83.3120: real time   84.5008

 eigenvalue-minimisations  :  1312
 total energy-change (2. order) :-0.2658348E-01  (-0.3230117E-01)
 number of electron      63.9999983 magnetization       7.9081733
 augmentation part        2.9417753 magnetization       5.6668692

 Broyden mixing:
  rms(total) = 0.36919E+00    rms(broyden)= 0.36914E+00
  rms(prec ) = 0.38574E+00
  weight for this iteration     100.00

 eigenvalues of (default mixing * dielectric matrix)
  average eigenvalue GAMMA=   0.7882
  1.1174  1.1174  0.8744  0.8744  0.4793  0.4793  0.5754

 Free energy of the ion-electron system (eV)
  ---------------------------------------------------
  alpha Z        PSCENC =        38.82057990
  Ewald energy   TEWEN  =      8063.44724659
  -Hartree energ DENC   =    -11186.19003932
  -exchange      EXHF   =         0.00000000
  -V(xc)+E(xc)   XCENC  =        26.47635800
  PAW double counting   =      1986.72797809    -1986.72945318
  entropy T*S    EENTRO =         0.00000000
  eigenvalues    EBANDS =      -516.19968705
  atomic energy  EATOM  =      3537.03019007
  Solvation  Ediel_sol  =         0.00000000
  ---------------------------------------------------
  free energy    TOTEN  =       -36.61682690 eV

  energy without entropy =      -36.61682690  energy(sigma->0) =      -36.61682690


--------------------------------------------------------------------------------------------------------




--------------------------------------- Iteration      1(  13)  ---------------------------------------


    POTLOK:  cpu time   50.9480: real time   51.2004
    SETDIJ:  cpu time    0.0520: real time    0.0511
     EDDAV:  cpu time   26.0640: real time   26.3303
 BZINTS: Fermi energy: -3.764870; 64.000000 electrons
         Band energy:-522.389516;  BLOECHL correction: -0.012919
       DOS:  cpu time    0.0040: real time    0.0072
    CHARGE:  cpu time    2.1200: real time    2.1368
    MIXING:  cpu time    0.0480: real time    0.0474
    --------------------------------------------
      LOOP:  cpu time   79.2360: real time   79.7732

 eigenvalue-minimisations  :  1120
 total energy-change (2. order) :-0.2131947E+00  (-0.2189111E-01)
 number of electron      63.9999983 magnetization       7.5242314
 augmentation part        3.5183697 magnetization       5.8003209

 Broyden mixing:
  rms(total) = 0.85610E+00    rms(broyden)= 0.85607E+00
  rms(prec ) = 0.90149E+00
  weight for this iteration     100.00

 eigenvalues of (default mixing * dielectric matrix)
  average eigenvalue GAMMA=   0.9113
  2.5780  0.9669  0.9669  0.4729  0.4729  0.6987  0.5672  0.5672

 Free energy of the ion-electron system (eV)
  ---------------------------------------------------
  alpha Z        PSCENC =        38.82057990
  Ewald energy   TEWEN  =      8063.44724659
  -Hartree energ DENC   =    -11180.72976457
  -exchange      EXHF   =         0.00000000
  -V(xc)+E(xc)   XCENC  =        26.39915807
  PAW double counting   =      1977.83739160    -1977.24530711
  entropy T*S    EENTRO =         0.00000000
  eigenvalues    EBANDS =      -522.38951614
  atomic energy  EATOM  =      3537.03019007
  Solvation  Ediel_sol  =         0.00000000
  ---------------------------------------------------
  free energy    TOTEN  =       -36.83002159 eV

  energy without entropy =      -36.83002159  energy(sigma->0) =      -36.83002159


--------------------------------------------------------------------------------------------------------




--------------------------------------- Iteration      1(  14)  ---------------------------------------


    POTLOK:  cpu time   50.6600: real time   50.9828
    SETDIJ:  cpu time    0.0440: real time    0.0451
     EDDAV:  cpu time   25.4680: real time   25.5719
 BZINTS: Fermi energy: -3.661954; 64.000000 electrons
         Band energy:-520.414908;  BLOECHL correction: -0.011003
       DOS:  cpu time    0.0080: real time    0.0077
    CHARGE:  cpu time    2.1680: real time    2.1741
    MIXING:  cpu time    0.0480: real time    0.0458
    --------------------------------------------
      LOOP:  cpu time   78.3960: real time   78.8274

 eigenvalue-minimisations  :  1104
 total energy-change (2. order) : 0.1247819E+00  (-0.2409447E-01)
 number of electron      63.9999983 magnetization       7.2768962
 augmentation part        2.9482332 magnetization       5.1676360

 Broyden mixing:
  rms(total) = 0.34550E+00    rms(broyden)= 0.34547E+00
  rms(prec ) = 0.36195E+00
  weight for this iteration     100.00

 eigenvalues of (default mixing * dielectric matrix)
  average eigenvalue GAMMA=   0.8973
  2.3932  1.0098  1.0098  1.1129  0.4733  0.4733  0.5872  0.5872  0.4288

 Free energy of the ion-electron system (eV)
  ---------------------------------------------------
  alpha Z        PSCENC =        38.82057990
  Ewald energy   TEWEN  =      8063.44724659
  -Hartree energ DENC   =    -11182.37775554
  -exchange      EXHF   =         0.00000000
  -V(xc)+E(xc)   XCENC  =        26.30821676
  PAW double counting   =      1982.21894625    -1981.73775571
  entropy T*S    EENTRO =         0.00000000
  eigenvalues    EBANDS =      -520.41490802
  atomic energy  EATOM  =      3537.03019007
  Solvation  Ediel_sol  =         0.00000000
  ---------------------------------------------------
  free energy    TOTEN  =       -36.70523969 eV

  energy without entropy =      -36.70523969  energy(sigma->0) =      -36.70523969


--------------------------------------------------------------------------------------------------------




--------------------------------------- Iteration      1(  15)  ---------------------------------------


    POTLOK:  cpu time   50.7320: real time   50.9474
    SETDIJ:  cpu time    0.0440: real time    0.0431
     EDDAV:  cpu time   25.7120: real time   26.1227
 BZINTS: Fermi energy: -3.678625; 64.000000 electrons
         Band energy:-522.749368;  BLOECHL correction: -0.011117
       DOS:  cpu time    0.0080: real time    0.0053
    CHARGE:  cpu time    2.0160: real time    2.3016
    MIXING:  cpu time    0.0760: real time    0.0755
    --------------------------------------------
      LOOP:  cpu time   78.5880: real time   79.4956

 eigenvalue-minimisations  :  1088
 total energy-change (2. order) :-0.7785036E-02  (-0.2993440E-01)
 number of electron      63.9999983 magnetization       6.4773219
 augmentation part        2.8217570 magnetization       4.3391549

 Broyden mixing:
  rms(total) = 0.24228E+00    rms(broyden)= 0.24228E+00
  rms(prec ) = 0.25271E+00
  weight for this iteration     100.00

 eigenvalues of (default mixing * dielectric matrix)
  average eigenvalue GAMMA=   1.0258
  3.0741  0.9939  0.9939  1.2352  1.2352  0.4739  0.4739  0.7290  0.5553  0.4936

 Free energy of the ion-electron system (eV)
  ---------------------------------------------------
  alpha Z        PSCENC =        38.82057990
  Ewald energy   TEWEN  =      8063.44724659
  -Hartree energ DENC   =    -11179.93332030
  -exchange      EXHF   =         0.00000000
  -V(xc)+E(xc)   XCENC  =        26.19665671
  PAW double counting   =      1979.54579563    -1979.07080563
  entropy T*S    EENTRO =         0.00000000
  eigenvalues    EBANDS =      -522.74936769
  atomic energy  EATOM  =      3537.03019007
  Solvation  Ediel_sol  =         0.00000000
  ---------------------------------------------------
  free energy    TOTEN  =       -36.71302472 eV

  energy without entropy =      -36.71302472  energy(sigma->0) =      -36.71302472


--------------------------------------------------------------------------------------------------------




--------------------------------------- Iteration      1(  16)  ---------------------------------------


    POTLOK:  cpu time   50.6160: real time   51.2182
    SETDIJ:  cpu time    0.0400: real time    0.0415
     EDDAV:  cpu time   29.6800: real time   30.0085
 BZINTS: Fermi energy: -3.675234; 64.000000 electrons
         Band energy:-524.418196;  BLOECHL correction: -0.019088
       DOS:  cpu time    0.0040: real time    0.0072
    CHARGE:  cpu time    2.0920: real time    2.1063
    MIXING:  cpu time    0.0480: real time    0.0473
    --------------------------------------------
      LOOP:  cpu time   82.4800: real time   83.4289

 eigenvalue-minimisations  :  1312
 total energy-change (2. order) :-0.7449217E-01  (-0.2382342E-01)
 number of electron      63.9999983 magnetization       6.3365886
 augmentation part        2.3021379 magnetization       4.3299671

 Broyden mixing:
  rms(total) = 0.22266E+00    rms(broyden)= 0.22260E+00
  rms(prec ) = 0.23698E+00
  weight for this iteration     100.00

 eigenvalues of (default mixing * dielectric matrix)
  average eigenvalue GAMMA=   0.9995
  3.3768  1.3120  1.3120  0.9843  0.9843  0.4738  0.4738  0.6167  0.6167  0.4749
  0.3692

 Free energy of the ion-electron system (eV)
  ---------------------------------------------------
  alpha Z        PSCENC =        38.82057990
  Ewald energy   TEWEN  =      8063.44724659
  -Hartree energ DENC   =    -11177.85159285
  -exchange      EXHF   =         0.00000000
  -V(xc)+E(xc)   XCENC  =        26.05491349
  PAW double counting   =      1980.18616317    -1980.05682170
  entropy T*S    EENTRO =         0.00000000
  eigenvalues    EBANDS =      -524.41819557
  atomic energy  EATOM  =      3537.03019007
  Solvation  Ediel_sol  =         0.00000000
  ---------------------------------------------------
  free energy    TOTEN  =       -36.78751690 eV

  energy without entropy =      -36.78751690  energy(sigma->0) =      -36.78751690


--------------------------------------------------------------------------------------------------------




--------------------------------------- Iteration      1(  17)  ---------------------------------------


    POTLOK:  cpu time   50.8680: real time   51.1093
    SETDIJ:  cpu time    0.0440: real time    0.0419
     EDDAV:  cpu time   26.6440: real time   26.8040
 BZINTS: Fermi energy: -3.673380; 64.000000 electrons
         Band energy:-524.640563;  BLOECHL correction: -0.020369
       DOS:  cpu time    0.0040: real time    0.0069
    CHARGE:  cpu time    2.1000: real time    2.1015
    MIXING:  cpu time    0.0480: real time    0.0487
    --------------------------------------------
      LOOP:  cpu time   79.7080: real time   80.1123

 eigenvalue-minimisations  :  1152
 total energy-change (2. order) :-0.5465268E-02  (-0.6584685E-02)
 number of electron      63.9999983 magnetization       5.7089658
 augmentation part        2.2727562 magnetization       3.7281921

 Broyden mixing:
  rms(total) = 0.23474E+00    rms(broyden)= 0.23474E+00
  rms(prec ) = 0.25052E+00
  weight for this iteration     100.00

 eigenvalues of (default mixing * dielectric matrix)
  average eigenvalue GAMMA=   1.1160
  3.8870  1.6080  1.6080  0.9986  0.9986  0.4740  0.4740  0.7984  0.7984  0.7095
  0.5547  0.4832

 Free energy of the ion-electron system (eV)
  ---------------------------------------------------
  alpha Z        PSCENC =        38.82057990
  Ewald energy   TEWEN  =      8063.44724659
  -Hartree energ DENC   =    -11177.54056693
  -exchange      EXHF   =         0.00000000
  -V(xc)+E(xc)   XCENC  =        26.02896297
  PAW double counting   =      1980.24665910    -1980.18549103
  entropy T*S    EENTRO =         0.00000000
  eigenvalues    EBANDS =      -524.64056284
  atomic energy  EATOM  =      3537.03019007
  Solvation  Ediel_sol  =         0.00000000
  ---------------------------------------------------
  free energy    TOTEN  =       -36.79298217 eV

  energy without entropy =      -36.79298217  energy(sigma->0) =      -36.79298217


--------------------------------------------------------------------------------------------------------




--------------------------------------- Iteration      1(  18)  ---------------------------------------


    POTLOK:  cpu time   51.7480: real time   52.0865
    SETDIJ:  cpu time    0.0400: real time    0.0409
     EDDAV:  cpu time   30.4320: real time   30.7963
 BZINTS: Fermi energy: -3.694371; 64.000000 electrons
         Band energy:-525.332455;  BLOECHL correction: -0.020828
       DOS:  cpu time    0.0040: real time    0.0073
    CHARGE:  cpu time    2.0000: real time    2.1062
    MIXING:  cpu time    0.0480: real time    0.0492
    --------------------------------------------
      LOOP:  cpu time   84.2720: real time   85.0864

 eigenvalue-minimisations  :  1344
 total energy-change (2. order) :-0.2817466E-02  (-0.2869572E-02)
 number of electron      63.9999983 magnetization       5.2265097
 augmentation part        2.4274368 magnetization       3.3977881

 Broyden mixing:
  rms(total) = 0.13041E+00    rms(broyden)= 0.13041E+00
  rms(prec ) = 0.13576E+00
  weight for this iteration     100.00

 eigenvalues of (default mixing * dielectric matrix)
  average eigenvalue GAMMA=   1.3180
  6.3134  2.3508  1.2264  1.2264  0.9846  0.9846  0.4740  0.4740  0.7476  0.6609
  0.6609  0.5421  0.4888

 Free energy of the ion-electron system (eV)
  ---------------------------------------------------
  alpha Z        PSCENC =        38.82057990
  Ewald energy   TEWEN  =      8063.44724659
  -Hartree energ DENC   =    -11176.44382372
  -exchange      EXHF   =         0.00000000
  -V(xc)+E(xc)   XCENC  =        25.89807247
  PAW double counting   =      1980.06256563    -1980.27817531
  entropy T*S    EENTRO =         0.00000000
  eigenvalues    EBANDS =      -525.33245526
  atomic energy  EATOM  =      3537.03019007
  Solvation  Ediel_sol  =         0.00000000
  ---------------------------------------------------
  free energy    TOTEN  =       -36.79579963 eV

  energy without entropy =      -36.79579963  energy(sigma->0) =      -36.79579963


--------------------------------------------------------------------------------------------------------




--------------------------------------- Iteration      1(  19)  ---------------------------------------


    POTLOK:  cpu time   50.9280: real time   51.0460
    SETDIJ:  cpu time    0.0440: real time    0.0455
     EDDAV:  cpu time   28.9520: real time   29.1134
 BZINTS: Fermi energy: -3.829826; 64.000000 electrons
         Band energy:-527.956293;  BLOECHL correction: -0.010482
       DOS:  cpu time    0.0040: real time    0.0073
    CHARGE:  cpu time    2.1120: real time    2.1127
    MIXING:  cpu time    0.0640: real time    0.0652
    --------------------------------------------
      LOOP:  cpu time   82.1040: real time   82.3900

 eigenvalue-minimisations  :  1264
 total energy-change (2. order) :-0.7500336E-01  (-0.3121058E-01)
 number of electron      63.9999984 magnetization       5.2623333
 augmentation part        3.2416438 magnetization       3.8080869

 Broyden mixing:
  rms(total) = 0.60726E+00    rms(broyden)= 0.60710E+00
  rms(prec ) = 0.64468E+00
  weight for this iteration     100.00

 eigenvalues of (default mixing * dielectric matrix)
  average eigenvalue GAMMA=   1.2902
  6.8981  2.2409  1.1303  1.1303  0.9879  0.9879  0.4740  0.4740  0.8020  0.7524
  0.7524  0.5225  0.5225  0.3880

 Free energy of the ion-electron system (eV)
  ---------------------------------------------------
  alpha Z        PSCENC =        38.82057990
  Ewald energy   TEWEN  =      8063.44724659
  -Hartree energ DENC   =    -11174.18330208
  -exchange      EXHF   =         0.00000000
  -V(xc)+E(xc)   XCENC  =        25.90442580
  PAW double counting   =      1976.82926847    -1976.76291908
  entropy T*S    EENTRO =         0.00000000
  eigenvalues    EBANDS =      -527.95629266
  atomic energy  EATOM  =      3537.03019007
  Solvation  Ediel_sol  =         0.00000000
  ---------------------------------------------------
  free energy    TOTEN  =       -36.87080299 eV

  energy without entropy =      -36.87080299  energy(sigma->0) =      -36.87080299


--------------------------------------------------------------------------------------------------------




--------------------------------------- Iteration      1(  20)  ---------------------------------------


    POTLOK:  cpu time   52.0120: real time   52.1962
    SETDIJ:  cpu time    0.0440: real time    0.0421
     EDDAV:  cpu time   26.5560: real time   26.6860
 BZINTS: Fermi energy: -3.791563; 64.000000 electrons
         Band energy:-527.255766;  BLOECHL correction: -0.014115
       DOS:  cpu time    0.0040: real time    0.0079
    CHARGE:  cpu time    2.1160: real time    2.1133
    MIXING:  cpu time    0.0520: real time    0.0521
    --------------------------------------------
      LOOP:  cpu time   80.7840: real time   81.0977

 eigenvalue-minimisations  :  1152
 total energy-change (2. order) : 0.5712152E-01  (-0.4081716E-02)
 number of electron      63.9999983 magnetization       5.4189711
 augmentation part        2.9497719 magnetization       3.7122891

 Broyden mixing:
  rms(total) = 0.34531E+00    rms(broyden)= 0.34531E+00
  rms(prec ) = 0.36729E+00
  weight for this iteration     100.00

 eigenvalues of (default mixing * dielectric matrix)
  average eigenvalue GAMMA=   1.2409
  6.6267  2.2395  1.2660  1.2660  0.9817  0.9817  0.4739  0.4739  0.8245  0.7531
  0.7531  0.4982  0.4982  0.4882  0.4882

 Free energy of the ion-electron system (eV)
  ---------------------------------------------------
  alpha Z        PSCENC =        38.82057990
  Ewald energy   TEWEN  =      8063.44724659
  -Hartree energ DENC   =    -11174.82988060
  -exchange      EXHF   =         0.00000000
  -V(xc)+E(xc)   XCENC  =        25.90211145
  PAW double counting   =      1978.22910411    -1978.15726713
  entropy T*S    EENTRO =         0.00000000
  eigenvalues    EBANDS =      -527.25576588
  atomic energy  EATOM  =      3537.03019007
  Solvation  Ediel_sol  =         0.00000000
  ---------------------------------------------------
  free energy    TOTEN  =       -36.81368147 eV

  energy without entropy =      -36.81368147  energy(sigma->0) =      -36.81368147


--------------------------------------------------------------------------------------------------------




--------------------------------------- Iteration      1(  21)  ---------------------------------------


    POTLOK:  cpu time   50.9880: real time   51.1066
    SETDIJ:  cpu time    0.0920: real time    0.0932
     EDDAV:  cpu time   30.1040: real time   30.7097
 BZINTS: Fermi energy: -3.736414; 64.000000 electrons
         Band energy:-526.008736;  BLOECHL correction: -0.013328
       DOS:  cpu time    0.0040: real time    0.0053
    CHARGE:  cpu time    2.1040: real time    2.1682
    MIXING:  cpu time    0.0680: real time    0.0669
    --------------------------------------------
      LOOP:  cpu time   83.3600: real time   84.1499

 eigenvalue-minimisations  :  1280
 total energy-change (2. order) : 0.1567064E-01  (-0.6073918E-02)
 number of electron      63.9999983 magnetization       5.2403411
 augmentation part        2.5716652 magnetization       3.4767912

 Broyden mixing:
  rms(total) = 0.48148E-01    rms(broyden)= 0.47628E-01
  rms(prec ) = 0.49011E-01
  weight for this iteration     100.00

 eigenvalues of (default mixing * dielectric matrix)
  average eigenvalue GAMMA=   1.3950
  9.2932  2.3674  1.0343  1.0343  1.1480  1.1480  0.8734  0.8734  0.9737  0.4739
  0.4739  0.5991  0.5991  0.4555  0.4862  0.4862

 Free energy of the ion-electron system (eV)
  ---------------------------------------------------
  alpha Z        PSCENC =        38.82057990
  Ewald energy   TEWEN  =      8063.44724659
  -Hartree energ DENC   =    -11176.15096765
  -exchange      EXHF   =         0.00000000
  -V(xc)+E(xc)   XCENC  =        25.93204155
  PAW double counting   =      1980.07876136    -1979.94712679
  entropy T*S    EENTRO =         0.00000000
  eigenvalues    EBANDS =      -526.00873587
  atomic energy  EATOM  =      3537.03019007
  Solvation  Ediel_sol  =         0.00000000
  ---------------------------------------------------
  free energy    TOTEN  =       -36.79801083 eV

  energy without entropy =      -36.79801083  energy(sigma->0) =      -36.79801083


--------------------------------------------------------------------------------------------------------




--------------------------------------- Iteration      1(  22)  ---------------------------------------


    POTLOK:  cpu time   50.9120: real time   51.3941
    SETDIJ:  cpu time    0.0400: real time    0.0426
     EDDAV:  cpu time   27.5000: real time   28.1361
 BZINTS: Fermi energy: -3.729776; 64.000000 electrons
         Band energy:-525.391000;  BLOECHL correction: -0.013952
       DOS:  cpu time    0.0040: real time    0.0072
    CHARGE:  cpu time    2.1240: real time    2.1231
    MIXING:  cpu time    0.0560: real time    0.0554
    --------------------------------------------
      LOOP:  cpu time   80.6360: real time   81.7585

 eigenvalue-minimisations  :  1136
 total energy-change (2. order) :-0.1258993E-01  (-0.1080227E-02)
 number of electron      63.9999983 magnetization       5.1149020
 augmentation part        2.6033314 magnetization       3.4067198

 Broyden mixing:
  rms(total) = 0.52935E-01    rms(broyden)= 0.52916E-01
  rms(prec ) = 0.54841E-01
  weight for this iteration     100.00

 eigenvalues of (default mixing * dielectric matrix)
  average eigenvalue GAMMA=   1.4661
 10.5091  2.5433  1.0287  1.0287  1.3098  1.1766  1.1766  0.8834  0.8834  0.4739
  0.4739  0.7856  0.6337  0.5740  0.4637  0.4897  0.4897

 Free energy of the ion-electron system (eV)
  ---------------------------------------------------
  alpha Z        PSCENC =        38.82057990
  Ewald energy   TEWEN  =      8063.44724659
  -Hartree energ DENC   =    -11176.80662356
  -exchange      EXHF   =         0.00000000
  -V(xc)+E(xc)   XCENC  =        25.93489421
  PAW double counting   =      1981.05213759    -1980.89802516
  entropy T*S    EENTRO =         0.00000000
  eigenvalues    EBANDS =      -525.39100041
  atomic energy  EATOM  =      3537.03019007
  Solvation  Ediel_sol  =         0.00000000
  ---------------------------------------------------
  free energy    TOTEN  =       -36.81060077 eV

  energy without entropy =      -36.81060077  energy(sigma->0) =      -36.81060077


--------------------------------------------------------------------------------------------------------




--------------------------------------- Iteration      1(  23)  ---------------------------------------


    POTLOK:  cpu time   52.1160: real time   52.4495
    SETDIJ:  cpu time    0.1080: real time    0.1062
     EDDAV:  cpu time   28.3720: real time   28.7207
 BZINTS: Fermi energy: -3.709569; 64.000000 electrons
         Band energy:-524.675292;  BLOECHL correction: -0.019506
       DOS:  cpu time    0.0040: real time    0.0070
    CHARGE:  cpu time    2.1080: real time    2.1088
    MIXING:  cpu time    0.0560: real time    0.0570
    --------------------------------------------
      LOOP:  cpu time   82.7640: real time   83.4494

 eigenvalue-minimisations  :  1232
 total energy-change (2. order) :-0.6636662E-02  (-0.7494071E-03)
 number of electron      63.9999983 magnetization       5.0451742
 augmentation part        2.5262778 magnetization       3.3468044

 Broyden mixing:
  rms(total) = 0.35271E-01    rms(broyden)= 0.35229E-01
  rms(prec ) = 0.37292E-01
  weight for this iteration     100.00

 eigenvalues of (default mixing * dielectric matrix)
  average eigenvalue GAMMA=   1.4764
 11.1722  2.1977  2.1977  1.0187  1.0187  0.9257  0.9257  0.9923  0.9923  0.8905
  0.4739  0.4739  0.6611  0.6611  0.5021  0.5021  0.4849  0.4849

 Free energy of the ion-electron system (eV)
  ---------------------------------------------------
  alpha Z        PSCENC =        38.82057990
  Ewald energy   TEWEN  =      8063.44724659
  -Hartree energ DENC   =    -11177.48646382
  -exchange      EXHF   =         0.00000000
  -V(xc)+E(xc)   XCENC  =        25.91691719
  PAW double counting   =      1981.97735625    -1981.84777163
  entropy T*S    EENTRO =         0.00000000
  eigenvalues    EBANDS =      -524.67529199
  atomic energy  EATOM  =      3537.03019007
  Solvation  Ediel_sol  =         0.00000000
  ---------------------------------------------------
  free energy    TOTEN  =       -36.81723743 eV

  energy without entropy =      -36.81723743  energy(sigma->0) =      -36.81723743


--------------------------------------------------------------------------------------------------------




--------------------------------------- Iteration      1(  24)  ---------------------------------------


    POTLOK:  cpu time   52.4800: real time   53.1235
    SETDIJ:  cpu time    0.0760: real time    0.0766
     EDDAV:  cpu time   30.9600: real time   31.3704
 BZINTS: Fermi energy: -3.702652; 64.000000 electrons
         Band energy:-524.530637;  BLOECHL correction: -0.020234
       DOS:  cpu time    0.0080: real time    0.0070
    CHARGE:  cpu time    2.1160: real time    2.1231
    MIXING:  cpu time    0.0600: real time    0.0600
    --------------------------------------------
      LOOP:  cpu time   85.7000: real time   86.7605

 eigenvalue-minimisations  :  1376
 total energy-change (2. order) :-0.1354466E-02  (-0.1349849E-03)
 number of electron      63.9999983 magnetization       4.9854721
 augmentation part        2.5080539 magnetization       3.2893096

 Broyden mixing:
  rms(total) = 0.48777E-01    rms(broyden)= 0.48772E-01
  rms(prec ) = 0.51964E-01
  weight for this iteration     100.00

 eigenvalues of (default mixing * dielectric matrix)
  average eigenvalue GAMMA=   1.5165
[...]
     34      -1.4365      0.00000
     35      -1.3299      0.00000
     36      -1.1715      0.00000
     37      -1.0905      0.00000
     38      -0.1297      0.00000
     39       0.0904      0.00000
     40       0.4978      0.00000
     41       0.7259      0.00000
     42       0.7406      0.00000
     43       2.3075      0.00000
     44       2.6442      0.00000
     45       2.8844      0.00000
     46       3.4034      0.00000
     47       3.5035      0.00000
     48       3.6933      0.00000

 k-point     5 :      -0.4000    0.2000    0.0000
  band No.  band energies     occupation 
      1     -17.0366      1.00000
      2     -16.4970      1.00000
      3     -16.0918      1.00000
      4     -15.8969      1.00000
      5     -15.5610      1.00000
      6     -15.4398      1.00000
      7     -13.1563      1.00000
      8     -11.3576      1.00000
      9      -8.3049      1.00000
     10      -7.7944      1.00000
     11      -7.6826      1.00000
     12      -7.0827      1.00000
     13      -7.0268      1.00000
     14      -6.4350      1.00000
     15      -6.4001      1.00000
     16      -6.1052      1.00000
     17      -5.9590      1.00000
     18      -5.8580      1.00000
     19      -5.8529      1.00000
     20      -5.5129      1.00000
     21      -5.4826      1.00000
     22      -4.8873      1.00000
     23      -4.3787      1.00000
     24      -4.1148      1.00000
     25      -4.0404      1.00000
     26      -3.9438      1.00000
     27      -3.6358      1.00000
     28      -3.4463      1.00000
     29      -3.3948      1.00000
     30      -3.2932      1.00000
     31      -3.2573      1.00000
     32      -2.4799      1.00000
     33      -1.9262      0.00000
     34      -1.7826      0.00000
     35      -1.4964      0.00000
     36      -1.0777      0.00000
     37      -1.0238      0.00000
     38      -0.4246      0.00000
     39      -0.0021      0.00000
     40       0.2696      0.00000
     41       0.5249      0.00000
     42       0.6604      0.00000
     43       2.8936      0.00000
     44       2.9391      0.00000
     45       3.0187      0.00000
     46       3.1749      0.00000
     47       3.2920      0.00000
     48       3.8687      0.00000


--------------------------------------------------------------------------------------------------------


 soft charge-density along one line, spin component           1
         0         1         2         3         4         5         6         7         8         9
 total charge-density along one line

 soft charge-density along one line, spin component           2
         0         1         2         3         4         5         6         7         8         9
 total charge-density along one line

 pseudopotential strength for first ion, spin component:           1
-10.264  -0.075  -0.000   0.000   0.000   0.956   0.026   0.000
 -0.075 -10.280   0.000   0.000   0.000   0.026   0.961  -0.000
 -0.000   0.000 -10.119   0.000   0.000   0.000  -0.000   0.905
  0.000   0.000   0.000 -10.280   0.075  -0.000  -0.000  -0.000
  0.000   0.000   0.000   0.075 -10.264  -0.000  -0.000  -0.000
  0.956   0.026   0.000  -0.000  -0.000   0.685  -0.010  -0.000
  0.026   0.961  -0.000  -0.000  -0.000  -0.010   0.683   0.000
  0.000  -0.000   0.905  -0.000  -0.000  -0.000   0.000   0.703
 -0.000  -0.000  -0.000   0.961  -0.026   0.000   0.000   0.000
 -0.000  -0.000  -0.000  -0.026   0.956   0.000   0.000   0.000
 -0.000  -0.000  -0.008  -0.000   0.000  -0.000  -0.000   0.003
  0.000   0.000   0.001   0.000  -0.000  -0.000  -0.000  -0.000
 -0.000   0.000   0.000  -0.000   0.002  -0.000   0.000  -0.000
 -0.000  -0.000   0.000  -0.000  -0.000  -0.000   0.000   0.000
  0.002  -0.000   0.000   0.000  -0.000   0.000  -0.000  -0.000
  0.000  -0.000  -0.000   0.000  -0.002  -0.000   0.000   0.000
  0.000   0.000  -0.000   0.000   0.000  -0.000  -0.000   0.000
 -0.002   0.000  -0.000  -0.000   0.000   0.000  -0.000   0.000
 pseudopotential strength for first ion, spin component:           2
-10.264  -0.075  -0.000   0.000   0.000   0.956   0.026   0.000
 -0.075 -10.280   0.000   0.000   0.000   0.026   0.961  -0.000
 -0.000   0.000 -10.119   0.000   0.000   0.000  -0.000   0.905
  0.000   0.000   0.000 -10.280   0.075  -0.000  -0.000  -0.000
  0.000   0.000   0.000   0.075 -10.264  -0.000  -0.000  -0.000
  0.956   0.026   0.000  -0.000  -0.000   0.685  -0.010  -0.000
  0.026   0.961  -0.000  -0.000  -0.000  -0.010   0.683   0.000
  0.000  -0.000   0.905  -0.000  -0.000  -0.000   0.000   0.703
 -0.000  -0.000  -0.000   0.961  -0.026   0.000   0.000   0.000
 -0.000  -0.000  -0.000  -0.026   0.956   0.000   0.000   0.000
 -0.000  -0.000  -0.008  -0.000   0.000  -0.000  -0.000   0.003
  0.000   0.000   0.001   0.000  -0.000  -0.000  -0.000  -0.000
 -0.000   0.000   0.000  -0.000   0.002  -0.000   0.000  -0.000
 -0.000  -0.000   0.000  -0.000  -0.000  -0.000   0.000   0.000
  0.002  -0.000   0.000   0.000  -0.000   0.000  -0.000  -0.000
  0.000  -0.000  -0.000   0.000  -0.002  -0.000   0.000   0.000
  0.000   0.000  -0.000   0.000   0.000  -0.000  -0.000   0.000
 -0.002   0.000  -0.000  -0.000   0.000   0.000  -0.000   0.000
 total augmentation occupancy for first ion, spin component:           1
  1.666  -0.228   0.000   0.000  -0.000   0.126   0.139   0.000  -0.000   0.000  -0.000  -0.000   0.000   0.000   0.022  -0.000
 -0.228   1.479  -0.000  -0.000   0.000   0.144   0.253   0.000   0.000  -0.000   0.000  -0.000   0.000   0.000   0.004   0.000
  0.000  -0.000   1.912  -0.000  -0.000   0.000   0.000  -0.021   0.000  -0.000  -0.002  -0.008  -0.000   0.000   0.000   0.000
  0.000  -0.000  -0.000   1.479   0.228  -0.000  -0.000   0.000   0.253  -0.144  -0.000  -0.000  -0.004  -0.000   0.000   0.000
 -0.000   0.000  -0.000   0.228   1.666  -0.000  -0.000  -0.000  -0.139   0.126   0.000   0.000   0.022  -0.000  -0.000  -0.001
  0.126   0.144   0.000  -0.000  -0.000   0.109   0.065   0.000  -0.000  -0.000   0.000  -0.000  -0.000   0.000   0.026   0.000
  0.139   0.253   0.000  -0.000  -0.000   0.065   0.166   0.000  -0.000  -0.000   0.000   0.000   0.000  -0.000  -0.003  -0.000
  0.000   0.000  -0.021   0.000  -0.000   0.000   0.000   0.086   0.000  -0.000   0.003  -0.004  -0.000   0.000   0.000   0.000
 -0.000   0.000   0.000   0.253  -0.139  -0.000  -0.000   0.000   0.166  -0.065   0.000  -0.000   0.003   0.000   0.000  -0.000
  0.000  -0.000  -0.000  -0.144   0.126  -0.000  -0.000  -0.000  -0.065   0.109  -0.000   0.000   0.026  -0.000   0.000  -0.004
 -0.000  -0.000  -0.002  -0.000   0.000   0.000   0.000   0.003   0.000  -0.000   1.114  -0.334   0.000   0.000  -0.000   0.000
 -0.000   0.000  -0.008  -0.000   0.000  -0.000   0.000  -0.004   0.000   0.000  -0.334   0.177   0.000  -0.000  -0.000  -0.000
  0.000   0.000  -0.000  -0.004   0.022  -0.000   0.000  -0.000   0.003   0.026   0.000   0.000   0.223   0.000  -0.000  -0.017
  0.000   0.000   0.000  -0.000  -0.000   0.000   0.000   0.000   0.000  -0.000   0.000  -0.000   0.000   0.225  -0.000  -0.000
  0.022   0.004   0.000   0.000  -0.000   0.026  -0.003   0.000   0.000   0.000   0.000  -0.000  -0.000  -0.000   0.223  -0.000
 -0.000   0.000   0.000   0.000  -0.001   0.000  -0.000   0.000  -0.000  -0.004   0.000   0.000  -0.017  -0.000  -0.000   0.002
 -0.000   0.000  -0.000  -0.000   0.000  -0.000   0.000  -0.000  -0.000   0.000  -0.000   0.000  -0.000  -0.017   0.000   0.000
 -0.001  -0.000  -0.000   0.000   0.000  -0.004   0.000  -0.000  -0.000  -0.000  -0.000   0.000   0.000   0.000  -0.017  -0.000
 total augmentation occupancy for first ion, spin component:           2
 -0.000  -0.000  -0.000   0.000   0.000   0.000   0.000   0.000   0.000  -0.000  -0.000   0.000  -0.000   0.000   0.000  -0.000
 -0.000  -0.000  -0.000   0.000   0.000  -0.000   0.000  -0.000  -0.000  -0.000  -0.000   0.000  -0.000  -0.000  -0.000   0.000
 -0.000  -0.000   0.000  -0.000   0.000   0.000   0.000   0.000   0.000  -0.000  -0.000   0.000  -0.000   0.000   0.000  -0.000
  0.000   0.000  -0.000  -0.000   0.000  -0.000   0.000  -0.000   0.000   0.000  -0.000  -0.000   0.000  -0.000  -0.000   0.000
 -0.000   0.000   0.000   0.000  -0.000   0.000   0.000  -0.000  -0.000   0.000   0.000  -0.000   0.000  -0.000   0.000   0.000
  0.000  -0.000   0.000  -0.000   0.000   0.000   0.000  -0.000   0.000  -0.000   0.000  -0.000  -0.000  -0.000   0.000   0.000
  0.000   0.000   0.000   0.000   0.000   0.000   0.000   0.000  -0.000   0.000  -0.000  -0.000  -0.000   0.000   0.000  -0.000
  0.000  -0.000   0.000  -0.000  -0.000  -0.000   0.000  -0.000   0.000   0.000   0.000  -0.000  -0.000  -0.000   0.000  -0.000
  0.000  -0.000   0.000   0.000  -0.000   0.000  -0.000   0.000   0.000  -0.000   0.000  -0.000  -0.000  -0.000  -0.000  -0.000
 -0.000  -0.000  -0.000   0.000   0.000   0.000   0.000   0.000  -0.000   0.000  -0.000   0.000   0.000   0.000   0.000   0.000
 -0.000  -0.000  -0.000   0.000   0.000   0.000  -0.000   0.000   0.000  -0.000  -0.000   0.000   0.000  -0.000   0.000  -0.000
  0.000  -0.000   0.000  -0.000  -0.000  -0.000  -0.000  -0.000   0.000   0.000   0.000  -0.000   0.000  -0.000   0.000   0.000
 -0.000  -0.000  -0.000   0.000   0.000  -0.000  -0.000  -0.000  -0.000   0.000   0.000  -0.000  -0.000  -0.000   0.000  -0.000
  0.000   0.000   0.000  -0.000  -0.000  -0.000  -0.000  -0.000  -0.000   0.000  -0.000  -0.000  -0.000  -0.000  -0.000   0.000
  0.000  -0.000   0.000  -0.000   0.000   0.000   0.000   0.000  -0.000   0.000   0.000  -0.000   0.000   0.000  -0.000  -0.000
 -0.000   0.000  -0.000   0.000   0.000   0.000  -0.000  -0.000  -0.000   0.000  -0.000   0.000  -0.000   0.000  -0.000   0.000
  0.000   0.000   0.000   0.000  -0.000  -0.000  -0.000  -0.000  -0.000   0.000   0.000   0.000   0.000  -0.000   0.000   0.000
  0.000  -0.000   0.000   0.000   0.000   0.000   0.000   0.000  -0.000  -0.000   0.000   0.000   0.000   0.000  -0.000  -0.000


------------------------ aborting loop because EDIFF is reached ----------------------------------------





 total charge     

# of ion       s       p       d       tot
------------------------------------------
    1        0.400   0.509   7.415   8.324
    2        0.400   0.509   7.415   8.324
    3        1.111   1.285   0.000   2.396
    4        1.111   1.285   0.000   2.396
    5        1.504   2.252   0.055   3.811
    6        1.491   2.223   0.056   3.770
    7        1.500   2.241   0.055   3.796
    8        1.504   2.252   0.055   3.811
    9        1.491   2.223   0.056   3.770
   10        1.500   2.241   0.055   3.796
--------------------------------------------------
tot         12.010  17.020  15.162  44.192



 magnetization (x)

# of ion       s       p       d       tot
------------------------------------------
    1       -0.000  -0.000  -0.000  -0.000
    2       -0.000  -0.000  -0.000  -0.000
    3        0.000   0.000   0.000   0.000
    4        0.000   0.000   0.000   0.000
    5        0.000   0.000  -0.000   0.000
    6        0.000   0.000  -0.000   0.000
    7        0.000   0.000  -0.000   0.000
    8        0.000   0.000  -0.000   0.000
    9        0.000   0.000  -0.000   0.000
   10        0.000   0.000  -0.000   0.000
--------------------------------------------------
tot          0.000   0.000  -0.000   0.000

    CHARGE:  cpu time    2.0880: real time    2.1280
    FORLOC:  cpu time    0.0520: real time    0.0559
    FORNL :  cpu time    6.6480: real time    6.8652
    STRESS:  cpu time   20.1440: real time   20.4282
    FORCOR:  cpu time   51.6320: real time   51.7601
    FORHAR:  cpu time    0.3240: real time    0.3287
    MIXING:  cpu time    0.0400: real time    0.0422
    OFIELD:  cpu time    0.0040: real time    0.0000

  FORCE on cell =-STRESS in cart. coord.  units (eV):
  Direction    XX          YY          ZZ          XY          YZ          ZX
  --------------------------------------------------------------------------------------
  Alpha Z    53.19346    53.19346    53.19346
  Ewald   11250.54192 11250.53911-13397.68837    -0.00237    -0.00062    -0.00113
  Hartree 11844.99157 11844.99260-11420.13397    -0.00034     0.00008     0.00013
  E(xc)    -262.63993  -262.63991  -262.84570     0.00000     0.00001     0.00001
  Local  -23894.90364-23894.90316 23975.55030     0.00222     0.00033     0.00062
  n-local   295.09247   296.94737   304.60288     0.75936     0.49776     0.39829
  augment    47.90462    47.90480    45.21765     0.00003     0.00004     0.00006
  Kinetic   669.36628   661.01017   702.23714    -5.10993     0.61644    -0.15356
  Fock        0.00000     0.00000     0.00000     0.00000     0.00000     0.00000
  -------------------------------------------------------------------------------------
  Total       0.29559     0.29559     0.13338     0.00000    -0.00000    -0.00000
  in kB       0.66979     0.66979     0.30225     0.00000    -0.00000    -0.00000
  external pressure =        0.55 kB  Pullay stress =        0.00 kB


 VOLUME and BASIS-vectors are now :
 -----------------------------------------------------------------------------
  energy-cutoff  :      520.00
  volume of cell :      707.06
      direct lattice vectors                 reciprocal lattice vectors
     6.249870329  0.000000242 -0.000000000     0.160003323 -0.092377948  0.000000000
     3.124934607  5.412546341  0.000000000    -0.000000007  0.184755928 -0.000000000
    -0.000000000  0.000000000 20.901670841     0.000000000 -0.000000000  0.047843065

  length of vectors
     6.249870329  6.249869934 20.901670841     0.184755916  0.184755928  0.047843065


 FORCES acting on ions
    electron-ion (+dipol)            ewald-force                    non-local-force                 convergence-correction
 -----------------------------------------------------------------------------------------------
   -.767E-04 -.566E-04 0.170E+00   0.769E-03 0.460E-03 -.173E+00   0.694E-17 0.925E-21 0.332E-02   0.200E-06 0.157E-06 0.250E-03
   0.767E-04 0.566E-04 -.170E+00   -.769E-03 -.460E-03 0.173E+00   -.104E-16 -.347E-17 -.332E-02   -.200E-06 -.157E-06 -.250E-03
   -.502E-04 -.196E-04 0.313E+03   -.219E-03 -.122E-03 -.317E+03   -.225E-16 -.128E-16 0.391E+01   -.705E-07 -.513E-07 0.187E-01
   0.502E-04 0.195E-04 -.313E+03   0.219E-03 0.122E-03 0.317E+03   -.522E-17 0.128E-16 -.391E+01   0.705E-07 0.513E-07 -.187E-01
   -.244E+02 0.115E-01 -.504E+03   0.234E+02 -.120E-01 0.506E+03   0.977E+00 -.619E-03 -.214E+01   0.164E-02 0.208E-05 -.259E-01
   0.122E+02 0.211E+02 -.504E+03   -.117E+02 -.203E+02 0.506E+03   -.489E+00 -.846E+00 -.214E+01   -.819E-03 -.142E-02 -.259E-01
   0.122E+02 -.211E+02 -.504E+03   -.117E+02 0.203E+02 0.506E+03   -.488E+00 0.846E+00 -.214E+01   -.822E-03 0.142E-02 -.259E-01
   0.244E+02 -.115E-01 0.504E+03   -.234E+02 0.120E-01 -.506E+03   -.977E+00 0.619E-03 0.214E+01   -.164E-02 -.208E-05 0.259E-01
   -.122E+02 -.211E+02 0.504E+03   0.117E+02 0.203E+02 -.506E+03   0.489E+00 0.846E+00 0.214E+01   0.819E-03 0.142E-02 0.259E-01
   -.122E+02 0.211E+02 0.504E+03   0.117E+02 -.203E+02 -.506E+03   0.488E+00 -.846E+00 0.214E+01   0.822E-03 -.142E-02 0.259E-01
 -----------------------------------------------------------------------------------------------
   0.766E-08 0.398E-07 0.278E-07   -.711E-14 0.000E+00 0.171E-12   -.167E-15 0.111E-15 0.888E-15   0.326E-13 -.545E-13 -.302E-10


 POSITION                                       TOTAL-FORCE (eV/Angst)
 -----------------------------------------------------------------------------------
      3.12493      1.80418     10.45061         0.000000     -0.000000      0.000517
      6.24987      3.60837     10.45106         0.000000     -0.000000     -0.000517
     -0.00000      0.00000      9.31829         0.000000     -0.000000     -0.036753
     -0.00000      0.00000     11.58338         0.000000     -0.000000      0.036753
      3.84776      0.00023     11.85888         0.010073     -0.000571      0.019044
      1.20126      2.08018     11.85888        -0.005531     -0.008438      0.019044
      4.32580      3.33214     11.85888        -0.004542      0.009009      0.019044
      5.52705      5.41232      9.04279        -0.010073      0.000571     -0.019044
      8.17355      3.33237      9.04279         0.005531      0.008438     -0.019044
      5.04901      2.08040      9.04279         0.004542     -0.009009     -0.019044
 -----------------------------------------------------------------------------------
    total drift:                                0.000000      0.000000      0.000000


--------------------------------------------------------------------------------------------------------



  FREE ENERGIE OF THE ION-ELECTRON SYSTEM (eV)
  ---------------------------------------------------
  free  energy   TOTEN  =       -42.12310755 eV

  energy  without entropy=      -42.12310755  energy(sigma->0) =      -42.12310755

 d Force = 0.6752447E-03[ 0.207E-03, 0.114E-02]  d Energy = 0.2250323E-03 0.450E-03
 d Force = 0.5207958E+01[ 0.521E+01, 0.520E+01]  d Ewald  =-0.1122194E+02 0.164E+02


--------------------------------------------------------------------------------------------------------


    POTLOK:  cpu time   51.9440: real time   52.2135


--------------------------------------------------------------------------------------------------------




--------------------------------------------------------------------------------------------------------


  
 reached required accuracy - stopping structural energy minimisation
     LOOP+:  cpu time  605.3720: real time  609.2628
    4ORBIT:  cpu time    0.0000: real time    0.0000



 total charge     

# of ion       s       p       d       tot
------------------------------------------
    1        0.400   0.509   7.415   8.324
    2        0.400   0.509   7.415   8.324
    3        1.111   1.285   0.000   2.396
    4        1.111   1.285   0.000   2.396
    5        1.504   2.252   0.055   3.811
    6        1.491   2.223   0.056   3.770
    7        1.500   2.241   0.055   3.796
    8        1.504   2.252   0.055   3.811
    9        1.491   2.223   0.056   3.770
   10        1.500   2.241   0.055   3.796
--------------------------------------------------
tot         12.010  17.020  15.162  44.192



 magnetization (x)

# of ion       s       p       d       tot
------------------------------------------
    1       -0.000  -0.000  -0.000  -0.000
    2       -0.000  -0.000  -0.000  -0.000
    3        0.000   0.000   0.000   0.000
    4        0.000   0.000   0.000   0.000
    5        0.000   0.000  -0.000   0.000
    6        0.000   0.000  -0.000   0.000
    7        0.000   0.000  -0.000   0.000
    8        0.000   0.000  -0.000   0.000
    9        0.000   0.000  -0.000   0.000
   10        0.000   0.000  -0.000   0.000
--------------------------------------------------
tot          0.000   0.000  -0.000   0.000

 BZINTS: Fermi energy: -1.930290; 64.000000 electrons
         Band energy:-494.857948;  BLOECHL correction:  0.000000

 total amount of memory used by VASP MPI-rank0   130322. kBytes
=======================================================================

   base      :      30000. kBytes
   nonlr-proj:      10012. kBytes
   fftplans  :      11247. kBytes
   grid      :      66142. kBytes
   one-center:        311. kBytes
   wavefun   :      12610. kBytes

  
  
 General timing and accounting informations for this job:
 ========================================================
  
                  Total CPU time used (sec):    16337.832
                            User time (sec):    15940.756
                          System time (sec):      397.076
                         Elapsed time (sec):    16486.274
  
                   Maximum memory used (kb):      385212.
                   Average memory used (kb):           0.
  
                          Minor page faults:     14065738
                          Major page faults:            7
                 Voluntary context switches:         1100
