 vasp.5.4.4.18Apr17-6-g9f103f2a35 (build May  1 2020 15:48:39) complex           
 executed on             LinuxGNU date 2020.06.30  19:20:05
 running on   16 total cores
 distrk:  each k-point on   16 cores,    1 groups
 distr:  one band on NCORES_PER_BAND=   1 cores,   16 groups


--------------------------------------------------------------------------------------------------------


 INCAR:
 POTCAR:   PAW_PBE Cr 06Sep2000                   
 POTCAR:   PAW_PBE Ge 05Jan2001                   
 POTCAR:   PAW_PBE Te 08Apr2002                   

 ----------------------------------------------------------------------------- 
|                                                                             |
|           W    W    AA    RRRRR   N    N  II  N    N   GGGG   !!!           |
|           W    W   A  A   R    R  NN   N  II  NN   N  G    G  !!!           |
|           W    W  A    A  R    R  N N  N  II  N N  N  G       !!!           |
|           W WW W  AAAAAA  RRRRR   N  N N  II  N  N N  G  GGG   !            |
|           WW  WW  A    A  R   R   N   NN  II  N   NN  G    G                |
|           W    W  A    A  R    R  N    N  II  N    N   GGGG   !!!           |
|                                                                             |
|      For optimal performance we recommend to set                            |
|        NCORE= 4 - approx SQRT( number of cores)                             |
|      NCORE specifies how many cores store one orbital (NPAR=cpu/NCORE).     |
|      This setting can  greatly improve the performance of VASP for DFT.     |
|      The default,   NCORE=1            might be grossly inefficient         |
|      on modern multi-core architectures or massively parallel machines.     |
|      Do your own testing !!!!                                               |
|      Unfortunately you need to use the default for GW and RPA calculations. |
|      (for HF NCORE is supported but not extensively tested yet)             |
|                                                                             |
 ----------------------------------------------------------------------------- 


 ----------------------------------------------------------------------------- 
|                                                                             |
|  ADVICE TO THIS USER RUNNING 'VASP/VAMP'   (HEAR YOUR MASTER'S VOICE ...):  |
|                                                                             |
|      You have switched on vdW-DFT.                                          |
|      This routine was written and supplied by Jiri Klimes.                  |
|      We recommed that you carefully read and cite the following             |
|      publication                                                            |
|      J. Klimes, D.R. Bowler, A. Michelides                                  |
|        J. Phys.: Cond Matt. 22 022201 (2010)                                |
|      J. Klimes, D.R. Bowler, A. Michelides                                  |
|        Phys. Rev. B. 83, 195131 (2011)                                      |
|      and references therein.                                                |
|                                                                             |
 ----------------------------------------------------------------------------- 

 POTCAR:   PAW_PBE Cr 06Sep2000                   
   VRHFIN =Cr : d5 s1                                                           
   LEXCH  = PE                                                                  
   EATOM  =   276.9744 eV,   20.3570 Ry                                         
                                                                                
   TITEL  = PAW_PBE Cr 06Sep2000                                                
   LULTRA =        F    use ultrasoft PP ?                                      
   IUNSCR =        1    unscreen: 0-lin 1-nonlin 2-no                           
   RPACOR =    2.080    partial core radius                                     
   POMASS =   51.996; ZVAL   =    6.000    mass and valenz                      
   RCORE  =    2.500    outmost cutoff radius                                   
   RWIGS  =    2.500; RWIGS  =    1.323    wigner-seitz radius (au A)           
   ENMAX  =  227.082; ENMIN  =  170.311 eV                                      
   RCLOC  =    1.721    cutoff for local pot                                    
   LCOR   =        T    correct aug charges                                     
   LPAW   =        T    paw PP                                                  
   EAUG   =  402.108                                                            
   DEXC   =    -.035                                                            
   RMAX   =    3.060    core radius for proj-oper                               
   RAUG   =    1.300    factor for augmentation sphere                          
   RDEP   =    2.609    radius for radial grids                                 
   QCUT   =   -4.085; QGAM   =    8.171    optimization parameters              
                                                                                
   Description                                                                  
     l     E      TYP  RCUT    TYP  RCUT                                        
     2   .000     23  2.500                                                     
     2   .000     23  2.500                                                     
     0   .000     23  2.500                                                     
     0   .000     23  2.500                                                     
     1  -.400     23  2.500                                                     
     1  2.000     23  2.500                                                     
     3   .000      7   .000                                                     
  local pseudopotential read in
  partial core-charges read in
  atomic valenz-charges read in
  non local Contribution for L=           2  read in
    real space projection operators read in
  non local Contribution for L=           2  read in
    real space projection operators read in
  non local Contribution for L=           0  read in
    real space projection operators read in
  non local Contribution for L=           0  read in
    real space projection operators read in
  non local Contribution for L=           1  read in
    real space projection operators read in
  non local Contribution for L=           1  read in
    real space projection operators read in
    PAW grid and wavefunctions read in

   number of l-projection  operators is LMAX  =           6
   number of lm-projection operators is LMMAX =          18

 POTCAR:   PAW_PBE Ge 05Jan2001                   
   VRHFIN =Ge: s2p2                                                             
   LEXCH  = PE                                                                  
   EATOM  =   104.9960 eV,    7.7170 Ry                                         
                                                                                
   TITEL  = PAW_PBE Ge 05Jan2001                                                
   LULTRA =        F    use ultrasoft PP ?                                      
   IUNSCR =        1    unscreen: 0-lin 1-nonlin 2-no                           
   RPACOR =    2.170    partial core radius                                     
   POMASS =   72.610; ZVAL   =    4.000    mass and valenz                      
   RCORE  =    2.300    outmost cutoff radius                                   
   RWIGS  =    2.300; RWIGS  =    1.217    wigner-seitz radius (au A)           
   ENMAX  =  173.807; ENMIN  =  130.355 eV                                      
   ICORE  =        3    local potential                                         
   LCOR   =        T    correct aug charges                                     
   LPAW   =        T    paw PP                                                  
   EAUG   =  385.843                                                            
   DEXC   =    -.138                                                            
   RMAX   =    3.497    core radius for proj-oper                               
   RAUG   =    1.300    factor for augmentation sphere                          
   RDEP   =    2.318    radius for radial grids                                 
   QCUT   =   -3.574; QGAM   =    7.148    optimization parameters              
                                                                                
   Description                                                                  
     l     E      TYP  RCUT    TYP  RCUT                                        
     0   .000     23  2.300                                                     
     0   .000     23  2.300                                                     
     1   .000     23  2.300                                                     
     1   .000     23  2.300                                                     
     2   .000     23  2.300                                                     
     3  -.100      7  2.300                                                     
  local pseudopotential read in
  partial core-charges read in
  atomic valenz-charges read in
  non local Contribution for L=           0  read in
    real space projection operators read in
  non local Contribution for L=           0  read in
    real space projection operators read in
  non local Contribution for L=           1  read in
    real space projection operators read in
  non local Contribution for L=           1  read in
    real space projection operators read in
  non local Contribution for L=           2  read in
    real space projection operators read in
    PAW grid and wavefunctions read in

   number of l-projection  operators is LMAX  =           5
   number of lm-projection operators is LMMAX =          13

 POTCAR:   PAW_PBE Te 08Apr2002                   
   VRHFIN =Te: s2p4                                                             
   LEXCH  = PE                                                                  
   EATOM  =   223.2721 eV,   16.4100 Ry                                         
                                                                                
   TITEL  = PAW_PBE Te 08Apr2002                                                
   LULTRA =        F    use ultrasoft PP ?                                      
   IUNSCR =        1    unscreen: 0-lin 1-nonlin 2-no                           
   RPACOR =    2.200    partial core radius                                     
   POMASS =  127.600; ZVAL   =    6.000    mass and valenz                      
   RCORE  =    2.300    outmost cutoff radius                                   
   RWIGS  =    2.900; RWIGS  =    1.535    wigner-seitz radius (au A)           
   ENMAX  =  174.982; ENMIN  =  131.236 eV                                      
   ICORE  =        3    local potential                                         
   LCOR   =        T    correct aug charges                                     
   LPAW   =        T    paw PP                                                  
   EAUG   =  368.792                                                            
   DEXC   =    -.169                                                            
   RMAX   =    3.486    core radius for proj-oper                               
   RAUG   =    1.300    factor for augmentation sphere                          
   RDEP   =    2.397    radius for radial grids                                 
   QCUT   =   -3.586; QGAM   =    7.172    optimization parameters              
                                                                                
   Description                                                                  
     l     E      TYP  RCUT    TYP  RCUT                                        
     0   .000     23  2.300                                                     
     0   .000     23  2.300                                                     
     1   .000     23  2.300                                                     
     1   .000     23  2.300                                                     
     2   .000     23  2.300                                                     
     3  -.100     23  2.300                                                     
  local pseudopotential read in
  partial core-charges read in
  atomic valenz-charges read in
  non local Contribution for L=           0  read in
    real space projection operators read in
  non local Contribution for L=           0  read in
    real space projection operators read in
  non local Contribution for L=           1  read in
    real space projection operators read in
  non local Contribution for L=           1  read in
    real space projection operators read in
  non local Contribution for L=           2  read in
    real space projection operators read in
    PAW grid and wavefunctions read in

   number of l-projection  operators is LMAX  =           5
   number of lm-projection operators is LMMAX =          13

 Optimization of the real space projectors (new method)

 maximal supplied QI-value         = 15.12
 optimisation between [QCUT,QGAM] = [ 11.64, 23.28] = [ 37.95,151.78] Ry 
 Optimized for a Real-space Cutoff    1.49 Angstroem

   l    n(q)    QCUT    max X(q) W(low)/X(q) W(high)/X(q)  e(spline) 
   2      9    11.641     4.777    0.25E-04    0.21E-05    0.63E-07
   2      9    11.641    31.132    0.13E-03    0.22E-03    0.64E-06
   0     10    11.641    20.416    0.11E-04    0.74E-05    0.19E-07
   0     10    11.641    45.408    0.10E-03    0.85E-04    0.30E-06
   1     10    11.641     7.848    0.22E-04    0.23E-04    0.56E-07
   1     10    11.641     9.895    0.85E-04    0.54E-04    0.16E-06
 Optimization of the real space projectors (new method)

 maximal supplied QI-value         = 16.25
 optimisation between [QCUT,QGAM] = [ 11.54, 23.24] = [ 37.28,151.24] Ry 
 Optimized for a Real-space Cutoff    1.28 Angstroem

   l    n(q)    QCUT    max X(q) W(low)/X(q) W(high)/X(q)  e(spline) 
   0      9    11.539     8.651    0.22E-04    0.16E-04    0.10E-07
   0      9    11.539    33.192    0.11E-03    0.16E-03    0.65E-07
   1      8    11.539     5.899    0.37E-04    0.28E-04    0.43E-07
   1      8    11.539    27.289    0.22E-03    0.28E-04    0.14E-06
   2      8    11.539     4.673    0.11E-03    0.18E-03    0.58E-07
 Optimization of the real space projectors (new method)

 maximal supplied QI-value         = 16.25
 optimisation between [QCUT,QGAM] = [ 11.54, 23.24] = [ 37.28,151.24] Ry 
 Optimized for a Real-space Cutoff    1.36 Angstroem

   l    n(q)    QCUT    max X(q) W(low)/X(q) W(high)/X(q)  e(spline) 
   0      9    11.539     7.090    0.13E-04    0.25E-05    0.51E-08
   0      9    11.539   101.654    0.53E-04    0.69E-04    0.12E-06
   1      9    11.539     5.276    0.20E-04    0.98E-05    0.24E-07
   1      9    11.539    81.891    0.24E-03    0.13E-04    0.15E-06
   2      9    11.539     5.599    0.30E-04    0.97E-04    0.54E-07

 ----------------------------------------------------------------------------- 
|                                                                             |
|  ADVICE TO THIS USER RUNNING 'VASP/VAMP'   (HEAR YOUR MASTER'S VOICE ...):  |
|                                                                             |
|      You enforced a specific xc-type in the INCAR file,                     |
|      a different type was found on the POTCAR file                          |
|          I HOPE YOU KNOW, WHAT YOU ARE  DOING                               |
|                                                                             |
 ----------------------------------------------------------------------------- 

 PAW_PBE Cr 06Sep2000                   :
 energy of atom  1       EATOM= -276.9744
 kinetic energy error for atom=    0.0010 (will be added to EATOM!!)
 PAW_PBE Ge 05Jan2001                   :
 energy of atom  2       EATOM= -104.9960
 kinetic energy error for atom=    0.0002 (will be added to EATOM!!)
 PAW_PBE Te 08Apr2002                   :
 energy of atom  3       EATOM= -223.2721
 kinetic energy error for atom=    0.0007 (will be added to EATOM!!)


 POSCAR: Cr2 Ge2 Te6                             
  positions in direct lattice
  velocities in cartesian coordinates
  No initial velocities read in
 exchange correlation table for  LEXCH =       42
   RHO(1)=    0.500       N(1)  =     2000
   RHO(2)=  100.500       N(2)  =     4000



--------------------------------------------------------------------------------------------------------


 ion  position               nearest neighbor table
   1  0.333  0.333  0.500-   6 2.78   5 2.78   7 2.78   8 2.78  10 2.78   9 2.78
   2  0.667  0.667  0.500-   9 2.78   8 2.78  10 2.78   5 2.78   7 2.78   6 2.78
   3  0.000  0.000  0.448-   4 2.43   8 2.63  10 2.63   9 2.63
   4  0.000  0.000  0.552-   3 2.43   5 2.63   7 2.63   6 2.63
   5  0.626  0.000  0.574-   4 2.63   1 2.78   2 2.78
   6  0.000  0.373  0.574-   4 2.63   1 2.78   2 2.78
   7  0.373  0.626  0.574-   4 2.63   1 2.78   2 2.78
   8  0.374  1.000  0.426-   3 2.63   2 2.78   1 2.78
   9  1.000  0.627  0.426-   3 2.63   2 2.78   1 2.78
  10  0.627  0.374  0.426-   3 2.63   2 2.78   1 2.78

  LATTYP: Found a hexagonal cell.
 ALAT       =     6.9077769333
 C/A-ratio  =     3.3939410937
  
  Lattice vectors:
  
 A1 = (   3.4538890000,  -5.9823100000,   0.0000000000)
 A2 = (  -6.9077770000,   0.0000000000,   0.0000000000)
 A3 = (   0.0000000000,   0.0000000000, -23.4445880000)


Analysis of symmetry for initial positions (statically):
=====================================================================
 Subroutine PRICEL returns:
 Original cell was already a primitive cell.
 

 Routine SETGRP: Setting up the symmetry group for a 
 hexagonal supercell.


 Subroutine GETGRP returns: Found  6 space group operations
 (whereof  6 operations were pure point group operations)
 out of a pool of 24 trial point group operations.


The static configuration has the point symmetry S_6 .


Analysis of symmetry for dynamics (positions and initial velocities):
=====================================================================
 Subroutine PRICEL returns:
 Original cell was already a primitive cell.
 

 Routine SETGRP: Setting up the symmetry group for a 
 hexagonal supercell.


 Subroutine GETGRP returns: Found  6 space group operations
 (whereof  6 operations were pure point group operations)
 out of a pool of 24 trial point group operations.


The dynamic configuration has the point symmetry S_6 .


Analysis of structural, dynamic, and magnetic symmetry:
=====================================================================
 Subroutine PRICEL returns:
 Original cell was already a primitive cell.
 

 Routine SETGRP: Setting up the symmetry group for a 
 hexagonal supercell.


 Subroutine GETGRP returns: Found  6 space group operations
 (whereof  6 operations were pure point group operations)
 out of a pool of 24 trial point group operations.


The magnetic configuration has the point symmetry S_6 .


 Subroutine INISYM returns: Found  6 space group operations
 (whereof  6 operations are pure point group operations),
 and found     1 'primitive' translations



 KPOINTS: Kpoints from vasprun.xml                

Automatic generation of k-mesh.
Space group operators:
 irot       det(A)        alpha          n_x          n_y          n_z        tau_x        tau_y        tau_z
    1     1.000000     0.000000     1.000000     0.000000     0.000000     0.000000     0.000000     0.000000
    2    -1.000000     0.000000     1.000000     0.000000     0.000000     0.000000     0.000000     0.000000
    3     1.000000   120.000000     0.000000     0.000000     1.000000     0.000000     0.000000     0.000000
    4    -1.000000   120.000000     0.000000     0.000000     1.000000     0.000000     0.000000     0.000000
    5     1.000000   120.000000     0.000000     0.000000    -1.000000     0.000000     0.000000     0.000000
    6    -1.000000   120.000000     0.000000     0.000000    -1.000000     0.000000     0.000000     0.000000
 
 Subroutine IBZKPT returns following result:
 ===========================================
 
 Found      5 irreducible k-points:
 
 Following reciprocal coordinates:
            Coordinates               Weight
  0.000000  0.000000  0.000000      1.000000
  0.200000  0.000000  0.000000      6.000000
  0.400000  0.000000  0.000000      6.000000
  0.400000  0.200000  0.000000      6.000000
 -0.400000  0.200000  0.000000      6.000000
 
 Following cartesian coordinates:
            Coordinates               Weight
  0.000000  0.000000  0.000000      1.000000
  0.028953 -0.016716  0.000000      6.000000
  0.057906 -0.033432  0.000000      6.000000
  0.057906  0.000000  0.000000      6.000000
 -0.057906  0.066864  0.000000      6.000000
 
 TETIRR: Found     15 inequivalent tetrahedra from      150


--------------------------------------------------------------------------------------------------------




 Dimension of arrays:
   k-points           NKPTS =      5   k-points in BZ     NKDIM =      5   number of bands    NBANDS=     48
   number of dos      NEDOS =    301   number of ions     NIONS =     10
   non local maximal  LDIM  =      6   non local SUM 2l+1 LMDIM =     18
   total plane-waves  NPLWV = 524880
   max r-space proj   IRMAX =   7543   max aug-charges    IRDMAX=  31706
   dimension x,y,z NGX =    54 NGY =   54 NGZ =  180
   dimension x,y,z NGXF=   108 NGYF=  108 NGZF=  360
   support grid    NGXF=   108 NGYF=  108 NGZF=  360
   ions per type =               2   2   6
   NGX,Y,Z   is equivalent  to a cutoff of  13.00, 13.00, 12.76 a.u.
   NGXF,Y,Z  is equivalent  to a cutoff of  25.99, 25.99, 25.53 a.u.

 SYSTEM =  unknown system                          
 POSCAR =  Cr2 Ge2 Te6                             

 Startparameter for this run:
   NWRITE =      2    write-flag & timer
   PREC   = accura    normal or accurate (medium, high low for compatibility)
   ISTART =      0    job   : 0-new  1-cont  2-samecut
   ICHARG =      2    charge: 1-file 2-atom 10-const
   ISPIN  =      2    spin polarized calculation?
   LNONCOLLINEAR =      F non collinear calculations
   LSORBIT =      F    spin-orbit coupling
   INIWAV =      1    electr: 0-lowe 1-rand  2-diag
   LASPH  =      F    aspherical Exc in radial PAW
   METAGGA=      F    non-selfconsistent MetaGGA calc.

 Electronic Relaxation 1
   ENCUT  =  520.0 eV  38.22 Ry    6.18 a.u.  12.84 12.84 43.59*2*pi/ulx,y,z
   ENINI  =  520.0     initial cutoff
   ENAUG  =  402.1 eV  augmentation charge cutoff
   NELM   =    400;   NELMIN=  2; NELMDL=  0     # of ELM steps 
   EDIFF  = 0.1E-03   stopping-criterion for ELM
   LREAL  =      T    real-space projection
   NLSPLINE    = F    spline interpolate recip. space projectors
   LCOMPAT=      F    compatible to vasp.4.4
   GGA_COMPAT  = T    GGA compatible to vasp.4.4-vasp.4.6
   LMAXPAW     = -100 max onsite density
   LMAXMIX     =    2 max onsite mixed and CHGCAR
   VOSKOWN=      0    Vosko Wilk Nusair interpolation
   ROPT   =   -0.00025  -0.00025  -0.00025
 Ionic relaxation
   EDIFFG = 0.1E-02   stopping-criterion for IOM
   NSW    =     99    number of steps for IOM
   NBLOCK =      1;   KBLOCK =     99    inner block; outer block 
   IBRION =      2    ionic relax: 0-MD 1-quasi-New 2-CG
   NFREE  =      1    steps in history (QN), initial steepest desc. (CG)
   ISIF   =      3    stress and relaxation
   IWAVPR =     11    prediction:  0-non 1-charg 2-wave 3-comb
   ISYM   =      2    0-nonsym 1-usesym 2-fastsym
   LCORR  =      T    Harris-Foulkes like correction to forces

   POTIM  = 0.5000    time-step for ionic-motion
   TEIN   =    0.0    initial temperature
   TEBEG  =    0.0;   TEEND  =   0.0 temperature during run
   SMASS  =  -3.00    Nose mass-parameter (am)
   estimated Nose-frequenzy (Omega)   =  0.10E-29 period in steps =****** mass=  -0.109E-26a.u.
   SCALEE = 1.0000    scale energy and forces
   NPACO  =    256;   APACO  = 16.0  distance and # of slots for P.C.
   PSTRESS=    0.0 pullay stress

  Mass of Ions in am
   POMASS =  52.00 72.61127.60
  Ionic Valenz
   ZVAL   =   6.00  4.00  6.00
  Atomic Wigner-Seitz radii
   RWIGS  =  -1.00 -1.00 -1.00
  virtual crystal weights 
   VCA    =   1.00  1.00  1.00
   NELECT =      56.0000    total number of electrons
   NUPDOWN=      -1.0000    fix difference up-down

 DOS related values:
   EMIN   =  10.00;   EMAX   =-10.00  energy-range for DOS
   EFERMI =   0.00
   ISMEAR =    -5;   SIGMA  =   0.05  broadening in eV -4-tet -1-fermi 0-gaus

 Electronic relaxation 2 (details)
   IALGO  =     38    algorithm
   LDIAG  =      T    sub-space diagonalisation (order eigenvalues)
   LSUBROT=      F    optimize rotation matrix (better conditioning)
   TURBO    =      0    0=normal 1=particle mesh
   IRESTART =      0    0=no restart 2=restart with 2 vectors
   NREBOOT  =      0    no. of reboots
   NMIN     =      0    reboot dimension
   EREF     =   0.00    reference energy to select bands
   IMIX   =      4    mixing-type and parameters
     AMIX     =   0.40;   BMIX     =  1.00
     AMIX_MAG =   1.60;   BMIX_MAG =  1.00
     AMIN     =   0.01
     WC   =   100.;   INIMIX=   1;  MIXPRE=   1;  MAXMIX= -45

 Intra band minimization:
   WEIMIN = 0.0010     energy-eigenvalue tresh-hold
   EBREAK =  0.52E-06  absolut break condition
   DEPER  =   0.30     relativ break condition  

   TIME   =   0.40     timestep for ELM

  volume/ion in A,a.u.               =      96.88       653.80
  Fermi-wavevector in a.u.,A,eV,Ry     =   0.632976  1.196152  5.451299  0.400659
  Thomas-Fermi vector in A             =   1.696476

 Write flags
   LWAVE        =      F    write WAVECAR
   LDOWNSAMPLE  =      F    k-point downsampling of WAVECAR
   LCHARG       =      T    write CHGCAR
   LVTOT        =      F    write LOCPOT, total local potential
   LVHAR        =      F    write LOCPOT, Hartree potential only
   LELF         =      F    write electronic localiz. function (ELF)
   LORBIT       =     11    0 simple, 1 ext, 2 COOP (PROOUT), +10 PAW based schemes


 Dipole corrections
   LMONO  =      F    monopole corrections only (constant potential shift)
   LDIPOL =      F    correct potential (dipole corrections)
   IDIPOL =      0    1-x, 2-y, 3-z, 4-all directions 
   EPSILON=  1.0000000 bulk dielectric constant

 Exchange correlation treatment:
   GGA     =    BO    GGA type
   LEXCH   =    42    internal setting for exchange type
   VOSKOWN=      0    Vosko Wilk Nusair interpolation
   LHFCALC =     F    Hartree Fock is set to
   LHFONE  =     F    Hartree Fock one center treatment
   AEXX    =    0.0000 exact exchange contribution

 vdW DFT:
   LUSE_VDW   =     T    switch on vdW DFT
   Zab_VDW    =-.8491    correlation parameter
   PARAM1     =0.1833
   PARAM2     =0.2200
   PARAM3     =0.0000
   -- rVV10 --
   BPARAM     = 6.3000
   CPARAM     = 0.0093

 Linear response parameters
   LEPSILON=     F    determine dielectric tensor
   LRPA    =     F    only Hartree local field effects (RPA)
   LNABLA  =     F    use nabla operator in PAW spheres
   LVEL    =     F    velocity operator in full k-point grid
   LINTERFAST=   F  fast interpolation
   KINTER  =     0    interpolate to denser k-point grid
   CSHIFT  =0.1000    complex shift for real part using Kramers Kronig
   OMEGAMAX=  -1.0    maximum frequency
   DEG_THRESHOLD= 0.2000000E-02 threshold for treating states as degnerate
   RTIME   =   -0.100 relaxation time in fs
  (WPLASMAI=    0.000 imaginary part of plasma frequency in eV, 0.658/RTIME)
   DFIELD  = 0.0000000 0.0000000 0.0000000 field for delta impulse in time

 Orbital magnetization related:
   ORBITALMAG=     F  switch on orbital magnetization
   LCHIMAG   =     F  perturbation theory with respect to B field
   DQ        =  0.001000  dq finite difference perturbation B field
   LLRAUG    =     F  two centre corrections for induced B field



--------------------------------------------------------------------------------------------------------


 conjugate gradient relaxation of ions
 charge density and potential will be updated during run
 spin polarized calculation
 Variant of blocked Davidson
 Davidson routine will perform the subspace rotation
 perform sub-space diagonalisation
    after iterative eigenvector-optimisation
 modified Broyden-mixing scheme, WC =      100.0
 initial mixing is a Kerker type mixing with AMIX =  0.4000 and BMIX =      1.0000
 Hartree-type preconditioning will be used
 using additional bands           20
 real space projection scheme for non local part
 use partial core corrections
 calculate Harris-corrections to forces   (improved forces if not selfconsistent)
 use gradient corrections 
 use of overlap-Matrix (Vanderbilt PP)
 Fermi weights with tetrahedron method with Bloechl corrections


--------------------------------------------------------------------------------------------------------


  energy-cutoff  :      520.00
  volume of cell :      968.84
      direct lattice vectors                 reciprocal lattice vectors
     6.907777000 -0.000000000  0.000000000     0.144764372 -0.083579742  0.000000000
     3.453888000  5.982310000  0.000000000     0.000000000  0.167159509 -0.000000000
     0.000000000  0.000000000 23.444588000    -0.000000000  0.000000000  0.042653767

  length of vectors
     6.907777000  6.907776433 23.444588000     0.167159495  0.167159509  0.042653767



 k-points in units of 2pi/SCALE and weight: Kpoints from vasprun.xml                
   0.00000000  0.00000000  0.00000000       0.040
   0.02895287 -0.01671595  0.00000000       0.240
   0.05790575 -0.03343190  0.00000000       0.240
   0.05790575  0.00000000  0.00000000       0.240
  -0.05790575  0.06686380  0.00000000       0.240

 k-points in reciprocal lattice and weights: Kpoints from vasprun.xml                
   0.00000000  0.00000000  0.00000000       0.040
   0.20000000  0.00000000  0.00000000       0.240
   0.40000000  0.00000000  0.00000000       0.240
   0.40000000  0.20000000  0.00000000       0.240
  -0.40000000  0.20000000  0.00000000       0.240

 position of ions in fractional coordinates (direct lattice) 
   0.33333300  0.33333300  0.49992500
   0.66666700  0.66666700  0.50007500
   0.00000000  0.00000000  0.44821600
   0.00000000  0.00000000  0.55178400
   0.62635700  0.00042000  0.57375200
   0.00042000  0.37322400  0.57375200
   0.37322400  0.62635700  0.57375200
   0.37364300  0.99958000  0.42624800
   0.99958000  0.62677600  0.42624800
   0.62677600  0.37364300  0.42624800

 position of ions in cartesian coordinates  (Angst):
   3.45388488  1.99410134 11.72053566
   6.90778012  3.98820866 11.72405234
   0.00000000  0.00000000 10.50823946
   0.00000000  0.00000000 12.93634854
   4.32818511  0.00251257 13.45137925
   1.29197516  2.23274167 13.45137925
   4.74151509  3.74706174 13.45137925
   6.03347989  5.97979743  9.99320875
   9.06968984  3.74956833  9.99320875
   5.62014991  2.23524826  9.99320875



--------------------------------------------------------------------------------------------------------


 k-point  1 :   0.0000 0.0000 0.0000  plane waves:   26073
 k-point  2 :   0.2000 0.0000 0.0000  plane waves:   26070
 k-point  3 :   0.4000 0.0000 0.0000  plane waves:   26086
 k-point  4 :   0.4000 0.2000 0.0000  plane waves:   26085
 k-point  5 :  -0.4000 0.2000 0.0000  plane waves:   26115

 maximum and minimum number of plane-waves per node :     26115    26070

 maximum number of plane-waves:     26115
 maximum index in each direction: 
   IXMAX=   13   IYMAX=   12   IZMAX=   43
   IXMIN=  -13   IYMIN=  -13   IZMIN=  -43


 serial   3D FFT for wavefunctions
 parallel 3D FFT for charge:
    minimum data exchange during FFTs selected (reduces bandwidth)


 total amount of memory used by VASP MPI-rank0   128789. kBytes
=======================================================================

   base      :      30000. kBytes
   nonlr-proj:       8479. kBytes
   fftplans  :      11247. kBytes
   grid      :      66142. kBytes
   one-center:        311. kBytes
   wavefun   :      12610. kBytes

     INWAV:  cpu time    0.0000: real time    0.0004
 Broyden mixing: mesh for mixing (old mesh)
   NGX = 25   NGY = 25   NGZ = 87
  (NGX  =108   NGY  =108   NGZ  =360)
  gives a total of  54375 points

 initial charge density was supplied:
 charge density of overlapping atoms calculated
 number of electron      56.0000000 magnetization      10.8000000
 keeping initial charge density in first step


--------------------------------------------------------------------------------------------------------


 Maximum index for non-local projection operator         7247
 Maximum index for augmentation-charges         2278 (set IRDMAX)


--------------------------------------------------------------------------------------------------------


 First call to EWALD:  gamma=   0.179
 Maximum number of real-space cells 4x 4x 1
 Maximum number of reciprocal cells 2x 2x 6

    FEWALD:  cpu time    0.0040: real time    0.0014


--------------------------------------- Iteration      1(   1)  ---------------------------------------


vdW kernel read from vdw_kernel.bindat
  0.0000  0.2424  0.5071  0.7962  1.1119  1.4567  1.8333  2.2446  2.6937  3.1842
  3.7199  4.3049  4.9438  5.6415  6.4036  7.2358  8.1446  9.1372 10.2212 11.4050
 12.6979 14.1099 15.6519 17.3360 19.1751 21.1837 23.3773 25.7729 28.3892 31.2465
 34.3669 37.7748 41.4965 45.5611 50.0000

    POTLOK:  cpu time   52.2440: real time   52.6955
    SETDIJ:  cpu time    0.0680: real time    0.0681
     EDDAV:  cpu time   22.6920: real time   23.7363
 BZINTS: Fermi energy:  6.323514; 56.000000 electrons
         Band energy:  26.516574;  BLOECHL correction: -0.053125
       DOS:  cpu time    0.0040: real time    0.0048
    --------------------------------------------
      LOOP:  cpu time   75.0080: real time   76.5048

 eigenvalue-minimisations  :   960
 total energy-change (2. order) : 0.3751200E+03  (-0.1586583E+04)
 number of electron      56.0000000 magnetization      10.8000000
 augmentation part       56.0000000 magnetization      10.8000000

 Free energy of the ion-electron system (eV)
  ---------------------------------------------------
  alpha Z        PSCENC =        14.98434709
  Ewald energy   TEWEN  =      5985.89955237
  -Hartree energ DENC   =     -7849.09420520
  -exchange      EXHF   =         0.00000000
  -V(xc)+E(xc)   XCENC  =      -229.94839800
  PAW double counting   =      1163.71033225     -851.61454174
  entropy T*S    EENTRO =         0.00000000
  eigenvalues    EBANDS =        26.51657444
  atomic energy  EATOM  =      2114.66635543
  Solvation  Ediel_sol  =         0.00000000
  ---------------------------------------------------
  free energy    TOTEN  =       375.12001663 eV

  energy without entropy =      375.12001663  energy(sigma->0) =      375.12001663


--------------------------------------------------------------------------------------------------------




--------------------------------------- Iteration      1(   2)  ---------------------------------------


     EDDAV:  cpu time   26.3640: real time   26.5949
 BZINTS: Fermi energy: -0.652632; 56.000000 electrons
         Band energy:-339.713146;  BLOECHL correction: -0.054022
       DOS:  cpu time    0.0080: real time    0.0082
    --------------------------------------------
      LOOP:  cpu time   26.3720: real time   26.6031

 eigenvalue-minimisations  :  1104
 total energy-change (2. order) :-0.3662297E+03  (-0.3427565E+03)
 number of electron      56.0000000 magnetization      10.8000000
 augmentation part       56.0000000 magnetization      10.8000000

 Free energy of the ion-electron system (eV)
  ---------------------------------------------------
  alpha Z        PSCENC =        14.98434709
  Ewald energy   TEWEN  =      5985.89955237
  -Hartree energ DENC   =     -7849.09420520
  -exchange      EXHF   =         0.00000000
  -V(xc)+E(xc)   XCENC  =      -229.94839800
  PAW double counting   =      1163.71033225     -851.61454174
  entropy T*S    EENTRO =         0.00000000
  eigenvalues    EBANDS =      -339.71314640
  atomic energy  EATOM  =      2114.66635543
  Solvation  Ediel_sol  =         0.00000000
  ---------------------------------------------------
  free energy    TOTEN  =         8.89029579 eV

  energy without entropy =        8.89029579  energy(sigma->0) =        8.89029579


--------------------------------------------------------------------------------------------------------




--------------------------------------- Iteration      1(   3)  ---------------------------------------


     EDDAV:  cpu time   31.7200: real time   32.2666
 BZINTS: Fermi energy: -1.737999; 56.000000 electrons
         Band energy:-389.426083;  BLOECHL correction: -0.010904
       DOS:  cpu time    0.0080: real time    0.0049
    --------------------------------------------
      LOOP:  cpu time   31.7280: real time   32.2715

 eigenvalue-minimisations  :  1360
 total energy-change (2. order) :-0.4971294E+02  (-0.4861776E+02)
 number of electron      56.0000000 magnetization      10.8000000
 augmentation part       56.0000000 magnetization      10.8000000

 Free energy of the ion-electron system (eV)
  ---------------------------------------------------
  alpha Z        PSCENC =        14.98434709
  Ewald energy   TEWEN  =      5985.89955237
  -Hartree energ DENC   =     -7849.09420520
  -exchange      EXHF   =         0.00000000
  -V(xc)+E(xc)   XCENC  =      -229.94839800
  PAW double counting   =      1163.71033225     -851.61454174
  entropy T*S    EENTRO =         0.00000000
  eigenvalues    EBANDS =      -389.42608337
  atomic energy  EATOM  =      2114.66635543
  Solvation  Ediel_sol  =         0.00000000
  ---------------------------------------------------
  free energy    TOTEN  =       -40.82264117 eV

  energy without entropy =      -40.82264117  energy(sigma->0) =      -40.82264117


--------------------------------------------------------------------------------------------------------




--------------------------------------- Iteration      1(   4)  ---------------------------------------


     EDDAV:  cpu time   31.5760: real time   32.4260
 BZINTS: Fermi energy: -1.765745; 56.000000 electrons
         Band energy:-391.700380;  BLOECHL correction: -0.014116
       DOS:  cpu time    0.0200: real time    0.0211
    --------------------------------------------
      LOOP:  cpu time   31.5960: real time   32.4471

 eigenvalue-minimisations  :  1376
 total energy-change (2. order) :-0.2274297E+01  (-0.2259270E+01)
 number of electron      56.0000000 magnetization      10.8000000
 augmentation part       56.0000000 magnetization      10.8000000

 Free energy of the ion-electron system (eV)
  ---------------------------------------------------
  alpha Z        PSCENC =        14.98434709
  Ewald energy   TEWEN  =      5985.89955237
  -Hartree energ DENC   =     -7849.09420520
  -exchange      EXHF   =         0.00000000
  -V(xc)+E(xc)   XCENC  =      -229.94839800
  PAW double counting   =      1163.71033225     -851.61454174
  entropy T*S    EENTRO =         0.00000000
  eigenvalues    EBANDS =      -391.70038030
  atomic energy  EATOM  =      2114.66635543
  Solvation  Ediel_sol  =         0.00000000
  ---------------------------------------------------
  free energy    TOTEN  =       -43.09693810 eV

  energy without entropy =      -43.09693810  energy(sigma->0) =      -43.09693810


--------------------------------------------------------------------------------------------------------




--------------------------------------- Iteration      1(   5)  ---------------------------------------


     EDDAV:  cpu time   32.1640: real time   32.6558
 BZINTS: Fermi energy: -1.766981; 56.000000 electrons
         Band energy:-391.751856;  BLOECHL correction: -0.014092
       DOS:  cpu time    0.0040: real time    0.0056
    CHARGE:  cpu time    1.9440: real time    1.9855
    MIXING:  cpu time    0.0400: real time    0.0414
    --------------------------------------------
      LOOP:  cpu time   34.1520: real time   34.6884

 eigenvalue-minimisations  :  1392
 total energy-change (2. order) :-0.5147552E-01  (-0.5143254E-01)
 number of electron      56.0000001 magnetization      10.2536200
 augmentation part       -5.1784922 magnetization       7.4400012

 Broyden mixing:
  rms(total) = 0.13743E+01    rms(broyden)= 0.13743E+01
  rms(prec ) = 0.15027E+01
  weight for this iteration     100.00

 Free energy of the ion-electron system (eV)
  ---------------------------------------------------
  alpha Z        PSCENC =        14.98434709
  Ewald energy   TEWEN  =      5985.89955237
  -Hartree energ DENC   =     -7849.09420520
  -exchange      EXHF   =         0.00000000
  -V(xc)+E(xc)   XCENC  =      -229.94839800
  PAW double counting   =      1163.71033225     -851.61454174
  entropy T*S    EENTRO =         0.00000000
  eigenvalues    EBANDS =      -391.75185582
  atomic energy  EATOM  =      2114.66635543
  Solvation  Ediel_sol  =         0.00000000
  ---------------------------------------------------
  free energy    TOTEN  =       -43.14841362 eV

  energy without entropy =      -43.14841362  energy(sigma->0) =      -43.14841362


--------------------------------------------------------------------------------------------------------




--------------------------------------- Iteration      1(   6)  ---------------------------------------


    POTLOK:  cpu time   52.2720: real time   52.5691
    SETDIJ:  cpu time    0.0560: real time    0.0587
     EDDAV:  cpu time   32.8920: real time   33.2016
 BZINTS: Fermi energy: -3.855723; 56.000000 electrons
         Band energy:-439.203410;  BLOECHL correction: -0.023659
       DOS:  cpu time    0.0080: real time    0.0071
    CHARGE:  cpu time    1.7360: real time    1.9411
    MIXING:  cpu time    0.0440: real time    0.0415
    --------------------------------------------
      LOOP:  cpu time   87.0080: real time   87.8190

 eigenvalue-minimisations  :  1408
 total energy-change (2. order) :-0.1318398E+02  (-0.8683450E+01)
 number of electron      55.9999998 magnetization      10.0689723
 augmentation part        4.2342242 magnetization       8.3001657

 Broyden mixing:
  rms(total) = 0.44198E+01    rms(broyden)= 0.44198E+01
  rms(prec ) = 0.49603E+01
  weight for this iteration     100.00

 eigenvalues of (default mixing * dielectric matrix)
  average eigenvalue GAMMA=   0.2109
  0.2109

 Free energy of the ion-electron system (eV)
  ---------------------------------------------------
  alpha Z        PSCENC =        14.98434709
  Ewald energy   TEWEN  =      5985.89955237
  -Hartree energ DENC   =     -7819.96735877
  -exchange      EXHF   =         0.00000000
  -V(xc)+E(xc)   XCENC  =      -229.20964078
  PAW double counting   =      1143.50001556     -827.00225717
  entropy T*S    EENTRO =         0.00000000
  eigenvalues    EBANDS =      -439.20341020
  atomic energy  EATOM  =      2114.66635543
  Solvation  Ediel_sol  =         0.00000000
  ---------------------------------------------------
  free energy    TOTEN  =       -56.33239647 eV

  energy without entropy =      -56.33239647  energy(sigma->0) =      -56.33239647


--------------------------------------------------------------------------------------------------------




--------------------------------------- Iteration      1(   7)  ---------------------------------------


    POTLOK:  cpu time   52.6640: real time   53.0647
    SETDIJ:  cpu time    0.0520: real time    0.0534
     EDDAV:  cpu time   29.2480: real time   29.8855
 BZINTS: Fermi energy: -2.302286; 56.000000 electrons
         Band energy:-388.867437;  BLOECHL correction:  0.000000
       DOS:  cpu time    0.0000: real time    0.0036
    CHARGE:  cpu time    1.8520: real time    1.9491
    MIXING:  cpu time    0.0400: real time    0.0406
    --------------------------------------------
      LOOP:  cpu time   83.8560: real time   84.9969

 eigenvalue-minimisations  :  1264
 total energy-change (2. order) : 0.1597787E+02  (-0.1462753E+02)
 number of electron      56.0000001 magnetization       9.8417195
 augmentation part       -3.8539836 magnetization       7.4519156

 Broyden mixing:
  rms(total) = 0.94683E+00    rms(broyden)= 0.94676E+00
  rms(prec ) = 0.97711E+00
  weight for this iteration     100.00

 eigenvalues of (default mixing * dielectric matrix)
  average eigenvalue GAMMA=   0.3232
  0.4779  0.1685

 Free energy of the ion-electron system (eV)
  ---------------------------------------------------
  alpha Z        PSCENC =        14.98434709
  Ewald energy   TEWEN  =      5985.89955237
  -Hartree energ DENC   =     -7848.69267406
  -exchange      EXHF   =         0.00000000
  -V(xc)+E(xc)   XCENC  =      -229.86868676
  PAW double counting   =      1200.48769014     -888.96367480
  entropy T*S    EENTRO =         0.00000000
  eigenvalues    EBANDS =      -388.86743709
  atomic energy  EATOM  =      2114.66635543
  Solvation  Ediel_sol  =         0.00000000
  ---------------------------------------------------
  free energy    TOTEN  =       -40.35452767 eV

  energy without entropy =      -40.35452767  energy(sigma->0) =      -40.35452767


--------------------------------------------------------------------------------------------------------




--------------------------------------- Iteration      1(   8)  ---------------------------------------


    POTLOK:  cpu time   51.8080: real time   52.4650
    SETDIJ:  cpu time    0.0560: real time    0.0569
     EDDAV:  cpu time   27.0640: real time   27.5820
 BZINTS: Fermi energy: -2.420579; 56.000000 electrons
         Band energy:-388.928642;  BLOECHL correction:  0.000000
       DOS:  cpu time    0.0000: real time    0.0029
    CHARGE:  cpu time    1.9080: real time    1.9698
    MIXING:  cpu time    0.0440: real time    0.0433
    --------------------------------------------
      LOOP:  cpu time   80.8800: real time   82.1199

 eigenvalue-minimisations  :  1168
 total energy-change (2. order) :-0.1130225E+01  (-0.5176283E+00)
 number of electron      56.0000001 magnetization       8.9747583
 augmentation part       -4.1078902 magnetization       6.5422492

 Broyden mixing:
  rms(total) = 0.73945E+00    rms(broyden)= 0.73944E+00
  rms(prec ) = 0.79197E+00
  weight for this iteration     100.00

 eigenvalues of (default mixing * dielectric matrix)
  average eigenvalue GAMMA=   0.6485
  1.1849  0.2002  0.5604

 Free energy of the ion-electron system (eV)
  ---------------------------------------------------
  alpha Z        PSCENC =        14.98434709
  Ewald energy   TEWEN  =      5985.89955237
  -Hartree energ DENC   =     -7849.96110543
  -exchange      EXHF   =         0.00000000
  -V(xc)+E(xc)   XCENC  =      -229.24685517
  PAW double counting   =      1210.80708087     -899.70548554
  entropy T*S    EENTRO =         0.00000000
  eigenvalues    EBANDS =      -388.92864248
  atomic energy  EATOM  =      2114.66635543
  Solvation  Ediel_sol  =         0.00000000
  ---------------------------------------------------
  free energy    TOTEN  =       -41.48475286 eV

  energy without entropy =      -41.48475286  energy(sigma->0) =      -41.48475286


--------------------------------------------------------------------------------------------------------




--------------------------------------- Iteration      1(   9)  ---------------------------------------


    POTLOK:  cpu time   50.9920: real time   51.4364
    SETDIJ:  cpu time    0.0800: real time    0.0823
     EDDAV:  cpu time   29.9880: real time   30.6436
 BZINTS: Fermi energy: -2.358110; 56.000000 electrons
         Band energy:-386.315355;  BLOECHL correction:  0.000000
       DOS:  cpu time    0.0040: real time    0.0039
    CHARGE:  cpu time    1.8960: real time    1.8976
    MIXING:  cpu time    0.0400: real time    0.0415
    --------------------------------------------
      LOOP:  cpu time   83.0000: real time   84.1053

 eigenvalue-minimisations  :  1312
 total energy-change (2. order) : 0.1517242E+00  (-0.1310898E+00)
 number of electron      56.0000000 magnetization       8.3300342
 augmentation part       -3.4758219 magnetization       6.2954912

 Broyden mixing:
  rms(total) = 0.36648E+00    rms(broyden)= 0.36648E+00
  rms(prec ) = 0.37754E+00
  weight for this iteration     100.00

 eigenvalues of (default mixing * dielectric matrix)
  average eigenvalue GAMMA=   0.9543
  2.2286  0.9367  0.1985  0.4534

 Free energy of the ion-electron system (eV)
  ---------------------------------------------------
  alpha Z        PSCENC =        14.98434709
  Ewald energy   TEWEN  =      5985.89955237
  -Hartree energ DENC   =     -7852.94403011
  -exchange      EXHF   =         0.00000000
  -V(xc)+E(xc)   XCENC  =      -228.09848263
  PAW double counting   =      1240.78689687     -930.31231255
  entropy T*S    EENTRO =         0.00000000
  eigenvalues    EBANDS =      -386.31535517
  atomic energy  EATOM  =      2114.66635543
  Solvation  Ediel_sol  =         0.00000000
  ---------------------------------------------------
  free energy    TOTEN  =       -41.33302870 eV

  energy without entropy =      -41.33302870  energy(sigma->0) =      -41.33302870


--------------------------------------------------------------------------------------------------------




--------------------------------------- Iteration      1(  10)  ---------------------------------------


    POTLOK:  cpu time   50.7440: real time   51.2553
    SETDIJ:  cpu time    0.0520: real time    0.0526
     EDDAV:  cpu time   30.0400: real time   30.5535
 BZINTS: Fermi energy: -2.280637; 56.000000 electrons
         Band energy:-384.998715;  BLOECHL correction:  0.000000
       DOS:  cpu time    0.0000: real time    0.0036
    CHARGE:  cpu time    1.8520: real time    1.9032
    MIXING:  cpu time    0.0600: real time    0.0629
    --------------------------------------------
      LOOP:  cpu time   82.7480: real time   83.8312

 eigenvalue-minimisations  :  1312
 total energy-change (2. order) :-0.1694240E+00  (-0.4692692E-01)
 number of electron      56.0000000 magnetization       7.9015815
 augmentation part       -3.1186709 magnetization       6.1022658

 Broyden mixing:
  rms(total) = 0.18437E+00    rms(broyden)= 0.18437E+00
  rms(prec ) = 0.18644E+00
  weight for this iteration     100.00

 eigenvalues of (default mixing * dielectric matrix)
  average eigenvalue GAMMA=   1.0155
  2.4518  1.1991  0.1985  0.7226  0.5053

 Free energy of the ion-electron system (eV)
  ---------------------------------------------------
  alpha Z        PSCENC =        14.98434709
  Ewald energy   TEWEN  =      5985.89955237
  -Hartree energ DENC   =     -7854.97437369
  -exchange      EXHF   =         0.00000000
  -V(xc)+E(xc)   XCENC  =      -227.13320125
  PAW double counting   =      1249.35937479     -939.30579282
  entropy T*S    EENTRO =         0.00000000
  eigenvalues    EBANDS =      -384.99871462
  atomic energy  EATOM  =      2114.66635543
  Solvation  Ediel_sol  =         0.00000000
  ---------------------------------------------------
  free energy    TOTEN  =       -41.50245270 eV

  energy without entropy =      -41.50245270  energy(sigma->0) =      -41.50245270


--------------------------------------------------------------------------------------------------------




--------------------------------------- Iteration      1(  11)  ---------------------------------------


    POTLOK:  cpu time   50.8280: real time   51.2275
    SETDIJ:  cpu time    0.0560: real time    0.0565
     EDDAV:  cpu time   30.6120: real time   30.8654
 BZINTS: Fermi energy: -2.327906; 56.000000 electrons
         Band energy:-384.882366;  BLOECHL correction:  0.000000
       DOS:  cpu time    0.0000: real time    0.0038
    CHARGE:  cpu time    1.9320: real time    1.9334
    MIXING:  cpu time    0.0440: real time    0.0430
    --------------------------------------------
      LOOP:  cpu time   83.4720: real time   84.1297

 eigenvalue-minimisations  :  1328
 total energy-change (2. order) :-0.1133665E+00  (-0.5875238E-02)
 number of electron      56.0000000 magnetization       7.1265818
 augmentation part       -3.1076453 magnetization       5.4253571

 Broyden mixing:
  rms(total) = 0.11161E+00    rms(broyden)= 0.11161E+00
  rms(prec ) = 0.11394E+00
  weight for this iteration     100.00

 eigenvalues of (default mixing * dielectric matrix)
  average eigenvalue GAMMA=   1.3027
  3.1489  2.2978  0.1985  0.9817  0.4860  0.7033

 Free energy of the ion-electron system (eV)
  ---------------------------------------------------
  alpha Z        PSCENC =        14.98434709
  Ewald energy   TEWEN  =      5985.89955237
  -Hartree energ DENC   =     -7855.57710959
  -exchange      EXHF   =         0.00000000
  -V(xc)+E(xc)   XCENC  =      -226.67549520
  PAW double counting   =      1244.60502135     -934.63612437
  entropy T*S    EENTRO =         0.00000000
  eigenvalues    EBANDS =      -384.88236631
  atomic energy  EATOM  =      2114.66635543
  Solvation  Ediel_sol  =         0.00000000
  ---------------------------------------------------
  free energy    TOTEN  =       -41.61581924 eV

  energy without entropy =      -41.61581924  energy(sigma->0) =      -41.61581924


--------------------------------------------------------------------------------------------------------




--------------------------------------- Iteration      1(  12)  ---------------------------------------


    POTLOK:  cpu time   50.7600: real time   51.1561
    SETDIJ:  cpu time    0.1040: real time    0.1013
     EDDAV:  cpu time   27.2240: real time   27.8069
 BZINTS: Fermi energy: -2.368258; 56.000000 electrons
         Band energy:-384.296858;  BLOECHL correction:  0.000000
       DOS:  cpu time    0.0040: real time    0.0020
    CHARGE:  cpu time    1.9560: real time    1.9557
    MIXING:  cpu time    0.0400: real time    0.0437
    --------------------------------------------
      LOOP:  cpu time   80.0880: real time   81.0659

 eigenvalue-minimisations  :  1184
 total energy-change (2. order) :-0.7706756E-01  (-0.5277012E-02)
 number of electron      56.0000000 magnetization       6.7804125
 augmentation part       -3.1088174 magnetization       5.1445453

 Broyden mixing:
  rms(total) = 0.13857E+00    rms(broyden)= 0.13857E+00
  rms(prec ) = 0.14083E+00
  weight for this iteration     100.00

 eigenvalues of (default mixing * dielectric matrix)
  average eigenvalue GAMMA=   1.2872
  3.5555  2.2039  0.1985  1.0847  0.4806  0.7768  0.7106

 Free energy of the ion-electron system (eV)
  ---------------------------------------------------
  alpha Z        PSCENC =        14.98434709
  Ewald energy   TEWEN  =      5985.89955237
  -Hartree energ DENC   =     -7856.63440612
  -exchange      EXHF   =         0.00000000
  -V(xc)+E(xc)   XCENC  =      -226.02955083
  PAW double counting   =      1239.35221546     -929.63454171
  entropy T*S    EENTRO =         0.00000000
  eigenvalues    EBANDS =      -384.29685849
  atomic energy  EATOM  =      2114.66635543
  Solvation  Ediel_sol  =         0.00000000
  ---------------------------------------------------
  free energy    TOTEN  =       -41.69288680 eV

  energy without entropy =      -41.69288680  energy(sigma->0) =      -41.69288680


--------------------------------------------------------------------------------------------------------




--------------------------------------- Iteration      1(  13)  ---------------------------------------


    POTLOK:  cpu time   51.1520: real time   51.3482
    SETDIJ:  cpu time    0.0840: real time    0.0850
     EDDAV:  cpu time   24.4520: real time   24.7607
 BZINTS: Fermi energy: -2.313711; 56.000000 electrons
         Band energy:-383.917954;  BLOECHL correction:  0.000000
       DOS:  cpu time    0.0000: real time    0.0038
    CHARGE:  cpu time    1.8160: real time    1.9012
    MIXING:  cpu time    0.0600: real time    0.0611
    --------------------------------------------
      LOOP:  cpu time   77.5640: real time   78.1600

 eigenvalue-minimisations  :  1024
 total energy-change (2. order) :-0.3772537E-01  (-0.1616850E-02)
 number of electron      56.0000000 magnetization       6.3940073
 augmentation part       -3.1195086 magnetization       4.7542188

 Broyden mixing:
  rms(total) = 0.10324E+00    rms(broyden)= 0.10324E+00
  rms(prec ) = 0.10568E+00
  weight for this iteration     100.00

 eigenvalues of (default mixing * dielectric matrix)
  average eigenvalue GAMMA=   1.4748
  4.9240  1.8821  1.8821  0.1985  0.9536  0.4836  0.8273  0.6472

 Free energy of the ion-electron system (eV)
  ---------------------------------------------------
  alpha Z        PSCENC =        14.98434709
  Ewald energy   TEWEN  =      5985.89955237
  -Hartree energ DENC   =     -7856.96172005
  -exchange      EXHF   =         0.00000000
  -V(xc)+E(xc)   XCENC  =      -226.17305927
  PAW double counting   =      1239.59626698     -929.82440099
  entropy T*S    EENTRO =         0.00000000
  eigenvalues    EBANDS =      -383.91795373
  atomic energy  EATOM  =      2114.66635543
  Solvation  Ediel_sol  =         0.00000000
  ---------------------------------------------------
  free energy    TOTEN  =       -41.73061217 eV

  energy without entropy =      -41.73061217  energy(sigma->0) =      -41.73061217


--------------------------------------------------------------------------------------------------------




--------------------------------------- Iteration      1(  14)  ---------------------------------------


    POTLOK:  cpu time   50.9360: real time   51.1771
    SETDIJ:  cpu time    0.0560: real time    0.0532
     EDDAV:  cpu time   24.5880: real time   24.8400
 BZINTS: Fermi energy: -2.299793; 56.000000 electrons
         Band energy:-383.158629;  BLOECHL correction:  0.000000
       DOS:  cpu time    0.0040: real time    0.0036
    CHARGE:  cpu time    1.9120: real time    1.9118
    MIXING:  cpu time    0.0680: real time    0.0704
    --------------------------------------------
      LOOP:  cpu time   77.5640: real time   78.0560

 eigenvalue-minimisations  :  1040
 total energy-change (2. order) :-0.3200516E-01  (-0.7423284E-03)
 number of electron      56.0000000 magnetization       6.1582793
 augmentation part       -3.1302835 magnetization       4.4973571

 Broyden mixing:
  rms(total) = 0.71592E-01    rms(broyden)= 0.71592E-01
  rms(prec ) = 0.74261E-01
  weight for this iteration     100.00

 eigenvalues of (default mixing * dielectric matrix)
  average eigenvalue GAMMA=   1.7237
  6.9640  2.2277  2.2277  0.1985  1.0379  1.0379  0.4829  0.7126  0.6238

 Free energy of the ion-electron system (eV)
  ---------------------------------------------------
  alpha Z        PSCENC =        14.98434709
  Ewald energy   TEWEN  =      5985.89955237
  -Hartree energ DENC   =     -7857.59889260
  -exchange      EXHF   =         0.00000000
  -V(xc)+E(xc)   XCENC  =      -226.34464743
  PAW double counting   =      1239.72969348     -929.94039661
  entropy T*S    EENTRO =         0.00000000
  eigenvalues    EBANDS =      -383.15862906
  atomic energy  EATOM  =      2114.66635543
  Solvation  Ediel_sol  =         0.00000000
  ---------------------------------------------------
  free energy    TOTEN  =       -41.76261734 eV

  energy without entropy =      -41.76261734  energy(sigma->0) =      -41.76261734


--------------------------------------------------------------------------------------------------------




--------------------------------------- Iteration      1(  15)  ---------------------------------------


    POTLOK:  cpu time   50.9320: real time   51.3150
    SETDIJ:  cpu time    0.0560: real time    0.0523
     EDDAV:  cpu time   24.7200: real time   24.9346
 BZINTS: Fermi energy: -2.339191; 56.000000 electrons
         Band energy:-382.253396;  BLOECHL correction:  0.000000
       DOS:  cpu time    0.0000: real time    0.0033
    CHARGE:  cpu time    1.9440: real time    1.9422
    MIXING:  cpu time    0.0600: real time    0.0623
    --------------------------------------------
      LOOP:  cpu time   77.7120: real time   78.3097

 eigenvalue-minimisations  :  1040
 total energy-change (2. order) :-0.3342597E-02  (-0.5753377E-03)
 number of electron      56.0000000 magnetization       6.0405800
 augmentation part       -3.1472756 magnetization       4.3545838

 Broyden mixing:
  rms(total) = 0.39872E-01    rms(broyden)= 0.39872E-01
  rms(prec ) = 0.41975E-01
  weight for this iteration     100.00

 eigenvalues of (default mixing * dielectric matrix)
  average eigenvalue GAMMA=   1.8609
  8.3720  2.4018  2.4018  1.5658  0.1985  0.9188  0.9188  0.4831  0.7201  0.6284

 Free energy of the ion-electron system (eV)
  ---------------------------------------------------
  alpha Z        PSCENC =        14.98434709
  Ewald energy   TEWEN  =      5985.89955237
  -Hartree energ DENC   =     -7858.37910456
  -exchange      EXHF   =         0.00000000
  -V(xc)+E(xc)   XCENC  =      -226.51222929
  PAW double counting   =      1240.41026021     -930.58174520
  entropy T*S    EENTRO =         0.00000000
  eigenvalues    EBANDS =      -382.25339598
  atomic energy  EATOM  =      2114.66635543
  Solvation  Ediel_sol  =         0.00000000
  ---------------------------------------------------
  free energy    TOTEN  =       -41.76595993 eV

  energy without entropy =      -41.76595993  energy(sigma->0) =      -41.76595993


--------------------------------------------------------------------------------------------------------




--------------------------------------- Iteration      1(  16)  ---------------------------------------


    POTLOK:  cpu time   51.0160: real time   51.3457
    SETDIJ:  cpu time    0.0560: real time    0.0540
     EDDAV:  cpu time   26.3080: real time   26.8426
 BZINTS: Fermi energy: -2.270428; 56.000000 electrons
         Band energy:-381.482248;  BLOECHL correction:  0.000000
       DOS:  cpu time    0.0040: real time    0.0036
    CHARGE:  cpu time    1.9200: real time    1.9479
    MIXING:  cpu time    0.0480: real time    0.0477
    --------------------------------------------
      LOOP:  cpu time   79.3520: real time   80.2415

 eigenvalue-minimisations  :  1136
 total energy-change (2. order) :-0.3624152E-03  (-0.3275689E-03)
 number of electron      56.0000000 magnetization       6.0089735
 augmentation part       -3.1661579 magnetization       4.2992794

 Broyden mixing:
  rms(total) = 0.12609E-01    rms(broyden)= 0.12609E-01
  rms(prec ) = 0.14127E-01
  weight for this iteration     100.00

 eigenvalues of (default mixing * dielectric matrix)
  average eigenvalue GAMMA=   1.8983
  9.0670  2.6306  2.6306  1.7067  0.1985  1.0343  1.0343  0.4830  0.7837  0.6904
  0.6219

 Free energy of the ion-electron system (eV)
  ---------------------------------------------------
  alpha Z        PSCENC =        14.98434709
  Ewald energy   TEWEN  =      5985.89955237
  -Hartree energ DENC   =     -7859.04519401
  -exchange      EXHF   =         0.00000000
  -V(xc)+E(xc)   XCENC  =      -226.66231634
  PAW double counting   =      1240.71457042     -930.84138923
  entropy T*S    EENTRO =         0.00000000
  eigenvalues    EBANDS =      -381.48224808
  atomic energy  EATOM  =      2114.66635543
  Solvation  Ediel_sol  =         0.00000000
  ---------------------------------------------------
  free energy    TOTEN  =       -41.76632235 eV

  energy without entropy =      -41.76632235  energy(sigma->0) =      -41.76632235


--------------------------------------------------------------------------------------------------------




--------------------------------------- Iteration      1(  17)  ---------------------------------------


    POTLOK:  cpu time   50.8680: real time   51.2308
    SETDIJ:  cpu time    0.0800: real time    0.0809
     EDDAV:  cpu time   26.1840: real time   26.5622
 BZINTS: Fermi energy: -2.267749; 56.000000 electrons
         Band energy:-381.098384;  BLOECHL correction:  0.000000
       DOS:  cpu time    0.0000: real time    0.0035
    CHARGE:  cpu time    1.8640: real time    1.9221
    MIXING:  cpu time    0.0480: real time    0.0485
    --------------------------------------------
      LOOP:  cpu time   79.0440: real time   79.8480

 eigenvalue-minimisations  :  1120
 total energy-change (2. order) :-0.3185804E-03  (-0.8325222E-04)
 number of electron      56.0000000 magnetization       6.0019362
 augmentation part       -3.1743513 magnetization       4.2821996

 Broyden mixing:
  rms(total) = 0.34374E-02    rms(broyden)= 0.34372E-02
  rms(prec ) = 0.55697E-02
  weight for this iteration     100.00

 eigenvalues of (default mixing * dielectric matrix)
  average eigenvalue GAMMA=   1.8786
  9.2596  2.7512  2.7512  1.5876  1.5421  0.1985  0.9622  0.9622  0.4830  0.7511
  0.6714  0.6232

 Free energy of the ion-electron system (eV)
  ---------------------------------------------------
  alpha Z        PSCENC =        14.98434709
  Ewald energy   TEWEN  =      5985.89955237
  -Hartree energ DENC   =     -7859.39668987
  -exchange      EXHF   =         0.00000000
  -V(xc)+E(xc)   XCENC  =      -226.71311116
  PAW double counting   =      1240.77636892     -930.88508003
  entropy T*S    EENTRO =         0.00000000
  eigenvalues    EBANDS =      -381.09838367
  atomic energy  EATOM  =      2114.66635543
  Solvation  Ediel_sol  =         0.00000000
  ---------------------------------------------------
  free energy    TOTEN  =       -41.76664093 eV

  energy without entropy =      -41.76664093  energy(sigma->0) =      -41.76664093


--------------------------------------------------------------------------------------------------------




--------------------------------------- Iteration      1(  18)  ---------------------------------------


    POTLOK:  cpu time   51.0880: real time   51.4350
    SETDIJ:  cpu time    0.0640: real time    0.0650
     EDDAV:  cpu time   22.1280: real time   22.4175
 BZINTS: Fermi energy: -2.282009; 56.000000 electrons
         Band energy:-380.872316;  BLOECHL correction:  0.000000
       DOS:  cpu time    0.0040: real time    0.0038
    CHARGE:  cpu time    1.8040: real time    1.9110
    MIXING:  cpu time    0.0520: real time    0.0517
    --------------------------------------------
      LOOP:  cpu time   75.1400: real time   75.8839

 eigenvalue-minimisations  :   912
 total energy-change (2. order) :-0.5382312E-03  (-0.3276154E-04)
 number of electron      56.0000000 magnetization       5.9995657
 augmentation part       -3.1772578 magnetization       4.2776893

 Broyden mixing:
  rms(total) = 0.14193E-02    rms(broyden)= 0.14192E-02
  rms(prec ) = 0.41500E-02
  weight for this iteration     100.00

 eigenvalues of (default mixing * dielectric matrix)
  average eigenvalue GAMMA=   1.8499
  9.3239  2.9333  2.6525  1.8104  1.8104  0.1985  1.0131  1.0131  0.4830  0.8151
  0.7184  0.6233  0.6541

 Free energy of the ion-electron system (eV)
  ---------------------------------------------------
  alpha Z        PSCENC =        14.98434709
  Ewald energy   TEWEN  =      5985.89955237
  -Hartree energ DENC   =     -7859.62564438
  -exchange      EXHF   =         0.00000000
  -V(xc)+E(xc)   XCENC  =      -226.71974411
  PAW double counting   =      1240.55106354     -930.65079282
  entropy T*S    EENTRO =         0.00000000
  eigenvalues    EBANDS =      -380.87231629
  atomic energy  EATOM  =      2114.66635543
  Solvation  Ediel_sol  =         0.00000000
  ---------------------------------------------------
  free energy    TOTEN  =       -41.76717916 eV

  energy without entropy =      -41.76717916  energy(sigma->0) =      -41.76717916


--------------------------------------------------------------------------------------------------------




--------------------------------------- Iteration      1(  19)  ---------------------------------------


    POTLOK:  cpu time   51.0120: real time   51.2079
    SETDIJ:  cpu time    0.0520: real time    0.0519
     EDDAV:  cpu time   21.8440: real time   21.9381
 BZINTS: Fermi energy: -2.287146; 56.000000 electrons
         Band energy:-380.668154;  BLOECHL correction:  0.000000
       DOS:  cpu time    0.0000: real time    0.0013
    --------------------------------------------
      LOOP:  cpu time   72.9080: real time   73.1992

 eigenvalue-minimisations  :   880
 total energy-change (2. order) :-0.9921176E-04  (-0.1227862E-04)
 number of electron      56.0000000 magnetization       5.9995657
 augmentation part       -3.1772578 magnetization       4.2776893

 Free energy of the ion-electron system (eV)
  ---------------------------------------------------
  alpha Z        PSCENC =        14.98434709
  Ewald energy   TEWEN  =      5985.89955237
  -Hartree energ DENC   =     -7859.83204410
  -exchange      EXHF   =         0.00000000
  -V(xc)+E(xc)   XCENC  =      -226.72126619
  PAW double counting   =      1240.36490008     -930.46096895
  entropy T*S    EENTRO =         0.00000000
  eigenvalues    EBANDS =      -380.66815410
  atomic energy  EATOM  =      2114.66635543
  Solvation  Ediel_sol  =         0.00000000
  ---------------------------------------------------
  free energy    TOTEN  =       -41.76727837 eV

  energy without entropy =      -41.76727837  energy(sigma->0) =      -41.76727837


--------------------------------------------------------------------------------------------------------




 average (electrostatic) potential at core
  the test charge radii are     1.1394  1.1631  1.1897
  (the norm of the test charge is              1.0000)
       1 -50.7498       2 -50.7498       3 -39.2204       4 -39.2204       5 -96.5309
       6 -96.5309       7 -96.5309       8 -96.5309       9 -96.5309      10 -96.5309



 E-fermi :  -2.2871     XC(G=0):  -3.6122     alpha+bet : -3.0390


 spin component 1

 k-point     1 :       0.0000    0.0000    0.0000
  band No.  band energies     occupation 
      1     -14.7963      1.00000
      2     -13.8572      1.00000
      3     -12.7983      1.00000
      4     -12.7982      1.00000
      5     -12.7405      1.00000
      6     -12.7405      1.00000
      7     -11.1107      1.00000
      8      -9.0524      1.00000
      9      -6.7276      1.00000
     10      -6.6810      1.00000
     11      -6.6809      1.00000
     12      -6.5657      1.00000
     13      -6.2491      1.00000
     14      -6.2491      1.00000
     15      -5.4569      1.00000
     16      -4.6157      1.00000
     17      -4.6157      1.00000
     18      -4.3129      1.00000
     19      -4.3129      1.00000
     20      -4.1692      1.00000
     21      -3.6265      1.00000
     22      -3.6182      1.00000
     23      -3.6182      1.00000
     24      -3.3567      1.00000
     25      -3.3567      1.00000
     26      -3.3452      1.00000
     27      -3.2704      1.00000
     28      -3.2704      1.00000
     29      -2.9523      1.00000
     30      -2.3156      1.00000
     31      -2.3156      1.00000
     32      -1.2615      0.00000
     33      -1.2615      0.00000
     34      -0.8061      0.00000
     35      -0.5595      0.00000
     36      -0.5595      0.00000
     37      -0.5180      0.00000
     38       1.0177      0.00000
     39       1.0177      0.00000
     40       1.6116      0.00000
     41       1.6688      0.00000
     42       2.0403      0.00000
     43       2.1687      0.00000
     44       2.1979      0.00000
     45       2.1979      0.00000
     46       2.4261      0.00000
     47       3.0520      0.00000
     48       3.0520      0.00000

 k-point     2 :       0.2000    0.0000    0.0000
  band No.  band energies     occupation 
      1     -14.6748      1.00000
      2     -13.7628      1.00000
      3     -13.0608      1.00000
      4     -12.9016      1.00000
      5     -12.8395      1.00000
      6     -12.7893      1.00000
      7     -10.9157      1.00000
      8      -9.0882      1.00000
      9      -6.8748      1.00000
     10      -6.6757      1.00000
     11      -6.4894      1.00000
     12      -6.2375      1.00000
     13      -5.8652      1.00000
     14      -5.7137      1.00000
     15      -5.2395      1.00000
     16      -4.7662      1.00000
     17      -4.7524      1.00000
     18      -4.6065      1.00000
     19      -4.1795      1.00000
     20      -4.0823      1.00000
     21      -3.9519      1.00000
     22      -3.9458      1.00000
     23      -3.5152      1.00000
     24      -3.5074      1.00000
     25      -3.4398      1.00000
     26      -3.3413      1.00000
     27      -3.2244      1.00000
     28      -3.1989      1.00000
     29      -3.1393      1.00000
     30      -2.7617      1.00000
     31      -2.5510      1.00000
     32      -1.5304      0.00000
     33      -1.1841      0.00000
     34      -1.1093      0.00000
     35      -0.8205      0.00000
     36      -0.1202      0.00000
     37      -0.0492      0.00000
     38       1.0119      0.00000
     39       1.0342      0.00000
     40       1.7533      0.00000
     41       1.8145      0.00000
     42       1.8447      0.00000
     43       2.1124      0.00000
     44       2.2793      0.00000
     45       2.2930      0.00000
     46       2.5956      0.00000
     47       2.9073      0.00000
     48       3.0792      0.00000

 k-point     3 :       0.4000    0.0000    0.0000
  band No.  band energies     occupation 
      1     -14.3616      1.00000
      2     -13.5872      1.00000
      3     -13.5261      1.00000
      4     -13.0655      1.00000
      5     -12.9639      1.00000
      6     -12.9495      1.00000
      7     -10.6530      1.00000
      8      -9.0997      1.00000
      9      -6.7191      1.00000
     10      -6.5077      1.00000
     11      -6.0650      1.00000
     12      -5.6338      1.00000
     13      -5.2706      1.00000
     14      -5.2185      1.00000
     15      -5.2092      1.00000
     16      -5.0810      1.00000
     17      -4.8643      1.00000
     18      -4.8511      1.00000
     19      -4.4639      1.00000
     20      -4.3957      1.00000
     21      -4.3363      1.00000
     22      -3.8439      1.00000
     23      -3.6829      1.00000
     24      -3.6788      1.00000
     25      -3.4641      1.00000
     26      -3.3852      1.00000
     27      -3.3840      1.00000
     28      -3.0795      1.00000
     29      -3.0225      1.00000
     30      -2.9573      1.00000
     31      -2.9023      1.00000
     32      -1.5314      0.00000
     33      -1.3794      0.00000
     34      -1.1597      0.00000
     35      -1.0006      0.00000
     36      -0.5255      0.00000
     37      -0.2367      0.00000
     38       0.8597      0.00000
     39       1.4260      0.00000
     40       1.5866      0.00000
     41       1.7496      0.00000
     42       1.9599      0.00000
     43       1.9723      0.00000
     44       2.3581      0.00000
     45       2.6177      0.00000
     46       2.8608      0.00000
     47       3.0329      0.00000
     48       3.1127      0.00000

 k-point     4 :       0.4000    0.2000    0.0000
  band No.  band energies     occupation 
      1     -14.4517      1.00000
      2     -13.5942      1.00000
      3     -13.3456      1.00000
      4     -13.1790      1.00000
      5     -12.9600      1.00000
      6     -12.8596      1.00000
      7     -10.6769      1.00000
      8      -9.0830      1.00000
      9      -6.8979      1.00000
     10      -6.4119      1.00000
     11      -6.2676      1.00000
     12      -5.8435      1.00000
     13      -5.2688      1.00000
     14      -5.1938      1.00000
     15      -5.1131      1.00000
     16      -5.0332      1.00000
     17      -4.9605      1.00000
     18      -4.7338      1.00000
     19      -4.6453      1.00000
     20      -4.3183      1.00000
     21      -4.2888      1.00000
     22      -3.7873      1.00000
     23      -3.5846      1.00000
     24      -3.5679      1.00000
     25      -3.4586      1.00000
     26      -3.3695      1.00000
     27      -3.3083      1.00000
     28      -3.1942      1.00000
     29      -3.0431      1.00000
     30      -2.8798      1.00000
     31      -2.7868      1.00000
     32      -1.7805      0.00000
     33      -1.1362      0.00000
     34      -1.1143      0.00000
     35      -0.8197      0.00000
     36      -0.5316      0.00000
     37      -0.2141      0.00000
     38       0.8939      0.00000
     39       0.9157      0.00000
     40       1.5913      0.00000
     41       1.6707      0.00000
     42       1.9075      0.00000
     43       2.2324      0.00000
     44       2.2561      0.00000
     45       2.5434      0.00000
     46       2.9158      0.00000
     47       2.9719      0.00000
     48       3.1186      0.00000

 k-point     5 :      -0.4000    0.2000    0.0000
  band No.  band energies     occupation 
      1     -14.2021      1.00000
      2     -13.6507      1.00000
      3     -13.4138      1.00000
      4     -13.3039      1.00000
      5     -13.0944      1.00000
      6     -12.9418      1.00000
      7     -10.5264      1.00000
      8      -9.0510      1.00000
      9      -6.6747      1.00000
     10      -6.2052      1.00000
     11      -6.1779      1.00000
     12      -5.7618      1.00000
     13      -5.5368      1.00000
     14      -5.3457      1.00000
     15      -5.1163      1.00000
     16      -4.7403      1.00000
     17      -4.7129      1.00000
     18      -4.6761      1.00000
     19      -4.6653      1.00000
     20      -4.5147      1.00000
     21      -4.2840      1.00000
     22      -3.9770      1.00000
     23      -3.6530      1.00000
     24      -3.5204      1.00000
     25      -3.4867      1.00000
     26      -3.2810      1.00000
     27      -3.2429      1.00000
     28      -3.1143      1.00000
     29      -3.0695      1.00000
     30      -3.0021      1.00000
     31      -2.9191      1.00000
     32      -1.4416      0.00000
     33      -1.3762      0.00000
     34      -1.3224      0.00000
     35      -0.9744      0.00000
     36      -0.7839      0.00000
     37      -0.2872      0.00000
     38       0.4802      0.00000
     39       0.8269      0.00000
     40       1.3431      0.00000
     41       1.4919      0.00000
     42       1.6368      0.00000
     43       2.4700      0.00000
     44       2.7266      0.00000
     45       2.7740      0.00000
     46       2.8896      0.00000
     47       2.9424      0.00000
     48       3.5202      0.00000

 spin component 2

 k-point     1 :       0.0000    0.0000    0.0000
  band No.  band energies     occupation 
      1     -14.8034      1.00000
      2     -13.9129      1.00000
      3     -12.8684      1.00000
      4     -12.8684      1.00000
      5     -12.8095      1.00000
      6     -12.8095      1.00000
      7     -11.0593      1.00000
      8      -9.0078      1.00000
      9      -6.5660      1.00000
     10      -6.5660      1.00000
     11      -6.4249      1.00000
     12      -6.3715      1.00000
     13      -6.1468      1.00000
     14      -6.1468      1.00000
     15      -5.4224      1.00000
     16      -4.0429      1.00000
     17      -4.0429      1.00000
     18      -3.7642      1.00000
     19      -3.7641      1.00000
     20      -3.6717      1.00000
     21      -3.6474      1.00000
     22      -3.2865      1.00000
     23      -3.2865      1.00000
     24      -2.3260      1.00000
     25      -2.3260      1.00000
     26      -1.0337      0.00000
     27      -0.8001      0.00000
     28      -0.7759      0.00000
     29      -0.7759      0.00000
     30      -0.5552      0.00000
     31      -0.5552      0.00000
     32      -0.4926      0.00000
     33      -0.1336      0.00000
     34      -0.0141      0.00000
     35      -0.0141      0.00000
[...]
     34       0.1712      0.00000
     35       0.1862      0.00000
     36       0.2771      0.00000
     37       0.5559      0.00000
     38       1.0698      0.00000
     39       1.0912      0.00000
     40       1.8262      0.00000
     41       1.9081      0.00000
     42       2.1117      0.00000
     43       2.3261      0.00000
     44       2.5668      0.00000
     45       2.6667      0.00000
     46       2.8802      0.00000
     47       3.2236      0.00000
     48       3.3413      0.00000

 k-point     5 :      -0.4000    0.2000    0.0000
  band No.  band energies     occupation 
      1     -14.1700      1.00000
      2     -13.6411      1.00000
      3     -13.4181      1.00000
      4     -13.3111      1.00000
      5     -13.1313      1.00000
      6     -12.9760      1.00000
      7     -10.5012      1.00000
      8      -8.9667      1.00000
      9      -6.4635      1.00000
     10      -6.0722      1.00000
     11      -5.9555      1.00000
     12      -5.5806      1.00000
     13      -5.3904      1.00000
     14      -5.0872      1.00000
     15      -4.7186      1.00000
     16      -4.5454      1.00000
     17      -4.3569      1.00000
     18      -4.2750      1.00000
     19      -4.0857      1.00000
     20      -3.9848      1.00000
     21      -3.7371      1.00000
     22      -3.4062      1.00000
     23      -3.2622      1.00000
     24      -3.2573      1.00000
     25      -3.1723      1.00000
     26      -1.8807      0.00000
     27      -1.3364      0.00000
     28      -0.9703      0.00000
     29      -0.9539      0.00000
     30      -0.4729      0.00000
     31      -0.4060      0.00000
     32      -0.4010      0.00000
     33      -0.0339      0.00000
     34      -0.0328      0.00000
     35       0.2894      0.00000
     36       0.3658      0.00000
     37       0.6212      0.00000
     38       0.7103      0.00000
     39       1.1283      0.00000
     40       1.6592      0.00000
     41       1.7969      0.00000
     42       1.8685      0.00000
     43       2.7777      0.00000
     44       2.8033      0.00000
     45       2.8554      0.00000
     46       2.9631      0.00000
     47       3.0984      0.00000
     48       3.5146      0.00000


--------------------------------------------------------------------------------------------------------


 soft charge-density along one line, spin component           1
         0         1         2         3         4         5         6         7         8         9
 total charge-density along one line

 soft charge-density along one line, spin component           2
         0         1         2         3         4         5         6         7         8         9
 total charge-density along one line

 pseudopotential strength for first ion, spin component:           1
 -8.565   0.090  -0.000  -0.000  -0.000   0.622  -0.024   0.000
  0.090  -8.494   0.000  -0.000  -0.000  -0.024   0.602  -0.000
 -0.000   0.000  -8.641   0.000   0.000   0.000  -0.000   0.642
 -0.000  -0.000   0.000  -8.494  -0.090   0.000   0.000  -0.000
 -0.000  -0.000   0.000  -0.090  -8.565   0.000   0.000  -0.000
  0.622  -0.024   0.000   0.000   0.000   0.380   0.006  -0.000
 -0.024   0.602  -0.000   0.000   0.000   0.006   0.385   0.000
  0.000  -0.000   0.642  -0.000  -0.000  -0.000   0.000   0.375
  0.000   0.000  -0.000   0.602   0.024  -0.000  -0.000   0.000
  0.000   0.000  -0.000   0.024   0.622  -0.000  -0.000   0.000
  0.000  -0.000   0.000  -0.000   0.000  -0.000   0.000  -0.000
 -0.000   0.000  -0.000   0.000  -0.000   0.000  -0.000   0.000
 -0.000   0.000   0.000  -0.000   0.001   0.000  -0.000  -0.000
 -0.000  -0.000   0.000  -0.000  -0.000   0.000   0.000  -0.000
  0.001  -0.000   0.000   0.000   0.000  -0.000   0.000  -0.000
 -0.000  -0.000  -0.000   0.000  -0.001  -0.000   0.000   0.000
  0.000   0.000  -0.000   0.000   0.000  -0.000  -0.000   0.000
 -0.001   0.000  -0.000  -0.000   0.000   0.000  -0.000   0.000
 pseudopotential strength for first ion, spin component:           2
 -6.895  -0.165  -0.000   0.000   0.000   0.149   0.043   0.000
 -0.165  -7.060   0.000  -0.000   0.000   0.043   0.192  -0.000
 -0.000   0.000  -6.786   0.000   0.000   0.000  -0.000   0.121
  0.000  -0.000   0.000  -7.060   0.165  -0.000   0.000  -0.000
  0.000   0.000   0.000   0.165  -6.895  -0.000  -0.000  -0.000
  0.149   0.043   0.000  -0.000  -0.000   0.509  -0.011  -0.000
  0.043   0.192  -0.000   0.000  -0.000  -0.011   0.499   0.000
  0.000  -0.000   0.121  -0.000  -0.000  -0.000   0.000   0.516
 -0.000   0.000  -0.000   0.192  -0.043   0.000  -0.000   0.000
 -0.000  -0.000  -0.000  -0.043   0.149   0.000   0.000   0.000
  0.000  -0.000   0.005  -0.000   0.000  -0.000   0.000  -0.001
 -0.000   0.000  -0.001   0.000  -0.000   0.000  -0.000   0.000
  0.000   0.000   0.000  -0.000   0.001  -0.000  -0.000  -0.000
 -0.000  -0.000   0.000  -0.000   0.000   0.000   0.000   0.000
  0.001  -0.000   0.000   0.000  -0.000   0.000   0.000  -0.000
 -0.000  -0.000  -0.000   0.000  -0.001   0.000   0.000   0.000
  0.000   0.000  -0.000   0.000  -0.000  -0.000  -0.000   0.000
 -0.001   0.000  -0.000  -0.000   0.000   0.000  -0.000   0.000
 total augmentation occupancy for first ion, spin component:           1
  0.977  -0.037   0.000   0.000  -0.000   0.021   0.192  -0.000  -0.000  -0.000  -0.000  -0.000   0.000   0.000   0.008   0.000
 -0.037   0.932  -0.000  -0.000   0.000   0.191   0.211   0.000   0.000  -0.000  -0.000  -0.000   0.000  -0.000   0.003   0.000
  0.000  -0.000   1.024  -0.000  -0.000  -0.000   0.000  -0.110   0.000   0.000  -0.004  -0.011  -0.000   0.000   0.000  -0.000
  0.000  -0.000  -0.000   0.932   0.037  -0.000  -0.000   0.000   0.211  -0.191   0.000  -0.000  -0.003   0.000   0.000  -0.000
 -0.000   0.000  -0.000   0.037   0.977   0.000  -0.000   0.000  -0.192   0.021   0.000   0.000   0.008  -0.000  -0.000   0.000
  0.021   0.191  -0.000  -0.000   0.000   0.122   0.054   0.000  -0.000  -0.000   0.000  -0.000  -0.000   0.000   0.018   0.000
  0.192   0.211   0.000  -0.000  -0.000   0.054   0.184   0.000  -0.000  -0.000   0.000   0.000   0.000   0.000  -0.003   0.000
 -0.000   0.000  -0.110   0.000   0.000   0.000   0.000   0.120   0.000  -0.000   0.044  -0.008  -0.000   0.001   0.000   0.000
 -0.000   0.000   0.000   0.211  -0.192  -0.000  -0.000   0.000   0.184  -0.054   0.000   0.000   0.003   0.000   0.000  -0.000
 -0.000  -0.000   0.000  -0.191   0.021  -0.000  -0.000  -0.000  -0.054   0.122  -0.000   0.000   0.018  -0.000   0.000  -0.001
 -0.000  -0.000  -0.004  -0.000   0.000   0.000  -0.000   0.044   0.000  -0.000   1.039  -0.134   0.000   0.000   0.000  -0.000
 -0.000  -0.000  -0.011   0.000   0.000  -0.000   0.000  -0.008   0.000   0.000  -0.134   0.048  -0.000  -0.000  -0.000   0.000
  0.000   0.000  -0.000  -0.003   0.008  -0.000   0.000  -0.000   0.003   0.018  -0.000  -0.000   0.197   0.000  -0.000  -0.001
  0.000   0.000   0.000   0.000  -0.000   0.000   0.000   0.001   0.000  -0.000   0.000  -0.000   0.000   0.210   0.000  -0.000
  0.008   0.003   0.000   0.000  -0.000   0.018  -0.003   0.000   0.000   0.000  -0.000  -0.000  -0.000   0.000   0.197  -0.000
  0.000   0.000  -0.000  -0.000   0.000   0.000   0.000   0.000  -0.000  -0.001  -0.000  -0.000  -0.001  -0.000  -0.000   0.000
  0.000   0.000   0.000   0.000  -0.000  -0.000  -0.000  -0.000   0.000   0.000  -0.000   0.000  -0.000  -0.001   0.000   0.000
  0.000   0.000   0.000   0.000  -0.000  -0.001   0.000  -0.000   0.000  -0.000   0.000   0.000   0.000   0.000  -0.001  -0.000
 total augmentation occupancy for first ion, spin component:           2
  0.731  -0.281   0.000   0.000  -0.000  -0.144   0.045  -0.000  -0.000  -0.000  -0.000  -0.000   0.000  -0.000  -0.001   0.000
 -0.281   0.467  -0.000  -0.000   0.000   0.043  -0.093   0.000  -0.000  -0.000  -0.000  -0.000  -0.000   0.000   0.005   0.000
  0.000  -0.000   0.920  -0.000  -0.000  -0.000   0.000  -0.200   0.000   0.000  -0.028  -0.003   0.000  -0.000  -0.000  -0.000
  0.000  -0.000  -0.000   0.467   0.281  -0.000   0.000   0.000  -0.093  -0.043  -0.000  -0.000  -0.005  -0.000  -0.000   0.000
 -0.000   0.000  -0.000   0.281   0.731   0.000  -0.000   0.000  -0.045  -0.144   0.000   0.000  -0.001   0.000  -0.000   0.001
 -0.144   0.043  -0.000  -0.000   0.000  -0.003  -0.047   0.000   0.000  -0.000   0.000   0.000  -0.000   0.000  -0.001  -0.000
  0.045  -0.093   0.000   0.000  -0.000  -0.047  -0.045  -0.000   0.000   0.000   0.000   0.000  -0.000   0.000  -0.001   0.000
 -0.000   0.000  -0.200   0.000   0.000   0.000  -0.000   0.040  -0.000  -0.000   0.009   0.004   0.000   0.000  -0.000  -0.000
 -0.000  -0.000   0.000  -0.093  -0.045   0.000   0.000  -0.000  -0.045   0.047   0.000  -0.000   0.001   0.000  -0.000  -0.000
 -0.000  -0.000   0.000  -0.043  -0.144  -0.000   0.000  -0.000   0.047  -0.003  -0.000  -0.000  -0.001  -0.000   0.000   0.000
 -0.000  -0.000  -0.028  -0.000   0.000   0.000   0.000   0.009   0.000  -0.000   0.180   0.065   0.000   0.000  -0.000   0.000
 -0.000  -0.000  -0.003  -0.000   0.000   0.000   0.000   0.004  -0.000  -0.000   0.065  -0.016   0.000   0.000   0.000   0.000
  0.000  -0.000   0.000  -0.005  -0.001  -0.000  -0.000   0.000   0.001  -0.001   0.000  -0.000   0.029   0.000  -0.000   0.003
 -0.000   0.000  -0.000  -0.000   0.000   0.000   0.000   0.000   0.000  -0.000   0.000   0.000   0.000   0.023   0.000  -0.000
 -0.001   0.005  -0.000  -0.000  -0.000  -0.001  -0.001  -0.000  -0.000   0.000  -0.000  -0.000  -0.000   0.000   0.029  -0.000
  0.000   0.000  -0.000   0.000   0.001  -0.000   0.000  -0.000  -0.000   0.000  -0.000  -0.000   0.003   0.000  -0.000   0.000
  0.000  -0.000   0.000   0.000  -0.000   0.000   0.000   0.000  -0.000  -0.000   0.000  -0.000  -0.000   0.003   0.000  -0.000
  0.001  -0.000   0.000   0.000  -0.000   0.000   0.000   0.000   0.000   0.000   0.000   0.000   0.000   0.000   0.003  -0.000


------------------------ aborting loop because EDIFF is reached ----------------------------------------





 total charge     

# of ion       s       p       d       tot
------------------------------------------
    1        0.332   0.403   4.234   4.970
    2        0.332   0.403   4.234   4.970
    3        1.174   1.127   0.073   2.375
    4        1.174   1.127   0.073   2.375
    5        1.392   1.971   0.033   3.397
    6        1.387   1.970   0.032   3.388
    7        1.391   1.968   0.033   3.392
    8        1.392   1.971   0.033   3.397
    9        1.387   1.970   0.032   3.388
   10        1.391   1.968   0.033   3.392
--------------------------------------------------
tot         11.353  14.879   8.808  35.041



 magnetization (x)

# of ion       s       p       d       tot
------------------------------------------
    1        0.043   0.047   3.044   3.133
    2        0.043   0.047   3.044   3.133
    3        0.002   0.046  -0.002   0.045
    4        0.002   0.046  -0.002   0.045
    5       -0.001  -0.102   0.005  -0.098
    6       -0.002  -0.088   0.005  -0.085
    7       -0.001  -0.097   0.005  -0.094
    8       -0.001  -0.102   0.005  -0.098
    9       -0.002  -0.088   0.005  -0.085
   10       -0.001  -0.097   0.005  -0.094
--------------------------------------------------
tot          0.080  -0.390   6.112   5.802

    CHARGE:  cpu time    1.9000: real time    1.9133
    FORLOC:  cpu time    0.0560: real time    0.0557
    FORNL :  cpu time    6.3480: real time    6.4673
    STRESS:  cpu time   19.1160: real time   19.4429
    FORCOR:  cpu time   50.5960: real time   51.0069
    FORHAR:  cpu time    0.3280: real time    0.3292
    MIXING:  cpu time    0.0400: real time    0.0414
    OFIELD:  cpu time    0.0000: real time    0.0001

  FORCE on cell =-STRESS in cart. coord.  units (eV):
  Direction    XX          YY          ZZ          XY          YZ          ZX
  --------------------------------------------------------------------------------------
  Alpha Z    14.92530    14.92530    14.92530
  Ewald    7404.34071  7404.33878 -8835.63396    -0.00107    -0.00037    -0.00068
  Hartree  7708.00089  7708.00128 -7565.39542    -0.00004     0.00005     0.00008
  E(xc)    -224.59062  -224.59064  -224.36322     0.00005     0.00002     0.00002
  Local  -15947.68007-15947.67935 15536.87807     0.00086     0.00023     0.00044
  n-local   681.80661   683.91454   693.50207     0.93921     0.78071     0.90460
  augment   -96.44995   -96.44978  -102.49641    -0.00006    -0.00002     0.00004
  Kinetic   461.31417   455.72704   482.55882    -4.11567     0.68508     0.72890
  Fock        0.00000     0.00000     0.00000     0.00000     0.00000     0.00000
  -------------------------------------------------------------------------------------
  Total      -0.07290    -0.07290    -0.02475     0.00000    -0.00000     0.00000
  in kB      -0.12007    -0.12007    -0.04076     0.00000    -0.00000     0.00000
  external pressure =       -0.09 kB  Pullay stress =        0.00 kB


 VOLUME and BASIS-vectors are now :
 -----------------------------------------------------------------------------
  energy-cutoff  :      520.00
  volume of cell :      972.67
      direct lattice vectors                 reciprocal lattice vectors
     6.917693485 -0.000000013  0.000000000     0.144556853 -0.083459931 -0.000000000
     3.458846251  5.990897920 -0.000000000     0.000000000  0.166919886 -0.000000000
     0.000000000  0.000000000 23.469908405     0.000000000  0.000000000  0.042607750

  length of vectors
     6.917693485  6.917692916 23.469908405     0.166919872  0.166919886  0.042607750


 FORCES acting on ions
    electron-ion (+dipol)            ewald-force                    non-local-force                 convergence-correction
 -----------------------------------------------------------------------------------------------
   -.161E-04 -.192E-04 0.608E+00   0.305E-03 0.182E-03 -.610E+00   0.347E-17 0.694E-17 0.581E-03   0.101E-06 0.698E-07 0.136E-03
   0.161E-04 0.192E-04 -.608E+00   -.305E-03 -.182E-03 0.610E+00   -.347E-17 -.694E-17 -.581E-03   -.101E-06 -.698E-07 -.136E-03
   -.269E-04 -.279E-04 0.159E+03   -.140E-03 -.774E-04 -.157E+03   0.683E-17 -.539E-19 -.213E+01   -.773E-07 -.372E-07 -.329E-02
   0.269E-04 0.279E-04 -.159E+03   0.140E-03 0.774E-04 0.157E+03   -.510E-17 0.539E-19 0.213E+01   0.773E-07 0.372E-07 0.329E-02
   -.833E+01 0.132E+00 -.337E+03   0.460E+01 -.126E+00 0.342E+03   0.366E+01 -.144E-01 -.451E+01   0.602E-03 0.359E-04 0.905E-02
   0.428E+01 0.714E+01 -.337E+03   -.241E+01 -.392E+01 0.342E+03   -.184E+01 -.316E+01 -.451E+01   -.270E-03 -.539E-03 0.905E-02
   0.405E+01 -.728E+01 -.337E+03   -.219E+01 0.405E+01 0.342E+03   -.182E+01 0.318E+01 -.451E+01   -.332E-03 0.504E-03 0.905E-02
   0.833E+01 -.132E+00 0.337E+03   -.460E+01 0.126E+00 -.342E+03   -.366E+01 0.144E-01 0.451E+01   -.602E-03 -.359E-04 -.905E-02
   -.428E+01 -.714E+01 0.337E+03   0.241E+01 0.392E+01 -.342E+03   0.184E+01 0.316E+01 0.451E+01   0.270E-03 0.539E-03 -.905E-02
   -.405E+01 0.728E+01 0.337E+03   0.219E+01 -.405E+01 -.342E+03   0.182E+01 -.318E+01 0.451E+01   0.332E-03 -.504E-03 -.905E-02
 -----------------------------------------------------------------------------------------------
   0.271E-10 0.275E-09 -.341E-09   -.444E-15 0.266E-14 0.568E-13   -.222E-15 -.444E-15 0.000E+00   0.210E-12 -.205E-12 -.138E-11


 POSITION                                       TOTAL-FORCE (eV/Angst)
 -----------------------------------------------------------------------------------
      3.45884      1.99696     11.73311        -0.000000      0.000000     -0.001168
      6.91770      3.99393     11.73680        -0.000000     -0.000000      0.001168
      0.00000      0.00000     10.52024        -0.000000      0.000000      0.002784
      0.00000      0.00000     12.94967        -0.000000     -0.000000     -0.002784
      4.33160      0.00230     13.46660        -0.063006     -0.007114     -0.002347
      1.29504      2.23848     13.46660         0.025342      0.058122     -0.002347
      4.74991      3.75013     13.46660         0.037663     -0.051008     -0.002347
      6.04494      5.98860     10.00331         0.063006      0.007114      0.002347
      9.08150      3.75242     10.00331        -0.025342     -0.058122      0.002347
      5.62663      2.24077     10.00331        -0.037663      0.051008      0.002347
 -----------------------------------------------------------------------------------
    total drift:                                0.000000      0.000000     -0.000000


--------------------------------------------------------------------------------------------------------



  FREE ENERGIE OF THE ION-ELECTRON SYSTEM (eV)
  ---------------------------------------------------
  free  energy   TOTEN  =       -41.76901443 eV

  energy  without entropy=      -41.76901443  energy(sigma->0) =      -41.76901443

 d Force =-0.5792235E-03[-0.801E-03,-0.357E-03]  d Energy = 0.5291245E-03-0.111E-02
 d Force =-0.8538171E+00[-0.856E+00,-0.852E+00]  d Ewald  =-0.9715370E+01 0.886E+01


--------------------------------------------------------------------------------------------------------


    POTLOK:  cpu time   50.6920: real time   51.3000


--------------------------------------------------------------------------------------------------------




--------------------------------------------------------------------------------------------------------


  
 reached required accuracy - stopping structural energy minimisation
     LOOP+:  cpu time  516.6120: real time  521.7131
    4ORBIT:  cpu time    0.0000: real time    0.0000



 total charge     

# of ion       s       p       d       tot
------------------------------------------
    1        0.332   0.403   4.234   4.970
    2        0.332   0.403   4.234   4.970
    3        1.174   1.127   0.073   2.375
    4        1.174   1.127   0.073   2.375
    5        1.392   1.971   0.033   3.397
    6        1.387   1.970   0.032   3.388
    7        1.391   1.968   0.033   3.392
    8        1.392   1.971   0.033   3.397
    9        1.387   1.970   0.032   3.388
   10        1.391   1.968   0.033   3.392
--------------------------------------------------
tot         11.353  14.879   8.808  35.041



 magnetization (x)

# of ion       s       p       d       tot
------------------------------------------
    1        0.043   0.047   3.044   3.133
    2        0.043   0.047   3.044   3.133
    3        0.002   0.046  -0.002   0.045
    4        0.002   0.046  -0.002   0.045
    5       -0.001  -0.102   0.005  -0.098
    6       -0.002  -0.088   0.005  -0.085
    7       -0.001  -0.097   0.005  -0.094
    8       -0.001  -0.102   0.005  -0.098
    9       -0.002  -0.088   0.005  -0.085
   10       -0.001  -0.097   0.005  -0.094
--------------------------------------------------
tot          0.080  -0.390   6.112   5.802

 BZINTS: Fermi energy: -2.261006; 56.000000 electrons
         Band energy:-378.802754;  BLOECHL correction:  0.000000

 total amount of memory used by VASP MPI-rank0   128789. kBytes
=======================================================================

   base      :      30000. kBytes
   nonlr-proj:       8479. kBytes
   fftplans  :      11247. kBytes
   grid      :      66142. kBytes
   one-center:        311. kBytes
   wavefun   :      12610. kBytes

  
  
 General timing and accounting informations for this job:
 ========================================================
  
                  Total CPU time used (sec):     2750.140
                            User time (sec):     2673.604
                          System time (sec):       76.536
                         Elapsed time (sec):     2780.511
  
                   Maximum memory used (kb):      376800.
                   Average memory used (kb):           0.
  
                          Minor page faults:      2761935
                          Major page faults:           10
                 Voluntary context switches:         1055
