 vasp.5.4.4.18Apr17-6-g9f103f2a35 (build May  1 2020 15:48:39) complex           
 executed on             LinuxGNU date 2020.07.10  05:39:51
 running on   16 total cores
 distrk:  each k-point on   16 cores,    1 groups
 distr:  one band on NCORES_PER_BAND=   1 cores,   16 groups


--------------------------------------------------------------------------------------------------------


 INCAR:
 POTCAR:   PAW_PBE Mn 06Sep2000                   
 POTCAR:   PAW_PBE Si 05Jan2001                   
 POTCAR:    PAW_PBE S 17Jan2003                   

 ----------------------------------------------------------------------------- 
|                                                                             |
|           W    W    AA    RRRRR   N    N  II  N    N   GGGG   !!!           |
|           W    W   A  A   R    R  NN   N  II  NN   N  G    G  !!!           |
|           W    W  A    A  R    R  N N  N  II  N N  N  G       !!!           |
|           W WW W  AAAAAA  RRRRR   N  N N  II  N  N N  G  GGG   !            |
|           WW  WW  A    A  R   R   N   NN  II  N   NN  G    G                |
|           W    W  A    A  R    R  N    N  II  N    N   GGGG   !!!           |
|                                                                             |
|      For optimal performance we recommend to set                            |
|        NCORE= 4 - approx SQRT( number of cores)                             |
|      NCORE specifies how many cores store one orbital (NPAR=cpu/NCORE).     |
|      This setting can  greatly improve the performance of VASP for DFT.     |
|      The default,   NCORE=1            might be grossly inefficient         |
|      on modern multi-core architectures or massively parallel machines.     |
|      Do your own testing !!!!                                               |
|      Unfortunately you need to use the default for GW and RPA calculations. |
|      (for HF NCORE is supported but not extensively tested yet)             |
|                                                                             |
 ----------------------------------------------------------------------------- 


 ----------------------------------------------------------------------------- 
|                                                                             |
|  ADVICE TO THIS USER RUNNING 'VASP/VAMP'   (HEAR YOUR MASTER'S VOICE ...):  |
|                                                                             |
|      You have switched on vdW-DFT.                                          |
|      This routine was written and supplied by Jiri Klimes.                  |
|      We recommed that you carefully read and cite the following             |
|      publication                                                            |
|      J. Klimes, D.R. Bowler, A. Michelides                                  |
|        J. Phys.: Cond Matt. 22 022201 (2010)                                |
|      J. Klimes, D.R. Bowler, A. Michelides                                  |
|        Phys. Rev. B. 83, 195131 (2011)                                      |
|      and references therein.                                                |
|                                                                             |
 ----------------------------------------------------------------------------- 

 POTCAR:   PAW_PBE Mn 06Sep2000                   
   VRHFIN =Mn: d6 s1                                                            
   LEXCH  = PE                                                                  
   EATOM  =   416.8732 eV,   30.6393 Ry                                         
                                                                                
   TITEL  = PAW_PBE Mn 06Sep2000                                                
   LULTRA =        F    use ultrasoft PP ?                                      
   IUNSCR =        1    unscreen: 0-lin 1-nonlin 2-no                           
   RPACOR =    2.000    partial core radius                                     
   POMASS =   54.938; ZVAL   =    7.000    mass and valenz                      
   RCORE  =    2.300    outmost cutoff radius                                   
   RWIGS  =    2.500; RWIGS  =    1.323    wigner-seitz radius (au A)           
   ENMAX  =  269.865; ENMIN  =  202.399 eV                                      
   RCLOC  =    1.725    cutoff for local pot                                    
   LCOR   =        T    correct aug charges                                     
   LPAW   =        T    paw PP                                                  
   EAUG   =  500.711                                                            
   DEXC   =    -.071                                                            
   RMAX   =    2.807    core radius for proj-oper                               
   RAUG   =    1.300    factor for augmentation sphere                          
   RDEP   =    2.338    radius for radial grids                                 
   QCUT   =   -4.454; QGAM   =    8.907    optimization parameters              
                                                                                
   Description                                                                  
     l     E      TYP  RCUT    TYP  RCUT                                        
     2   .000     23  2.300                                                     
     2   .000     23  2.300                                                     
     0   .000     23  2.300                                                     
     0   .000     23  2.300                                                     
     1  -.200     23  2.300                                                     
     1  1.500     23  2.300                                                     
     3   .000      7   .000                                                     
  local pseudopotential read in
  partial core-charges read in
  atomic valenz-charges read in
  non local Contribution for L=           2  read in
    real space projection operators read in
  non local Contribution for L=           2  read in
    real space projection operators read in
  non local Contribution for L=           0  read in
    real space projection operators read in
  non local Contribution for L=           0  read in
    real space projection operators read in
  non local Contribution for L=           1  read in
    real space projection operators read in
  non local Contribution for L=           1  read in
    real space projection operators read in
    PAW grid and wavefunctions read in

   number of l-projection  operators is LMAX  =           6
   number of lm-projection operators is LMMAX =          18

 POTCAR:   PAW_PBE Si 05Jan2001                   
   VRHFIN =Si: s2p2                                                             
   LEXCH  = PE                                                                  
   EATOM  =   103.0669 eV,    7.5752 Ry                                         
                                                                                
   TITEL  = PAW_PBE Si 05Jan2001                                                
   LULTRA =        F    use ultrasoft PP ?                                      
   IUNSCR =        1    unscreen: 0-lin 1-nonlin 2-no                           
   RPACOR =    1.500    partial core radius                                     
   POMASS =   28.085; ZVAL   =    4.000    mass and valenz                      
   RCORE  =    1.900    outmost cutoff radius                                   
   RWIGS  =    2.480; RWIGS  =    1.312    wigner-seitz radius (au A)           
   ENMAX  =  245.345; ENMIN  =  184.009 eV                                      
   ICORE  =        2    local potential                                         
   LCOR   =        T    correct aug charges                                     
   LPAW   =        T    paw PP                                                  
   EAUG   =  322.069                                                            
   DEXC   =    -.007                                                            
   RMAX   =    2.944    core radius for proj-oper                               
   RAUG   =    1.300    factor for augmentation sphere                          
   RDEP   =    1.993    radius for radial grids                                 
   QCUT   =   -4.246; QGAM   =    8.493    optimization parameters              
                                                                                
   Description                                                                  
     l     E      TYP  RCUT    TYP  RCUT                                        
     0   .000     23  1.900                                                     
     0   .000     23  1.900                                                     
     1   .000     23  1.900                                                     
     1   .000     23  1.900                                                     
     2   .000      7  1.900                                                     
  local pseudopotential read in
  partial core-charges read in
  atomic valenz-charges read in
  non local Contribution for L=           0  read in
    real space projection operators read in
  non local Contribution for L=           0  read in
    real space projection operators read in
  non local Contribution for L=           1  read in
    real space projection operators read in
  non local Contribution for L=           1  read in
    real space projection operators read in
    PAW grid and wavefunctions read in

   number of l-projection  operators is LMAX  =           4
   number of lm-projection operators is LMMAX =           8

 POTCAR:    PAW_PBE S 17Jan2003                   
   VRHFIN =S : s2p4                                                             
   LEXCH  = PE                                                                  
   EATOM  =   276.8230 eV,   20.3459 Ry                                         
                                                                                
   TITEL  = PAW_PBE S 17Jan2003                                                 
   LULTRA =        F    use ultrasoft PP ?                                      
   IUNSCR =        1    unscreen: 0-lin 1-nonlin 2-no                           
   RPACOR =    1.500    partial core radius                                     
   POMASS =   32.066; ZVAL   =    6.000    mass and valenz                      
   RCORE  =    1.900    outmost cutoff radius                                   
   RWIGS  =    2.200; RWIGS  =    1.164    wigner-seitz radius (au A)           
   ENMAX  =  280.000; ENMIN  =  194.016 eV                                      
   ICORE  =        2    local potential                                         
   LCOR   =        T    correct aug charges                                     
   LPAW   =        T    paw PP                                                  
   EAUG   =  335.092                                                            
   DEXC   =     .000                                                            
   RMAX   =    2.867    core radius for proj-oper                               
   RAUG   =    1.300    factor for augmentation sphere                          
   RDEP   =    1.954    radius for radial grids                                 
   QCUT   =   -4.360; QGAM   =    8.721    optimization parameters              
                                                                                
   Description                                                                  
     l     E      TYP  RCUT    TYP  RCUT                                        
     0   .000     23  1.900                                                     
     0   .000     23  1.900                                                     
     1   .000     23  1.900                                                     
     1   .000     23  1.900                                                     
     2   .000     23  1.900                                                     
  local pseudopotential read in
  partial core-charges read in
  atomic valenz-charges read in
  non local Contribution for L=           0  read in
    real space projection operators read in
  non local Contribution for L=           0  read in
    real space projection operators read in
  non local Contribution for L=           1  read in
    real space projection operators read in
  non local Contribution for L=           1  read in
    real space projection operators read in
    PAW grid and wavefunctions read in

   number of l-projection  operators is LMAX  =           4
   number of lm-projection operators is LMMAX =           8

 Optimization of the real space projectors (new method)

 maximal supplied QI-value         = 16.25
 optimisation between [QCUT,QGAM] = [ 11.54, 23.24] = [ 37.28,151.24] Ry 
 Optimized for a Real-space Cutoff    1.53 Angstroem

   l    n(q)    QCUT    max X(q) W(low)/X(q) W(high)/X(q)  e(spline) 
   2     10    11.539     4.144    0.87E-05    0.14E-04    0.48E-07
   2     10    11.539    35.116    0.12E-03    0.13E-03    0.25E-06
   0     11    11.539    20.431    0.20E-04    0.18E-05    0.19E-07
   0     11    11.539    61.159    0.37E-04    0.19E-04    0.29E-06
   1     10    11.539     6.695    0.11E-04    0.24E-05    0.29E-07
   1     10    11.539     8.642    0.41E-04    0.18E-04    0.11E-06
 Optimization of the real space projectors (new method)

 maximal supplied QI-value         = 19.84
 optimisation between [QCUT,QGAM] = [ 11.51, 23.22] = [ 37.09,150.92] Ry 
 Optimized for a Real-space Cutoff    1.21 Angstroem

   l    n(q)    QCUT    max X(q) W(low)/X(q) W(high)/X(q)  e(spline) 
   0      8    11.508     8.708    0.18E-04    0.44E-05    0.47E-08
   0      8    11.508   106.241    0.70E-04    0.15E-03    0.51E-07
   1      8    11.508     5.901    0.63E-05    0.23E-04    0.21E-07
   1      8    11.508    73.241    0.15E-03    0.36E-04    0.79E-07
 Optimization of the real space projectors (new method)

 maximal supplied QI-value         = 19.84
 optimisation between [QCUT,QGAM] = [ 11.51, 23.22] = [ 37.09,150.92] Ry 
 Optimized for a Real-space Cutoff    1.21 Angstroem

   l    n(q)    QCUT    max X(q) W(low)/X(q) W(high)/X(q)  e(spline) 
   0      8    11.508     5.487    0.18E-04    0.22E-05    0.47E-08
   0      8    11.508    85.627    0.96E-04    0.18E-03    0.54E-07
   1      8    11.508     3.530    0.17E-04    0.28E-04    0.21E-07
   1      8    11.508    42.714    0.18E-03    0.63E-04    0.92E-07

 ----------------------------------------------------------------------------- 
|                                                                             |
|  ADVICE TO THIS USER RUNNING 'VASP/VAMP'   (HEAR YOUR MASTER'S VOICE ...):  |
|                                                                             |
|      You enforced a specific xc-type in the INCAR file,                     |
|      a different type was found on the POTCAR file                          |
|          I HOPE YOU KNOW, WHAT YOU ARE  DOING                               |
|                                                                             |
 ----------------------------------------------------------------------------- 

 PAW_PBE Mn 06Sep2000                   :
 energy of atom  1       EATOM= -416.8732
 kinetic energy error for atom=    0.0024 (will be added to EATOM!!)
 PAW_PBE Si 05Jan2001                   :
 energy of atom  2       EATOM= -103.0669
 kinetic energy error for atom=    0.0005 (will be added to EATOM!!)
  PAW_PBE S 17Jan2003                   :
 energy of atom  3       EATOM= -276.8230
 kinetic energy error for atom=    0.0016 (will be added to EATOM!!)


 POSCAR: Mn2 Si2 S6                              
  positions in direct lattice
  velocities in cartesian coordinates
  No initial velocities read in
 exchange correlation table for  LEXCH =       42
   RHO(1)=    0.500       N(1)  =     2000
   RHO(2)=  100.500       N(2)  =     4000



--------------------------------------------------------------------------------------------------------


 ion  position               nearest neighbor table
   1  0.333  0.333  0.500-   6 2.78   5 2.78   7 2.78   8 2.78  10 2.78   9 2.78
   2  0.667  0.667  0.500-   9 2.78   8 2.78  10 2.78   5 2.78   7 2.78   6 2.78
   3  0.000  0.000  0.448-   4 2.43   8 2.63  10 2.63   9 2.63
   4  0.000  0.000  0.552-   3 2.43   5 2.63   7 2.63   6 2.63
   5  0.626  0.000  0.574-   4 2.63   1 2.78   2 2.78
   6  0.000  0.373  0.574-   4 2.63   1 2.78   2 2.78
   7  0.373  0.626  0.574-   4 2.63   1 2.78   2 2.78
   8  0.374  1.000  0.426-   3 2.63   2 2.78   1 2.78
   9  1.000  0.627  0.426-   3 2.63   2 2.78   1 2.78
  10  0.627  0.374  0.426-   3 2.63   2 2.78   1 2.78

  LATTYP: Found a hexagonal cell.
 ALAT       =     6.9077769333
 C/A-ratio  =     3.3939410937
  
  Lattice vectors:
  
 A1 = (   3.4538890000,  -5.9823100000,   0.0000000000)
 A2 = (  -6.9077770000,   0.0000000000,   0.0000000000)
 A3 = (   0.0000000000,   0.0000000000, -23.4445880000)


Analysis of symmetry for initial positions (statically):
=====================================================================
 Subroutine PRICEL returns:
 Original cell was already a primitive cell.
 

 Routine SETGRP: Setting up the symmetry group for a 
 hexagonal supercell.


 Subroutine GETGRP returns: Found  6 space group operations
 (whereof  6 operations were pure point group operations)
 out of a pool of 24 trial point group operations.


The static configuration has the point symmetry S_6 .


Analysis of symmetry for dynamics (positions and initial velocities):
=====================================================================
 Subroutine PRICEL returns:
 Original cell was already a primitive cell.
 

 Routine SETGRP: Setting up the symmetry group for a 
 hexagonal supercell.


 Subroutine GETGRP returns: Found  6 space group operations
 (whereof  6 operations were pure point group operations)
 out of a pool of 24 trial point group operations.


The dynamic configuration has the point symmetry S_6 .


Analysis of constrained symmetry for selective dynamics:
=====================================================================
 Subroutine PRICEL returns:
 Original cell was already a primitive cell.
 

 Routine SETGRP: Setting up the symmetry group for a 
 hexagonal supercell.


 Subroutine GETGRP returns: Found  6 space group operations
 (whereof  6 operations were pure point group operations)
 out of a pool of 24 trial point group operations.


The constrained configuration has the point symmetry S_6 .


Analysis of structural, dynamic, and magnetic symmetry:
=====================================================================
 Subroutine PRICEL returns:
 Original cell was already a primitive cell.
 

 Routine SETGRP: Setting up the symmetry group for a 
 hexagonal supercell.


 Subroutine GETGRP returns: Found  6 space group operations
 (whereof  6 operations were pure point group operations)
 out of a pool of 24 trial point group operations.


The magnetic configuration has the point symmetry S_6 .


 Subroutine INISYM returns: Found  6 space group operations
 (whereof  6 operations are pure point group operations),
 and found     1 'primitive' translations



 KPOINTS: Kpoints from vasprun.xml                

Automatic generation of k-mesh.
Space group operators:
 irot       det(A)        alpha          n_x          n_y          n_z        tau_x        tau_y        tau_z
    1     1.000000     0.000000     1.000000     0.000000     0.000000     0.000000     0.000000     0.000000
    2    -1.000000     0.000000     1.000000     0.000000     0.000000     0.000000     0.000000     0.000000
    3     1.000000   120.000000     0.000000     0.000000     1.000000     0.000000     0.000000     0.000000
    4    -1.000000   120.000000     0.000000     0.000000     1.000000     0.000000     0.000000     0.000000
    5     1.000000   120.000000     0.000000     0.000000    -1.000000     0.000000     0.000000     0.000000
    6    -1.000000   120.000000     0.000000     0.000000    -1.000000     0.000000     0.000000     0.000000
 
 Subroutine IBZKPT returns following result:
 ===========================================
 
 Found      5 irreducible k-points:
 
 Following reciprocal coordinates:
            Coordinates               Weight
  0.000000  0.000000  0.000000      1.000000
  0.200000  0.000000  0.000000      6.000000
  0.400000  0.000000  0.000000      6.000000
  0.400000  0.200000  0.000000      6.000000
 -0.400000  0.200000  0.000000      6.000000
 
 Following cartesian coordinates:
            Coordinates               Weight
  0.000000  0.000000  0.000000      1.000000
  0.028953 -0.016716  0.000000      6.000000
  0.057906 -0.033432  0.000000      6.000000
  0.057906  0.000000  0.000000      6.000000
 -0.057906  0.066864  0.000000      6.000000
 
 TETIRR: Found     15 inequivalent tetrahedra from      150


--------------------------------------------------------------------------------------------------------




 Dimension of arrays:
   k-points           NKPTS =      5   k-points in BZ     NKDIM =      5   number of bands    NBANDS=     48
   number of dos      NEDOS =    301   number of ions     NIONS =     10
   non local maximal  LDIM  =      6   non local SUM 2l+1 LMDIM =     18
   total plane-waves  NPLWV = 524880
   max r-space proj   IRMAX =   8238   max aug-charges    IRDMAX=  20115
   dimension x,y,z NGX =    54 NGY =   54 NGZ =  180
   dimension x,y,z NGXF=   108 NGYF=  108 NGZF=  360
   support grid    NGXF=   108 NGYF=  108 NGZF=  360
   ions per type =               2   2   6
   NGX,Y,Z   is equivalent  to a cutoff of  13.00, 13.00, 12.76 a.u.
   NGXF,Y,Z  is equivalent  to a cutoff of  25.99, 25.99, 25.53 a.u.

 SYSTEM =  unknown system                          
 POSCAR =  Mn2 Si2 S6                              

 Startparameter for this run:
   NWRITE =      2    write-flag & timer
   PREC   = accura    normal or accurate (medium, high low for compatibility)
   ISTART =      0    job   : 0-new  1-cont  2-samecut
   ICHARG =      2    charge: 1-file 2-atom 10-const
   ISPIN  =      2    spin polarized calculation?
   LNONCOLLINEAR =      F non collinear calculations
   LSORBIT =      F    spin-orbit coupling
   INIWAV =      1    electr: 0-lowe 1-rand  2-diag
   LASPH  =      F    aspherical Exc in radial PAW
   METAGGA=      F    non-selfconsistent MetaGGA calc.

 Electronic Relaxation 1
   ENCUT  =  520.0 eV  38.22 Ry    6.18 a.u.  12.84 12.84 43.59*2*pi/ulx,y,z
   ENINI  =  520.0     initial cutoff
   ENAUG  =  500.7 eV  augmentation charge cutoff
   NELM   =    400;   NELMIN=  2; NELMDL=  0     # of ELM steps 
   EDIFF  = 0.1E-03   stopping-criterion for ELM
   LREAL  =      T    real-space projection
   NLSPLINE    = F    spline interpolate recip. space projectors
   LCOMPAT=      F    compatible to vasp.4.4
   GGA_COMPAT  = T    GGA compatible to vasp.4.4-vasp.4.6
   LMAXPAW     = -100 max onsite density
   LMAXMIX     =    2 max onsite mixed and CHGCAR
   VOSKOWN=      0    Vosko Wilk Nusair interpolation
   ROPT   =   -0.00025  -0.00025  -0.00025
 Ionic relaxation
   EDIFFG = 0.1E-02   stopping-criterion for IOM
   NSW    =     99    number of steps for IOM
   NBLOCK =      1;   KBLOCK =     99    inner block; outer block 
   IBRION =      2    ionic relax: 0-MD 1-quasi-New 2-CG
   NFREE  =      1    steps in history (QN), initial steepest desc. (CG)
   ISIF   =      3    stress and relaxation
   IWAVPR =     11    prediction:  0-non 1-charg 2-wave 3-comb
   ISYM   =      2    0-nonsym 1-usesym 2-fastsym
   LCORR  =      T    Harris-Foulkes like correction to forces

   POTIM  = 0.5000    time-step for ionic-motion
   TEIN   =    0.0    initial temperature
   TEBEG  =    0.0;   TEEND  =   0.0 temperature during run
   SMASS  =  -3.00    Nose mass-parameter (am)
   estimated Nose-frequenzy (Omega)   =  0.10E-29 period in steps =****** mass=  -0.109E-26a.u.
   SCALEE = 1.0000    scale energy and forces
   NPACO  =    256;   APACO  = 16.0  distance and # of slots for P.C.
   PSTRESS=    0.0 pullay stress

  Mass of Ions in am
   POMASS =  54.94 28.09 32.07
  Ionic Valenz
   ZVAL   =   7.00  4.00  6.00
  Atomic Wigner-Seitz radii
   RWIGS  =  -1.00 -1.00 -1.00
  virtual crystal weights 
   VCA    =   1.00  1.00  1.00
   NELECT =      58.0000    total number of electrons
   NUPDOWN=      -1.0000    fix difference up-down

 DOS related values:
   EMIN   =  10.00;   EMAX   =-10.00  energy-range for DOS
   EFERMI =   0.00
   ISMEAR =    -5;   SIGMA  =   0.05  broadening in eV -4-tet -1-fermi 0-gaus

 Electronic relaxation 2 (details)
   IALGO  =     38    algorithm
   LDIAG  =      T    sub-space diagonalisation (order eigenvalues)
   LSUBROT=      F    optimize rotation matrix (better conditioning)
   TURBO    =      0    0=normal 1=particle mesh
   IRESTART =      0    0=no restart 2=restart with 2 vectors
   NREBOOT  =      0    no. of reboots
   NMIN     =      0    reboot dimension
   EREF     =   0.00    reference energy to select bands
   IMIX   =      4    mixing-type and parameters
     AMIX     =   0.40;   BMIX     =  1.00
     AMIX_MAG =   1.60;   BMIX_MAG =  1.00
     AMIN     =   0.01
     WC   =   100.;   INIMIX=   1;  MIXPRE=   1;  MAXMIX= -45

 Intra band minimization:
   WEIMIN = 0.0010     energy-eigenvalue tresh-hold
   EBREAK =  0.52E-06  absolut break condition
   DEPER  =   0.30     relativ break condition  

   TIME   =   0.40     timestep for ELM

  volume/ion in A,a.u.               =      96.88       653.80
  Fermi-wavevector in a.u.,A,eV,Ry     =   0.640424  1.210226  5.580332  0.410143
  Thomas-Fermi vector in A             =   1.706427

 Write flags
   LWAVE        =      F    write WAVECAR
   LDOWNSAMPLE  =      F    k-point downsampling of WAVECAR
   LCHARG       =      T    write CHGCAR
   LVTOT        =      F    write LOCPOT, total local potential
   LVHAR        =      F    write LOCPOT, Hartree potential only
   LELF         =      F    write electronic localiz. function (ELF)
   LORBIT       =     11    0 simple, 1 ext, 2 COOP (PROOUT), +10 PAW based schemes


 Dipole corrections
   LMONO  =      F    monopole corrections only (constant potential shift)
   LDIPOL =      F    correct potential (dipole corrections)
   IDIPOL =      0    1-x, 2-y, 3-z, 4-all directions 
   EPSILON=  1.0000000 bulk dielectric constant

 Exchange correlation treatment:
   GGA     =    BO    GGA type
   LEXCH   =    42    internal setting for exchange type
   VOSKOWN=      0    Vosko Wilk Nusair interpolation
   LHFCALC =     F    Hartree Fock is set to
   LHFONE  =     F    Hartree Fock one center treatment
   AEXX    =    0.0000 exact exchange contribution

 vdW DFT:
   LUSE_VDW   =     T    switch on vdW DFT
   Zab_VDW    =-.8491    correlation parameter
   PARAM1     =0.1833
   PARAM2     =0.2200
   PARAM3     =0.0000
   -- rVV10 --
   BPARAM     = 6.3000
   CPARAM     = 0.0093

 Linear response parameters
   LEPSILON=     F    determine dielectric tensor
   LRPA    =     F    only Hartree local field effects (RPA)
   LNABLA  =     F    use nabla operator in PAW spheres
   LVEL    =     F    velocity operator in full k-point grid
   LINTERFAST=   F  fast interpolation
   KINTER  =     0    interpolate to denser k-point grid
   CSHIFT  =0.1000    complex shift for real part using Kramers Kronig
   OMEGAMAX=  -1.0    maximum frequency
   DEG_THRESHOLD= 0.2000000E-02 threshold for treating states as degnerate
   RTIME   =   -0.100 relaxation time in fs
  (WPLASMAI=    0.000 imaginary part of plasma frequency in eV, 0.658/RTIME)
   DFIELD  = 0.0000000 0.0000000 0.0000000 field for delta impulse in time

 Orbital magnetization related:
   ORBITALMAG=     F  switch on orbital magnetization
   LCHIMAG   =     F  perturbation theory with respect to B field
   DQ        =  0.001000  dq finite difference perturbation B field
   LLRAUG    =     F  two centre corrections for induced B field



--------------------------------------------------------------------------------------------------------


 conjugate gradient relaxation of ions
   using selective dynamics as specified on POSCAR
 charge density and potential will be updated during run
 spin polarized calculation
 Variant of blocked Davidson
 Davidson routine will perform the subspace rotation
 perform sub-space diagonalisation
    after iterative eigenvector-optimisation
 modified Broyden-mixing scheme, WC =      100.0
 initial mixing is a Kerker type mixing with AMIX =  0.4000 and BMIX =      1.0000
 Hartree-type preconditioning will be used
 using additional bands           19
 real space projection scheme for non local part
 use partial core corrections
 calculate Harris-corrections to forces   (improved forces if not selfconsistent)
 use gradient corrections 
 use of overlap-Matrix (Vanderbilt PP)
 Fermi weights with tetrahedron method with Bloechl corrections


--------------------------------------------------------------------------------------------------------


  energy-cutoff  :      520.00
  volume of cell :      968.84
      direct lattice vectors                 reciprocal lattice vectors
     6.907777000 -0.000000000  0.000000000     0.144764372 -0.083579742  0.000000000
     3.453888000  5.982310000  0.000000000     0.000000000  0.167159509 -0.000000000
     0.000000000  0.000000000 23.444588000    -0.000000000  0.000000000  0.042653767

  length of vectors
     6.907777000  6.907776433 23.444588000     0.167159495  0.167159509  0.042653767



 k-points in units of 2pi/SCALE and weight: Kpoints from vasprun.xml                
   0.00000000  0.00000000  0.00000000       0.040
   0.02895287 -0.01671595  0.00000000       0.240
   0.05790575 -0.03343190  0.00000000       0.240
   0.05790575  0.00000000  0.00000000       0.240
  -0.05790575  0.06686380  0.00000000       0.240

 k-points in reciprocal lattice and weights: Kpoints from vasprun.xml                
   0.00000000  0.00000000  0.00000000       0.040
   0.20000000  0.00000000  0.00000000       0.240
   0.40000000  0.00000000  0.00000000       0.240
   0.40000000  0.20000000  0.00000000       0.240
  -0.40000000  0.20000000  0.00000000       0.240

 position of ions in fractional coordinates (direct lattice) 
   0.33333300  0.33333300  0.49992500
   0.66666700  0.66666700  0.50007500
   0.00000000  0.00000000  0.44821600
   0.00000000  0.00000000  0.55178400
   0.62635700  0.00042000  0.57375200
   0.00042000  0.37322400  0.57375200
   0.37322400  0.62635700  0.57375200
   0.37364300  0.99958000  0.42624800
   0.99958000  0.62677600  0.42624800
   0.62677600  0.37364300  0.42624800

 position of ions in cartesian coordinates  (Angst):
   3.45388488  1.99410134 11.72053566
   6.90778012  3.98820866 11.72405234
   0.00000000  0.00000000 10.50823946
   0.00000000  0.00000000 12.93634854
   4.32818511  0.00251257 13.45137925
   1.29197516  2.23274167 13.45137925
   4.74151509  3.74706174 13.45137925
   6.03347989  5.97979743  9.99320875
   9.06968984  3.74956833  9.99320875
   5.62014991  2.23524826  9.99320875



--------------------------------------------------------------------------------------------------------


 k-point  1 :   0.0000 0.0000 0.0000  plane waves:   26073
 k-point  2 :   0.2000 0.0000 0.0000  plane waves:   26070
 k-point  3 :   0.4000 0.0000 0.0000  plane waves:   26086
 k-point  4 :   0.4000 0.2000 0.0000  plane waves:   26085
 k-point  5 :  -0.4000 0.2000 0.0000  plane waves:   26115

 maximum and minimum number of plane-waves per node :     26115    26070

 maximum number of plane-waves:     26115
 maximum index in each direction: 
   IXMAX=   13   IYMAX=   12   IZMAX=   43
   IXMIN=  -13   IYMIN=  -13   IZMIN=  -43


 serial   3D FFT for wavefunctions
 parallel 3D FFT for charge:
    minimum data exchange during FFTs selected (reduces bandwidth)


 total amount of memory used by VASP MPI-rank0   126399. kBytes
=======================================================================

   base      :      30000. kBytes
   nonlr-proj:       6104. kBytes
   fftplans  :      11247. kBytes
   grid      :      66142. kBytes
   one-center:        311. kBytes
   wavefun   :      12595. kBytes

     INWAV:  cpu time    0.0000: real time    0.0004
 Broyden mixing: mesh for mixing (old mesh)
   NGX = 25   NGY = 25   NGZ = 87
  (NGX  =108   NGY  =108   NGZ  =360)
  gives a total of  54375 points

 initial charge density was supplied:
 charge density of overlapping atoms calculated
 number of electron      58.0000000 magnetization       7.0000000
 keeping initial charge density in first step


--------------------------------------------------------------------------------------------------------


 Maximum index for non-local projection operator         7925
 Maximum index for augmentation-charges         1290 (set IRDMAX)


--------------------------------------------------------------------------------------------------------


 First call to EWALD:  gamma=   0.179
 Maximum number of real-space cells 4x 4x 1
 Maximum number of reciprocal cells 2x 2x 6

    FEWALD:  cpu time    0.0000: real time    0.0015


--------------------------------------- Iteration      1(   1)  ---------------------------------------


vdW kernel read from vdw_kernel.bindat
  0.0000  0.2424  0.5071  0.7962  1.1119  1.4567  1.8333  2.2446  2.6937  3.1842
  3.7199  4.3049  4.9438  5.6415  6.4036  7.2358  8.1446  9.1372 10.2212 11.4050
 12.6979 14.1099 15.6519 17.3360 19.1751 21.1837 23.3773 25.7729 28.3892 31.2465
 34.3669 37.7748 41.4965 45.5611 50.0000

    POTLOK:  cpu time   52.3280: real time   53.0151
    SETDIJ:  cpu time    0.0400: real time    0.0399
     EDDAV:  cpu time   22.4720: real time   22.7678
 BZINTS: Fermi energy:  5.832413; 58.000000 electrons
         Band energy: -14.908843;  BLOECHL correction: -0.051433
       DOS:  cpu time    0.0040: real time    0.0046
    --------------------------------------------
      LOOP:  cpu time   74.8440: real time   75.8274

 eigenvalue-minimisations  :   960
 total energy-change (2. order) : 0.4072930E+03  (-0.1665178E+04)
 number of electron      58.0000000 magnetization       7.0000000
 augmentation part       58.0000000 magnetization       7.0000000

 Free energy of the ion-electron system (eV)
  ---------------------------------------------------
  alpha Z        PSCENC =        19.48278107
  Ewald energy   TEWEN  =      6490.34799790
  -Hartree energ DENC   =     -8911.58112556
  -exchange      EXHF   =         0.00000000
  -V(xc)+E(xc)   XCENC  =        21.98436887
  PAW double counting   =      1321.32746231    -1230.37952891
  entropy T*S    EENTRO =         0.00000000
  eigenvalues    EBANDS =       -14.90884311
  atomic energy  EATOM  =      2711.01990166
  Solvation  Ediel_sol  =         0.00000000
  ---------------------------------------------------
  free energy    TOTEN  =       407.29301423 eV

  energy without entropy =      407.29301423  energy(sigma->0) =      407.29301423


--------------------------------------------------------------------------------------------------------




--------------------------------------- Iteration      1(   2)  ---------------------------------------


     EDDAV:  cpu time   26.6560: real time   27.0811
 BZINTS: Fermi energy: -1.015559; 58.000000 electrons
         Band energy:-389.684648;  BLOECHL correction: -0.108202
       DOS:  cpu time    0.0080: real time    0.0055
    --------------------------------------------
      LOOP:  cpu time   26.6640: real time   27.0866

 eigenvalue-minimisations  :  1168
 total energy-change (2. order) :-0.3747758E+03  (-0.3442161E+03)
 number of electron      58.0000000 magnetization       7.0000000
 augmentation part       58.0000000 magnetization       7.0000000

 Free energy of the ion-electron system (eV)
  ---------------------------------------------------
  alpha Z        PSCENC =        19.48278107
  Ewald energy   TEWEN  =      6490.34799790
  -Hartree energ DENC   =     -8911.58112556
  -exchange      EXHF   =         0.00000000
  -V(xc)+E(xc)   XCENC  =        21.98436887
  PAW double counting   =      1321.32746231    -1230.37952891
  entropy T*S    EENTRO =         0.00000000
  eigenvalues    EBANDS =      -389.68464818
  atomic energy  EATOM  =      2711.01990166
  Solvation  Ediel_sol  =         0.00000000
  ---------------------------------------------------
  free energy    TOTEN  =        32.51720915 eV

  energy without entropy =       32.51720915  energy(sigma->0) =       32.51720915


--------------------------------------------------------------------------------------------------------




--------------------------------------- Iteration      1(   3)  ---------------------------------------


     EDDAV:  cpu time   32.8840: real time   33.0874
 BZINTS: Fermi energy: -2.773938; 58.000000 electrons
         Band energy:-474.154222;  BLOECHL correction:  0.000000
       DOS:  cpu time    0.0000: real time    0.0017
    --------------------------------------------
      LOOP:  cpu time   32.8840: real time   33.0891

 eigenvalue-minimisations  :  1456
 total energy-change (2. order) :-0.8446957E+02  (-0.8073267E+02)
 number of electron      58.0000000 magnetization       7.0000000
 augmentation part       58.0000000 magnetization       7.0000000

 Free energy of the ion-electron system (eV)
  ---------------------------------------------------
  alpha Z        PSCENC =        19.48278107
  Ewald energy   TEWEN  =      6490.34799790
  -Hartree energ DENC   =     -8911.58112556
  -exchange      EXHF   =         0.00000000
  -V(xc)+E(xc)   XCENC  =        21.98436887
  PAW double counting   =      1321.32746231    -1230.37952891
  entropy T*S    EENTRO =         0.00000000
  eigenvalues    EBANDS =      -474.15422212
  atomic energy  EATOM  =      2711.01990166
  Solvation  Ediel_sol  =         0.00000000
  ---------------------------------------------------
  free energy    TOTEN  =       -51.95236478 eV

  energy without entropy =      -51.95236478  energy(sigma->0) =      -51.95236478


--------------------------------------------------------------------------------------------------------




--------------------------------------- Iteration      1(   4)  ---------------------------------------


     EDDAV:  cpu time   29.9880: real time   30.4138
 BZINTS: Fermi energy: -2.810994; 58.000000 electrons
         Band energy:-478.759397;  BLOECHL correction: -0.006585
       DOS:  cpu time    0.0040: real time    0.0051
    --------------------------------------------
      LOOP:  cpu time   29.9920: real time   30.4189

 eigenvalue-minimisations  :  1328
 total energy-change (2. order) :-0.4605175E+01  (-0.4483211E+01)
 number of electron      58.0000000 magnetization       7.0000000
 augmentation part       58.0000000 magnetization       7.0000000

 Free energy of the ion-electron system (eV)
  ---------------------------------------------------
  alpha Z        PSCENC =        19.48278107
  Ewald energy   TEWEN  =      6490.34799790
  -Hartree energ DENC   =     -8911.58112556
  -exchange      EXHF   =         0.00000000
  -V(xc)+E(xc)   XCENC  =        21.98436887
  PAW double counting   =      1321.32746231    -1230.37952891
  entropy T*S    EENTRO =         0.00000000
  eigenvalues    EBANDS =      -478.75939681
  atomic energy  EATOM  =      2711.01990166
  Solvation  Ediel_sol  =         0.00000000
  ---------------------------------------------------
  free energy    TOTEN  =       -56.55753947 eV

  energy without entropy =      -56.55753947  energy(sigma->0) =      -56.55753947


--------------------------------------------------------------------------------------------------------




--------------------------------------- Iteration      1(   5)  ---------------------------------------


     EDDAV:  cpu time   30.3440: real time   30.6139
 BZINTS: Fermi energy: -2.812265; 58.000000 electrons
         Band energy:-478.873376;  BLOECHL correction: -0.006614
       DOS:  cpu time    0.0040: real time    0.0059
    CHARGE:  cpu time    1.9480: real time    1.9530
    MIXING:  cpu time    0.0360: real time    0.0396
    --------------------------------------------
      LOOP:  cpu time   32.3320: real time   32.6125

 eigenvalue-minimisations  :  1344
 total energy-change (2. order) :-0.1139789E+00  (-0.1138706E+00)
 number of electron      57.9999997 magnetization       6.8040149
 augmentation part       -2.6224703 magnetization       4.7561307

 Broyden mixing:
  rms(total) = 0.26773E+01    rms(broyden)= 0.26771E+01
  rms(prec ) = 0.29972E+01
  weight for this iteration     100.00

 Free energy of the ion-electron system (eV)
  ---------------------------------------------------
  alpha Z        PSCENC =        19.48278107
  Ewald energy   TEWEN  =      6490.34799790
  -Hartree energ DENC   =     -8911.58112556
  -exchange      EXHF   =         0.00000000
  -V(xc)+E(xc)   XCENC  =        21.98436887
  PAW double counting   =      1321.32746231    -1230.37952891
  entropy T*S    EENTRO =         0.00000000
  eigenvalues    EBANDS =      -478.87337574
  atomic energy  EATOM  =      2711.01990166
  Solvation  Ediel_sol  =         0.00000000
  ---------------------------------------------------
  free energy    TOTEN  =       -56.67151840 eV

  energy without entropy =      -56.67151840  energy(sigma->0) =      -56.67151840


--------------------------------------------------------------------------------------------------------




--------------------------------------- Iteration      1(   6)  ---------------------------------------


    POTLOK:  cpu time   51.8160: real time   52.1906
    SETDIJ:  cpu time    0.0400: real time    0.0400
     EDDAV:  cpu time   28.3560: real time   28.5665
 BZINTS: Fermi energy: -4.938752; 58.000000 electrons
         Band energy:-633.656225;  BLOECHL correction: -0.025423
       DOS:  cpu time    0.0080: real time    0.0071
    CHARGE:  cpu time    1.9240: real time    1.9381
    MIXING:  cpu time    0.0440: real time    0.0420
    --------------------------------------------
      LOOP:  cpu time   82.1880: real time   82.7843

 eigenvalue-minimisations  :  1248
 total energy-change (2. order) :-0.7409929E+02  (-0.3501668E+02)
 number of electron      58.0000003 magnetization       6.6284983
 augmentation part        9.6999809 magnetization       5.7022016

 Broyden mixing:
  rms(total) = 0.66817E+01    rms(broyden)= 0.66816E+01
  rms(prec ) = 0.73433E+01
  weight for this iteration     100.00

 eigenvalues of (default mixing * dielectric matrix)
  average eigenvalue GAMMA=   0.2385
  0.2385

 Free energy of the ion-electron system (eV)
  ---------------------------------------------------
  alpha Z        PSCENC =        19.48278107
  Ewald energy   TEWEN  =      6490.34799790
  -Hartree energ DENC   =     -8839.65977613
  -exchange      EXHF   =         0.00000000
  -V(xc)+E(xc)   XCENC  =        21.99234753
  PAW double counting   =      1196.10427766    -1096.40211083
  entropy T*S    EENTRO =         0.00000000
  eigenvalues    EBANDS =      -633.65622505
  atomic energy  EATOM  =      2711.01990166
  Solvation  Ediel_sol  =         0.00000000
  ---------------------------------------------------
  free energy    TOTEN  =      -130.77080620 eV

  energy without entropy =     -130.77080620  energy(sigma->0) =     -130.77080620


--------------------------------------------------------------------------------------------------------




--------------------------------------- Iteration      1(   7)  ---------------------------------------


    POTLOK:  cpu time   52.3000: real time   52.4094
    SETDIJ:  cpu time    0.0760: real time    0.0788
     EDDAV:  cpu time   27.8520: real time   28.1891
 BZINTS: Fermi energy: -4.454310; 58.000000 electrons
         Band energy:-487.867758;  BLOECHL correction: -0.001749
       DOS:  cpu time    0.0040: real time    0.0068
    CHARGE:  cpu time    1.8320: real time    1.9551
    MIXING:  cpu time    0.0400: real time    0.0404
    --------------------------------------------
      LOOP:  cpu time   82.1040: real time   82.6795

 eigenvalue-minimisations  :  1232
 total energy-change (2. order) : 0.8549782E+02  (-0.8624330E+01)
 number of electron      58.0000002 magnetization       6.5312736
 augmentation part        2.8288152 magnetization       5.4541629

 Broyden mixing:
  rms(total) = 0.14253E+01    rms(broyden)= 0.14250E+01
  rms(prec ) = 0.15598E+01
  weight for this iteration     100.00

 eigenvalues of (default mixing * dielectric matrix)
  average eigenvalue GAMMA=   0.3530
  0.3530  0.3530

 Free energy of the ion-electron system (eV)
  ---------------------------------------------------
  alpha Z        PSCENC =        19.48278107
  Ewald energy   TEWEN  =      6490.34799790
  -Hartree energ DENC   =     -8890.26880560
  -exchange      EXHF   =         0.00000000
  -V(xc)+E(xc)   XCENC  =        21.04352971
  PAW double counting   =      1286.72673694    -1195.75737028
  entropy T*S    EENTRO =         0.00000000
  eigenvalues    EBANDS =      -487.86775753
  atomic energy  EATOM  =      2711.01990166
  Solvation  Ediel_sol  =         0.00000000
  ---------------------------------------------------
  free energy    TOTEN  =       -45.27298613 eV

  energy without entropy =      -45.27298613  energy(sigma->0) =      -45.27298613


--------------------------------------------------------------------------------------------------------




--------------------------------------- Iteration      1(   8)  ---------------------------------------


    POTLOK:  cpu time   50.7640: real time   51.9251
    SETDIJ:  cpu time    0.0400: real time    0.0365
     EDDAV:  cpu time   34.8280: real time   35.1696
 BZINTS: Fermi energy: -3.804683; 58.000000 electrons
         Band energy:-482.626825;  BLOECHL correction: -0.007960
       DOS:  cpu time    0.0040: real time    0.0071
    CHARGE:  cpu time    1.9800: real time    1.9815
    MIXING:  cpu time    0.0640: real time    0.0635
    --------------------------------------------
      LOOP:  cpu time   87.6800: real time   89.1833

 eigenvalue-minimisations  :  1584
 total energy-change (2. order) :-0.6393519E+00  (-0.1317540E+01)
 number of electron      58.0000000 magnetization       6.6181596
 augmentation part        0.7350730 magnetization       3.6511539

 Broyden mixing:
  rms(total) = 0.15065E+01    rms(broyden)= 0.15065E+01
  rms(prec ) = 0.15155E+01
  weight for this iteration     100.00

 eigenvalues of (default mixing * dielectric matrix)
  average eigenvalue GAMMA=   0.3485
  0.3397  0.3529  0.3529

 Free energy of the ion-electron system (eV)
  ---------------------------------------------------
  alpha Z        PSCENC =        19.48278107
  Ewald energy   TEWEN  =      6490.34799790
  -Hartree energ DENC   =     -8896.20747191
  -exchange      EXHF   =         0.00000000
  -V(xc)+E(xc)   XCENC  =        21.60462628
  PAW double counting   =      1296.44231114    -1205.97565928
  entropy T*S    EENTRO =         0.00000000
  eigenvalues    EBANDS =      -482.62682488
  atomic energy  EATOM  =      2711.01990166
  Solvation  Ediel_sol  =         0.00000000
  ---------------------------------------------------
  free energy    TOTEN  =       -45.91233802 eV

  energy without entropy =      -45.91233802  energy(sigma->0) =      -45.91233802


--------------------------------------------------------------------------------------------------------




--------------------------------------- Iteration      1(   9)  ---------------------------------------


    POTLOK:  cpu time   51.1000: real time   51.3166
    SETDIJ:  cpu time    0.0400: real time    0.0382
     EDDAV:  cpu time   32.8480: real time   33.2778
 BZINTS: Fermi energy: -4.008585; 58.000000 electrons
         Band energy:-485.613874;  BLOECHL correction: -0.005711
       DOS:  cpu time    0.0040: real time    0.0077
    CHARGE:  cpu time    1.9400: real time    1.9493
    MIXING:  cpu time    0.0440: real time    0.0415
    --------------------------------------------
      LOOP:  cpu time   85.9760: real time   86.6310

 eigenvalue-minimisations  :  1504
 total energy-change (2. order) :-0.4506528E+00  (-0.6291091E-01)
 number of electron      58.0000000 magnetization       6.8499015
 augmentation part        1.1380278 magnetization       3.8721886

 Broyden mixing:
  rms(total) = 0.13212E+01    rms(broyden)= 0.13212E+01
  rms(prec ) = 0.13261E+01
  weight for this iteration     100.00

 eigenvalues of (default mixing * dielectric matrix)
  average eigenvalue GAMMA=   0.4535
  0.5518  0.5518  0.3553  0.3553

 Free energy of the ion-electron system (eV)
  ---------------------------------------------------
  alpha Z        PSCENC =        19.48278107
  Ewald energy   TEWEN  =      6490.34799790
  -Hartree energ DENC   =     -8894.07377388
  -exchange      EXHF   =         0.00000000
  -V(xc)+E(xc)   XCENC  =        22.14961974
  PAW double counting   =      1291.47014460    -1201.14578830
  entropy T*S    EENTRO =         0.00000000
  eigenvalues    EBANDS =      -485.61387361
  atomic energy  EATOM  =      2711.01990166
  Solvation  Ediel_sol  =         0.00000000
  ---------------------------------------------------
  free energy    TOTEN  =       -46.36299082 eV

  energy without entropy =      -46.36299082  energy(sigma->0) =      -46.36299082


--------------------------------------------------------------------------------------------------------




--------------------------------------- Iteration      1(  10)  ---------------------------------------


    POTLOK:  cpu time   50.8760: real time   51.1009
    SETDIJ:  cpu time    0.0400: real time    0.0374
     EDDAV:  cpu time   33.8880: real time   34.0853
 BZINTS: Fermi energy: -4.093608; 58.000000 electrons
         Band energy:-486.266056;  BLOECHL correction: -0.008811
       DOS:  cpu time    0.0040: real time    0.0052
    CHARGE:  cpu time    1.9080: real time    1.9729
    MIXING:  cpu time    0.0720: real time    0.0752
    --------------------------------------------
      LOOP:  cpu time   86.7880: real time   87.2769

 eigenvalue-minimisations  :  1536
 total energy-change (2. order) :-0.6921790E+00  (-0.3049708E-01)
 number of electron      58.0000000 magnetization       7.2930945
 augmentation part        1.3119454 magnetization       4.5175310

 Broyden mixing:
  rms(total) = 0.93417E+00    rms(broyden)= 0.93416E+00
  rms(prec ) = 0.94330E+00
  weight for this iteration     100.00

 eigenvalues of (default mixing * dielectric matrix)
  average eigenvalue GAMMA=   0.6893
  1.0209  1.0209  0.4847  0.4847  0.4351

 Free energy of the ion-electron system (eV)
  ---------------------------------------------------
  alpha Z        PSCENC =        19.48278107
  Ewald energy   TEWEN  =      6490.34799790
  -Hartree energ DENC   =     -8894.85890083
  -exchange      EXHF   =         0.00000000
  -V(xc)+E(xc)   XCENC  =        23.47816117
  PAW double counting   =      1290.55207724    -1200.81113166
  entropy T*S    EENTRO =         0.00000000
  eigenvalues    EBANDS =      -486.26605641
  atomic energy  EATOM  =      2711.01990166
  Solvation  Ediel_sol  =         0.00000000
  ---------------------------------------------------
  free energy    TOTEN  =       -47.05516986 eV

  energy without entropy =      -47.05516986  energy(sigma->0) =      -47.05516986


--------------------------------------------------------------------------------------------------------




--------------------------------------- Iteration      1(  11)  ---------------------------------------


    POTLOK:  cpu time   50.8840: real time   51.0934
    SETDIJ:  cpu time    0.0360: real time    0.0360
     EDDAV:  cpu time   31.4880: real time   32.0441
 BZINTS: Fermi energy: -4.160762; 58.000000 electrons
         Band energy:-488.075342;  BLOECHL correction: -0.009937
       DOS:  cpu time    0.0080: real time    0.0073
    CHARGE:  cpu time    1.9920: real time    2.0036
    MIXING:  cpu time    0.0400: real time    0.0431
    --------------------------------------------
      LOOP:  cpu time   84.4480: real time   85.2275

 eigenvalue-minimisations  :  1440
 total energy-change (2. order) :-0.5154953E+00  (-0.4430224E-01)
 number of electron      58.0000000 magnetization       7.6152669
 augmentation part        1.3035339 magnetization       5.2076961

 Broyden mixing:
  rms(total) = 0.31391E+00    rms(broyden)= 0.31389E+00
  rms(prec ) = 0.32960E+00
  weight for this iteration     100.00

 eigenvalues of (default mixing * dielectric matrix)
  average eigenvalue GAMMA=   0.8333
  1.1093  1.1093  1.0757  0.7931  0.4561  0.4561

 Free energy of the ion-electron system (eV)
  ---------------------------------------------------
  alpha Z        PSCENC =        19.48278107
  Ewald energy   TEWEN  =      6490.34799790
  -Hartree energ DENC   =     -8895.44586955
  -exchange      EXHF   =         0.00000000
  -V(xc)+E(xc)   XCENC  =        26.43730999
  PAW double counting   =      1286.01665983    -1197.35410441
  entropy T*S    EENTRO =         0.00000000
  eigenvalues    EBANDS =      -488.07534162
  atomic energy  EATOM  =      2711.01990166
  Solvation  Ediel_sol  =         0.00000000
  ---------------------------------------------------
  free energy    TOTEN  =       -47.57066512 eV

  energy without entropy =      -47.57066512  energy(sigma->0) =      -47.57066512


--------------------------------------------------------------------------------------------------------




--------------------------------------- Iteration      1(  12)  ---------------------------------------


    POTLOK:  cpu time   50.9320: real time   51.1629
    SETDIJ:  cpu time    0.0360: real time    0.0365
     EDDAV:  cpu time   33.9000: real time   34.4023
 BZINTS: Fermi energy: -4.180277; 58.000000 electrons
         Band energy:-491.119175;  BLOECHL correction: -0.010052
       DOS:  cpu time    0.0040: real time    0.0076
    CHARGE:  cpu time    1.9280: real time    1.9539
    MIXING:  cpu time    0.0440: real time    0.0444
    --------------------------------------------
      LOOP:  cpu time   86.8440: real time   87.6076

 eigenvalue-minimisations  :  1552
 total energy-change (2. order) : 0.2033928E-01  (-0.2613908E-01)
 number of electron      58.0000000 magnetization       7.6217044
 augmentation part        1.2662247 magnetization       5.4157494

 Broyden mixing:
  rms(total) = 0.22789E+00    rms(broyden)= 0.22788E+00
  rms(prec ) = 0.23747E+00
  weight for this iteration     100.00

 eigenvalues of (default mixing * dielectric matrix)
  average eigenvalue GAMMA=   0.9293
  1.8728  1.1067  1.1067  0.4610  0.4610  0.7486  0.7486

 Free energy of the ion-electron system (eV)
  ---------------------------------------------------
  alpha Z        PSCENC =        19.48278107
  Ewald energy   TEWEN  =      6490.34799790
  -Hartree energ DENC   =     -8893.81044486
  -exchange      EXHF   =         0.00000000
  -V(xc)+E(xc)   XCENC  =        28.54056916
  PAW double counting   =      1279.68851089    -1191.70046676
  entropy T*S    EENTRO =         0.00000000
  eigenvalues    EBANDS =      -491.11917491
  atomic energy  EATOM  =      2711.01990166
  Solvation  Ediel_sol  =         0.00000000
  ---------------------------------------------------
  free energy    TOTEN  =       -47.55032584 eV

  energy without entropy =      -47.55032584  energy(sigma->0) =      -47.55032584


--------------------------------------------------------------------------------------------------------




--------------------------------------- Iteration      1(  13)  ---------------------------------------


    POTLOK:  cpu time   51.0520: real time   51.2904
    SETDIJ:  cpu time    0.0400: real time    0.0382
     EDDAV:  cpu time   31.6200: real time   32.1373
 BZINTS: Fermi energy: -4.176114; 58.000000 electrons
         Band energy:-491.312275;  BLOECHL correction: -0.009853
       DOS:  cpu time    0.0040: real time    0.0073
    CHARGE:  cpu time    1.9480: real time    1.9641
    MIXING:  cpu time    0.0440: real time    0.0446
    --------------------------------------------
      LOOP:  cpu time   84.7080: real time   85.4820

 eigenvalue-minimisations  :  1440
 total energy-change (2. order) :-0.1790805E-01  (-0.1115597E-01)
 number of electron      58.0000000 magnetization       7.6534287
 augmentation part        1.1513890 magnetization       5.4125291

 Broyden mixing:
  rms(total) = 0.62264E-01    rms(broyden)= 0.62256E-01
  rms(prec ) = 0.66680E-01
  weight for this iteration     100.00

 eigenvalues of (default mixing * dielectric matrix)
  average eigenvalue GAMMA=   0.9936
  2.2403  1.1432  1.1432  1.1105  0.4602  0.4602  0.6956  0.6956

 Free energy of the ion-electron system (eV)
  ---------------------------------------------------
  alpha Z        PSCENC =        19.48278107
  Ewald energy   TEWEN  =      6490.34799790
  -Hartree energ DENC   =     -8893.05427670
  -exchange      EXHF   =         0.00000000
  -V(xc)+E(xc)   XCENC  =        27.69545509
  PAW double counting   =      1280.46362330    -1192.21144083
  entropy T*S    EENTRO =         0.00000000
  eigenvalues    EBANDS =      -491.31227540
  atomic energy  EATOM  =      2711.01990166
  Solvation  Ediel_sol  =         0.00000000
  ---------------------------------------------------
  free energy    TOTEN  =       -47.56823390 eV

  energy without entropy =      -47.56823390  energy(sigma->0) =      -47.56823390


--------------------------------------------------------------------------------------------------------




--------------------------------------- Iteration      1(  14)  ---------------------------------------


    POTLOK:  cpu time   51.0320: real time   51.2540
    SETDIJ:  cpu time    0.0440: real time    0.0438
     EDDAV:  cpu time   30.1400: real time   30.7482
 BZINTS: Fermi energy: -4.161780; 58.000000 electrons
         Band energy:-490.937432;  BLOECHL correction: -0.009852
       DOS:  cpu time    0.0080: real time    0.0078
    CHARGE:  cpu time    1.9280: real time    1.9573
    MIXING:  cpu time    0.0480: real time    0.0502
    --------------------------------------------
      LOOP:  cpu time   83.2000: real time   84.0612

 eigenvalue-minimisations  :  1376
 total energy-change (2. order) :-0.9740598E-02  (-0.3897762E-02)
 number of electron      58.0000000 magnetization       7.7066586
 augmentation part        1.0814135 magnetization       5.4463820

 Broyden mixing:
  rms(total) = 0.53700E-01    rms(broyden)= 0.53695E-01
  rms(prec ) = 0.54128E-01
  weight for this iteration     100.00

 eigenvalues of (default mixing * dielectric matrix)
  average eigenvalue GAMMA=   1.0085
  2.3933  1.1409  1.1409  1.2914  0.4605  0.4605  0.7774  0.7774  0.6339

 Free energy of the ion-electron system (eV)
  ---------------------------------------------------
  alpha Z        PSCENC =        19.48278107
  Ewald energy   TEWEN  =      6490.34799790
  -Hartree energ DENC   =     -8893.24431237
  -exchange      EXHF   =         0.00000000
  -V(xc)+E(xc)   XCENC  =        27.42924305
  PAW double counting   =      1282.17572482    -1193.85187851
  entropy T*S    EENTRO =         0.00000000
  eigenvalues    EBANDS =      -490.93743211
  atomic energy  EATOM  =      2711.01990166
  Solvation  Ediel_sol  =         0.00000000
  ---------------------------------------------------
  free energy    TOTEN  =       -47.57797449 eV

  energy without entropy =      -47.57797449  energy(sigma->0) =      -47.57797449


--------------------------------------------------------------------------------------------------------




--------------------------------------- Iteration      1(  15)  ---------------------------------------


    POTLOK:  cpu time   51.0560: real time   51.3118
    SETDIJ:  cpu time    0.0400: real time    0.0384
     EDDAV:  cpu time   29.4880: real time   29.8377
 BZINTS: Fermi energy: -4.150980; 58.000000 electrons
         Band energy:-490.612861;  BLOECHL correction: -0.009932
       DOS:  cpu time    0.0080: real time    0.0074
    CHARGE:  cpu time    1.9400: real time    1.9444
    MIXING:  cpu time    0.0480: real time    0.0475
    --------------------------------------------
      LOOP:  cpu time   82.5800: real time   83.1872

 eigenvalue-minimisations  :  1328
 total energy-change (2. order) :-0.3757373E-02  (-0.1791268E-02)
 number of electron      58.0000000 magnetization       7.7715129
 augmentation part        1.0549444 magnetization       5.5079601

 Broyden mixing:
  rms(total) = 0.53810E-01    rms(broyden)= 0.53809E-01
  rms(prec ) = 0.55309E-01
  weight for this iteration     100.00

 eigenvalues of (default mixing * dielectric matrix)
  average eigenvalue GAMMA=   1.1035
  2.3368  2.3368  1.1400  1.1400  0.4605  0.4605  0.8986  0.8986  0.7139  0.6498

 Free energy of the ion-electron system (eV)
  ---------------------------------------------------
  alpha Z        PSCENC =        19.48278107
  Ewald energy   TEWEN  =      6490.34799790
  -Hartree energ DENC   =     -8893.59258975
  -exchange      EXHF   =         0.00000000
  -V(xc)+E(xc)   XCENC  =        27.46128856
  PAW double counting   =      1283.41708873    -1195.10533944
  entropy T*S    EENTRO =         0.00000000
  eigenvalues    EBANDS =      -490.61286060
  atomic energy  EATOM  =      2711.01990166
  Solvation  Ediel_sol  =         0.00000000
  ---------------------------------------------------
  free energy    TOTEN  =       -47.58173187 eV

  energy without entropy =      -47.58173187  energy(sigma->0) =      -47.58173187


--------------------------------------------------------------------------------------------------------




--------------------------------------- Iteration      1(  16)  ---------------------------------------


    POTLOK:  cpu time   50.7640: real time   51.0987
    SETDIJ:  cpu time    0.0400: real time    0.0382
     EDDAV:  cpu time   24.1600: real time   24.2727
 BZINTS: Fermi energy: -4.149479; 58.000000 electrons
         Band energy:-490.504976;  BLOECHL correction: -0.009974
       DOS:  cpu time    0.0080: real time    0.0076
    CHARGE:  cpu time    1.9880: real time    1.9915
    MIXING:  cpu time    0.0480: real time    0.0477
    --------------------------------------------
      LOOP:  cpu time   77.0080: real time   77.4562

 eigenvalue-minimisations  :  1056
 total energy-change (2. order) :-0.1803270E-02  (-0.5866291E-03)
 number of electron      58.0000000 magnetization       7.8238398
 augmentation part        1.0493340 magnetization       5.5548086

 Broyden mixing:
  rms(total) = 0.62420E-01    rms(broyden)= 0.62420E-01
  rms(prec ) = 0.64157E-01
  weight for this iteration     100.00

 eigenvalues of (default mixing * dielectric matrix)
  average eigenvalue GAMMA=   1.1466
  2.9129  2.3877  1.1417  1.1417  0.9849  0.9849  0.4605  0.4605  0.7478  0.7478
  0.6418

 Free energy of the ion-electron system (eV)
  ---------------------------------------------------
  alpha Z        PSCENC =        19.48278107
  Ewald energy   TEWEN  =      6490.34799790
  -Hartree energ DENC   =     -8893.68651084
  -exchange      EXHF   =         0.00000000
  -V(xc)+E(xc)   XCENC  =        27.42697438
  PAW double counting   =      1284.27718499    -1195.94688809
  entropy T*S    EENTRO =         0.00000000
  eigenvalues    EBANDS =      -490.50497622
  atomic energy  EATOM  =      2711.01990166
  Solvation  Ediel_sol  =         0.00000000
  ---------------------------------------------------
  free energy    TOTEN  =       -47.58353514 eV

  energy without entropy =      -47.58353514  energy(sigma->0) =      -47.58353514


--------------------------------------------------------------------------------------------------------




--------------------------------------- Iteration      1(  17)  ---------------------------------------


    POTLOK:  cpu time   51.0560: real time   51.1890
    SETDIJ:  cpu time    0.0480: real time    0.0460
     EDDAV:  cpu time   26.8200: real time   27.0473
 BZINTS: Fermi energy: -4.159707; 58.000000 electrons
         Band energy:-490.925469;  BLOECHL correction: -0.009944
       DOS:  cpu time    0.0080: real time    0.0074
    CHARGE:  cpu time    1.9320: real time    1.9529
    MIXING:  cpu time    0.0480: real time    0.0485
    --------------------------------------------
      LOOP:  cpu time   79.9120: real time   80.2911

 eigenvalue-minimisations  :  1184
 total energy-change (2. order) : 0.1644674E-04  (-0.1979188E-03)
 number of electron      58.0000000 magnetization       7.8873275
 augmentation part        1.0635852 magnetization       5.6243817

 Broyden mixing:
  rms(total) = 0.46652E-01    rms(broyden)= 0.46652E-01
  rms(prec ) = 0.47619E-01
  weight for this iteration     100.00

 eigenvalues of (default mixing * dielectric matrix)
  average eigenvalue GAMMA=   1.2214
  3.6731  2.3045  1.1427  1.1427  1.2756  1.2756  0.4605  0.4605  0.7954  0.7954
  0.7000  0.6312

 Free energy of the ion-electron system (eV)
  ---------------------------------------------------
  alpha Z        PSCENC =        19.48278107
  Ewald energy   TEWEN  =      6490.34799790
  -Hartree energ DENC   =     -8893.32138340
  -exchange      EXHF   =         0.00000000
  -V(xc)+E(xc)   XCENC  =        27.48939451
  PAW double counting   =      1283.77706122    -1195.45380276
  entropy T*S    EENTRO =         0.00000000
  eigenvalues    EBANDS =      -490.92546889
  atomic energy  EATOM  =      2711.01990166
  Solvation  Ediel_sol  =         0.00000000
  ---------------------------------------------------
  free energy    TOTEN  =       -47.58351869 eV

  energy without entropy =      -47.58351869  energy(sigma->0) =      -47.58351869


--------------------------------------------------------------------------------------------------------




--------------------------------------- Iteration      1(  18)  ---------------------------------------


    POTLOK:  cpu time   51.0960: real time   51.2609
    SETDIJ:  cpu time    0.0360: real time    0.0368
     EDDAV:  cpu time   29.7040: real time   30.4942
 BZINTS: Fermi energy: -4.173793; 58.000000 electrons
         Band energy:-491.544711;  BLOECHL correction: -0.009895
       DOS:  cpu time    0.0040: real time    0.0078
    CHARGE:  cpu time    1.9680: real time    1.9740
    MIXING:  cpu time    0.0560: real time    0.0539
    --------------------------------------------
      LOOP:  cpu time   82.8640: real time   83.8276

 eigenvalue-minimisations  :  1360
 total energy-change (2. order) :-0.9474529E-03  (-0.1437371E-03)
 number of electron      58.0000000 magnetization       7.9626771
 augmentation part        1.0795046 magnetization       5.7082569

 Broyden mixing:
  rms(total) = 0.24604E-01    rms(broyden)= 0.24604E-01
  rms(prec ) = 0.24935E-01
  weight for this iteration     100.00

 eigenvalues of (default mixing * dielectric matrix)
  average eigenvalue GAMMA=   1.4244
  5.8090  2.5913  1.1423  1.1423  1.7783  1.3187  0.4605  0.4605  0.8796  0.8796
  0.7174  0.7174  0.6199

 Free energy of the ion-electron system (eV)
  ---------------------------------------------------
  alpha Z        PSCENC =        19.48278107
  Ewald energy   TEWEN  =      6490.34799790
  -Hartree energ DENC   =     -8892.77145096
  -exchange      EXHF   =         0.00000000
  -V(xc)+E(xc)   XCENC  =        27.57890513
  PAW double counting   =      1283.00801991    -1194.70590963
  entropy T*S    EENTRO =         0.00000000
  eigenvalues    EBANDS =      -491.54471122
  atomic energy  EATOM  =      2711.01990166
  Solvation  Ediel_sol  =         0.00000000
  ---------------------------------------------------
  free energy    TOTEN  =       -47.58446614 eV

  energy without entropy =      -47.58446614  energy(sigma->0) =      -47.58446614


--------------------------------------------------------------------------------------------------------




--------------------------------------- Iteration      1(  19)  ---------------------------------------


    POTLOK:  cpu time   51.1240: real time   51.3167
    SETDIJ:  cpu time    0.0360: real time    0.0364
     EDDAV:  cpu time   27.6200: real time   27.8335
 BZINTS: Fermi energy: -4.186170; 58.000000 electrons
         Band energy:-492.130552;  BLOECHL correction: -0.009881
       DOS:  cpu time    0.0040: real time    0.0071
    CHARGE:  cpu time    1.9680: real time    1.9802
    MIXING:  cpu time    0.0520: real time    0.0517
    --------------------------------------------
      LOOP:  cpu time   80.8040: real time   81.2256

 eigenvalue-minimisations  :  1232
 total energy-change (2. order) :-0.8430828E-03  (-0.8609900E-04)
 number of electron      58.0000000 magnetization       7.9883130
 augmentation part        1.0860952 magnetization       5.7400090

 Broyden mixing:
  rms(total) = 0.70910E-02    rms(broyden)= 0.70905E-02
  rms(prec ) = 0.73925E-02
  weight for this iteration     100.00

 eigenvalues of (default mixing * dielectric matrix)
  average eigenvalue GAMMA=   1.5441
  7.7284  2.6379  1.1422  1.1422  1.6568  1.6568  0.9590  0.9590  0.4605  0.4605
  0.7441  0.7441  0.6910  0.6353

 Free energy of the ion-electron system (eV)
  ---------------------------------------------------
  alpha Z        PSCENC =        19.48278107
  Ewald energy   TEWEN  =      6490.34799790
  -Hartree energ DENC   =     -8892.23697659
  -exchange      EXHF   =         0.00000000
  -V(xc)+E(xc)   XCENC  =        27.65543248
  PAW double counting   =      1282.64850666    -1194.37240087
  entropy T*S    EENTRO =         0.00000000
  eigenvalues    EBANDS =      -492.13055154
  atomic energy  EATOM  =      2711.01990166
  Solvation  Ediel_sol  =         0.00000000
  ---------------------------------------------------
  free energy    TOTEN  =       -47.58530923 eV

  energy without entropy =      -47.58530923  energy(sigma->0) =      -47.58530923


--------------------------------------------------------------------------------------------------------




--------------------------------------- Iteration      1(  20)  ---------------------------------------


    POTLOK:  cpu time   51.0440: real time   51.2803
    SETDIJ:  cpu time    0.0360: real time    0.0366
     EDDAV:  cpu time   24.7160: real time   25.0017
 BZINTS: Fermi energy: -4.189646; 58.000000 electrons
         Band energy:-492.326380;  BLOECHL correction: -0.009885
       DOS:  cpu time    0.0040: real time    0.0051
    --------------------------------------------
      LOOP:  cpu time   75.8000: real time   76.3237

 eigenvalue-minimisations  :  1072
 total energy-change (2. order) :-0.4900704E-04  (-0.1967006E-04)
 number of electron      58.0000000 magnetization       7.9883130
 augmentation part        1.0860952 magnetization       5.7400090

 Free energy of the ion-electron system (eV)
  ---------------------------------------------------
  alpha Z        PSCENC =        19.48278107
  Ewald energy   TEWEN  =      6490.34799790
  -Hartree energ DENC   =     -8892.04823819
  -exchange      EXHF   =         0.00000000
  -V(xc)+E(xc)   XCENC  =        27.67213655
  PAW double counting   =      1282.77306254    -1194.50661936
  entropy T*S    EENTRO =         0.00000000
  eigenvalues    EBANDS =      -492.32638041
  atomic energy  EATOM  =      2711.01990166
  Solvation  Ediel_sol  =         0.00000000
  ---------------------------------------------------
  free energy    TOTEN  =       -47.58535823 eV

  energy without entropy =      -47.58535823  energy(sigma->0) =      -47.58535823


--------------------------------------------------------------------------------------------------------




 average (electrostatic) potential at core
  the test charge radii are     1.0210  0.9892  0.9698
  (the norm of the test charge is              1.0000)
       1 -54.2047       2 -54.2047       3 -94.6763       4 -94.6763       5 -95.1160
       6 -95.1160       7 -95.1159       8 -95.1160       9 -95.1160      10 -95.1159



 E-fermi :  -4.1896     XC(G=0):  -2.8439     alpha+bet : -2.1119


 spin component 1

 k-point     1 :       0.0000    0.0000    0.0000
  band No.  band energies     occupation 
      1     -16.2235      1.00000
      2     -15.7870      1.00000
      3     -15.3780      1.00000
      4     -15.3780      1.00000
      5     -15.3379      1.00000
      6     -15.3379      1.00000
      7     -11.9065      1.00000
      8      -9.6285      1.00000
      9      -7.7670      1.00000
     10      -7.7670      1.00000
     11      -7.6559      1.00000
     12      -7.5974      1.00000
     13      -7.3956      1.00000
     14      -7.3956      1.00000
     15      -7.1159      1.00000
     16      -7.1159      1.00000
     17      -6.8934      1.00000
     18      -6.8934      1.00000
     19      -6.7066      1.00000
     20      -6.4040      1.00000
     21      -6.3967      1.00000
     22      -6.3403      1.00000
     23      -6.3403      1.00000
     24      -6.3211      1.00000
     25      -6.3211      1.00000
     26      -5.4425      1.00000
     27      -5.4425      1.00000
     28      -5.2177      1.00000
     29      -5.1481      1.00000
     30      -4.7668      1.00000
     31      -4.7667      1.00000
     32      -4.1986      1.00000
     33      -4.1986      1.42188
     34      -3.9008      0.00000
     35      -3.9008      0.00000
     36      -3.4849      0.00000
     37      -3.1978      0.00000
     38      -1.3202      0.00000
     39      -1.3202      0.00000
     40       0.0944      0.00000
     41       0.1074      0.00000
     42       0.3239      0.00000
     43       0.3239      0.00000
     44       0.6099      0.00000
     45       1.5964      0.00000
     46       1.7433      0.00000
     47       2.0382      0.00000
     48       2.0385      0.00000

 k-point     2 :       0.2000    0.0000    0.0000
  band No.  band energies     occupation 
      1     -16.1479      1.00000
      2     -15.7393      1.00000
      3     -15.4534      1.00000
      4     -15.4119      1.00000
      5     -15.3724      1.00000
      6     -15.3596      1.00000
      7     -11.8955      1.00000
      8      -9.6869      1.00000
      9      -7.7685      1.00000
     10      -7.7058      1.00000
     11      -7.6538      1.00000
     12      -7.4329      1.00000
     13      -7.2593      1.00000
     14      -7.1922      1.00000
     15      -7.1143      1.00000
     16      -7.0724      1.00000
     17      -6.9646      1.00000
     18      -6.9166      1.00000
     19      -6.7468      1.00000
     20      -6.5463      1.00000
     21      -6.4734      1.00000
     22      -6.3200      1.00000
     23      -6.2497      1.00000
     24      -6.2378      1.00000
     25      -5.9549      1.00000
     26      -5.6012      1.00000
     27      -5.5668      1.00000
     28      -5.2895      1.00000
     29      -5.1528      1.00000
     30      -5.1204      1.00000
     31      -4.9126      1.00000
     32      -4.3366      1.00000
     33      -4.1891      0.39172
     34      -4.1415      0.00000
     35      -3.9712      0.00000
     36      -3.1689      0.00000
     37      -2.8866      0.00000
     38      -1.4075      0.00000
     39      -1.3399      0.00000
     40      -0.0334      0.00000
     41       0.0680      0.00000
     42       0.1501      0.00000
     43       0.3891      0.00000
     44       0.4826      0.00000
     45       1.6419      0.00000
     46       1.7240      0.00000
     47       2.0917      0.00000
     48       2.1407      0.00000

 k-point     3 :       0.4000    0.0000    0.0000
  band No.  band energies     occupation 
      1     -15.9442      1.00000
      2     -15.6707      1.00000
      3     -15.6190      1.00000
      4     -15.4727      1.00000
      5     -15.4326      1.00000
      6     -15.4150      1.00000
      7     -11.8724      1.00000
      8      -9.7623      1.00000
      9      -7.7340      1.00000
     10      -7.5997      1.00000
     11      -7.3969      1.00000
     12      -7.1983      1.00000
     13      -7.1611      1.00000
     14      -7.1488      1.00000
     15      -7.0955      1.00000
     16      -7.0557      1.00000
     17      -6.9472      1.00000
     18      -6.9242      1.00000
     19      -6.7302      1.00000
     20      -6.6202      1.00000
     21      -6.5352      1.00000
     22      -6.3166      1.00000
     23      -6.2061      1.00000
     24      -6.0742      1.00000
     25      -6.0170      1.00000
     26      -5.7332      1.00000
     27      -5.5716      1.00000
     28      -5.3922      1.00000
     29      -5.2965      1.00000
     30      -5.2419      1.00000
     31      -5.0589      1.00000
     32      -4.3833      1.00000
     33      -4.1799      0.31482
     34      -4.1547      0.02607
     35      -4.1335      0.00000
     36      -3.2871      0.00000
     37      -2.7050      0.00000
     38      -1.4639      0.00000
     39      -1.4359      0.00000
     40      -0.4183      0.00000
     41      -0.2254      0.00000
     42       0.3145      0.00000
     43       0.3174      0.00000
     44       0.5205      0.00000
     45       1.7573      0.00000
     46       1.9211      0.00000
     47       2.2341      0.00000
     48       2.3235      0.00000

 k-point     4 :       0.4000    0.2000    0.0000
  band No.  band energies     occupation 
      1     -16.0080      1.00000
      2     -15.6554      1.00000
      3     -15.5345      1.00000
      4     -15.5294      1.00000
      5     -15.4213      1.00000
      6     -15.3932      1.00000
      7     -11.8749      1.00000
      8      -9.7472      1.00000
      9      -7.7887      1.00000
     10      -7.5352      1.00000
     11      -7.4764      1.00000
     12      -7.2835      1.00000
     13      -7.1899      1.00000
     14      -7.1567      1.00000
     15      -7.0730      1.00000
     16      -7.0361      1.00000
     17      -6.9573      1.00000
     18      -6.9249      1.00000
     19      -6.7841      1.00000
     20      -6.6227      1.00000
     21      -6.4619      1.00000
     22      -6.3594      1.00000
     23      -6.1496      1.00000
     24      -6.1336      1.00000
     25      -5.9797      1.00000
     26      -5.6858      1.00000
     27      -5.6184      1.00000
     28      -5.4734      1.00000
     29      -5.2380      1.00000
     30      -5.1216      1.00000
     31      -4.9828      1.00000
     32      -4.5318      1.00000
     33      -4.1921      0.84621
     34      -4.1688      0.15650
     35      -3.9427      0.00000
     36      -3.2573      0.00000
     37      -2.7320      0.00000
     38      -1.5204      0.00000
     39      -1.4295      0.00000
     40      -0.4100      0.00000
     41      -0.2439      0.00000
     42       0.3404      0.00000
     43       0.4165      0.00000
     44       0.4756      0.00000
     45       1.7471      0.00000
     46       1.8800      0.00000
     47       2.2263      0.00000
     48       2.3986      0.00000

 k-point     5 :      -0.4000    0.2000    0.0000
  band No.  band energies     occupation 
      1     -15.7987      1.00000
      2     -15.7446      1.00000
      3     -15.5742      1.00000
      4     -15.5406      1.00000
      5     -15.4944      1.00000
      6     -15.4260      1.00000
      7     -11.8579      1.00000
      8      -9.7764      1.00000
      9      -7.6884      1.00000
     10      -7.4140      1.00000
     11      -7.3965      1.00000
     12      -7.2273      1.00000
     13      -7.1690      1.00000
     14      -7.1656      1.00000
     15      -7.1369      1.00000
     16      -7.0382      1.00000
     17      -6.9336      1.00000
     18      -6.9123      1.00000
     19      -6.7831      1.00000
     20      -6.6292      1.00000
     21      -6.4698      1.00000
     22      -6.3397      1.00000
     23      -6.2411      1.00000
[...]
     34      -0.5027      0.00000
     35      -0.3219      0.00000
     36       0.8232      0.00000
     37       1.1998      0.00000
     38       1.7434      0.00000
     39       1.8151      0.00000
     40       2.4621      0.00000
     41       2.5370      0.00000
     42       2.8106      0.00000
     43       3.0195      0.00000
     44       3.0280      0.00000
     45       3.5492      0.00000
     46       3.6995      0.00000
     47       4.0627      0.00000
     48       4.2201      0.00000

 k-point     5 :      -0.4000    0.2000    0.0000
  band No.  band energies     occupation 
      1     -16.5227      1.00000
      2     -16.0999      1.00000
      3     -15.7979      1.00000
      4     -15.6726      1.00000
      5     -15.4624      1.00000
      6     -15.2844      1.00000
      7     -10.5317      1.00000
      8      -9.3109      1.00000
      9      -8.0148      1.00000
     10      -7.5392      1.00000
     11      -7.4738      1.00000
     12      -6.9877      1.00000
     13      -6.8739      1.00000
     14      -6.4048      1.00000
     15      -6.0037      1.00000
     16      -5.7837      1.00000
     17      -5.6874      1.00000
     18      -5.4724      1.00000
     19      -5.4442      1.00000
     20      -5.1465      1.00000
     21      -5.0606      1.00000
     22      -4.4695      1.00000
     23      -4.2959      1.00000
     24      -4.1549      1.00000
     25      -3.4547      1.00000
     26      -2.7028      1.00000
     27      -2.2772      1.08148
     28      -2.2449      1.04834
     29      -1.6925      0.00000
     30      -1.5118      0.00000
     31      -1.4631      0.00000
     32      -0.8246      0.00000
     33      -0.7885      0.00000
     34      -0.4025      0.00000
     35      -0.3032      0.00000
     36       0.3458      0.00000
     37       1.2434      0.00000
     38       1.3891      0.00000
     39       1.7065      0.00000
     40       2.3547      0.00000
     41       2.5432      0.00000
     42       2.6507      0.00000
     43       3.2424      0.00000
     44       3.4540      0.00000
     45       3.4936      0.00000
     46       3.5321      0.00000
     47       3.9570      0.00000
     48       4.2719      0.00000


--------------------------------------------------------------------------------------------------------


 soft charge-density along one line, spin component           1
         0         1         2         3         4         5         6         7         8         9
 total charge-density along one line

 soft charge-density along one line, spin component           2
         0         1         2         3         4         5         6         7         8         9
 total charge-density along one line

 pseudopotential strength for first ion, spin component:           1
-11.031   0.029  -0.000  -0.000  -0.000   0.633  -0.007   0.000
  0.029 -10.975   0.000  -0.000  -0.000  -0.007   0.621  -0.000
 -0.000   0.000 -11.198   0.000   0.000   0.000  -0.000   0.672
 -0.000  -0.000   0.000 -10.975  -0.029   0.000   0.000  -0.000
 -0.000  -0.000   0.000  -0.029 -11.031   0.000   0.000  -0.000
  0.633  -0.007   0.000   0.000   0.000   0.349   0.001  -0.000
 -0.007   0.621  -0.000   0.000   0.000   0.001   0.351   0.000
  0.000  -0.000   0.672  -0.000  -0.000  -0.000   0.000   0.341
  0.000   0.000  -0.000   0.621   0.007  -0.000  -0.000   0.000
  0.000   0.000  -0.000   0.007   0.633  -0.000  -0.000   0.000
 -0.000  -0.000   0.010  -0.000   0.000  -0.000   0.000  -0.002
  0.000   0.000  -0.001   0.000  -0.000  -0.000  -0.000   0.000
 -0.000   0.000   0.000  -0.000  -0.001   0.000  -0.000  -0.000
 -0.000  -0.000   0.000  -0.000  -0.000   0.000   0.000  -0.000
 -0.001  -0.000   0.000   0.000   0.000   0.001   0.000  -0.000
  0.000  -0.000  -0.000   0.000   0.000  -0.000   0.000   0.000
  0.000   0.000  -0.000   0.000   0.000  -0.000  -0.000   0.000
  0.000   0.000  -0.000  -0.000  -0.000  -0.000  -0.000   0.000
 pseudopotential strength for first ion, spin component:           2
 -9.765  -0.109  -0.000   0.000  -0.000   0.333   0.025   0.000
 -0.109 -10.001   0.000  -0.000   0.000   0.025   0.386  -0.000
 -0.000   0.000  -9.672   0.000   0.000   0.000  -0.000   0.313
  0.000  -0.000   0.000 -10.001   0.109  -0.000   0.000  -0.000
 -0.000   0.000   0.000   0.109  -9.765   0.000  -0.000  -0.000
  0.333   0.025   0.000  -0.000   0.000   0.419  -0.006  -0.000
  0.025   0.386  -0.000   0.000  -0.000  -0.006   0.408   0.000
  0.000  -0.000   0.313  -0.000  -0.000  -0.000   0.000   0.423
 -0.000   0.000  -0.000   0.386  -0.025   0.000  -0.000   0.000
  0.000  -0.000  -0.000  -0.025   0.333  -0.000   0.000   0.000
 -0.000  -0.000   0.012  -0.000   0.000  -0.000   0.000  -0.002
  0.000   0.000  -0.002   0.000  -0.000   0.000  -0.000   0.000
  0.000  -0.000   0.000  -0.000   0.002  -0.000   0.000  -0.000
 -0.000  -0.000  -0.000  -0.000   0.000   0.000   0.000   0.000
  0.002  -0.000   0.000  -0.000  -0.000  -0.000   0.000  -0.000
 -0.000   0.000  -0.000   0.000  -0.001   0.000  -0.000   0.000
  0.000   0.000   0.000   0.000  -0.000  -0.000  -0.000  -0.000
 -0.001   0.000  -0.000   0.000   0.000   0.000  -0.000   0.000
 total augmentation occupancy for first ion, spin component:           1
  1.197  -0.217   0.000   0.000  -0.000   0.026   0.240  -0.000  -0.000  -0.000   0.000  -0.000  -0.000   0.000  -0.007  -0.000
 -0.217   1.094  -0.000  -0.000   0.000   0.233   0.263   0.000  -0.000  -0.000   0.000   0.000  -0.000   0.000   0.004   0.000
  0.000  -0.000   1.214  -0.000  -0.000  -0.000   0.000  -0.136   0.000   0.000   0.020  -0.003   0.000   0.000  -0.000  -0.000
  0.000  -0.000  -0.000   1.094   0.217  -0.000   0.000   0.000   0.263  -0.233   0.000   0.000  -0.004   0.000  -0.000   0.000
 -0.000   0.000  -0.000   0.217   1.197   0.000  -0.000   0.000  -0.240   0.026  -0.000   0.000  -0.007  -0.000   0.000   0.001
  0.026   0.233  -0.000  -0.000   0.000   0.191   0.072   0.000  -0.000  -0.000   0.000  -0.000  -0.000   0.000   0.017   0.000
  0.240   0.263   0.000   0.000  -0.000   0.072   0.267   0.000  -0.000  -0.000   0.000   0.000  -0.000   0.000  -0.004   0.000
 -0.000   0.000  -0.136   0.000   0.000   0.000   0.000   0.199   0.000  -0.000   0.061  -0.017  -0.000   0.000   0.000   0.000
 -0.000  -0.000   0.000   0.263  -0.240  -0.000  -0.000   0.000   0.267  -0.072   0.000   0.000   0.004  -0.000  -0.000  -0.000
 -0.000  -0.000   0.000  -0.233   0.026  -0.000  -0.000  -0.000  -0.072   0.191  -0.000   0.000   0.017  -0.000   0.000  -0.001
  0.000   0.000   0.020   0.000  -0.000   0.000   0.000   0.061  -0.000  -0.000   1.083  -0.237  -0.000  -0.000   0.000  -0.000
 -0.000  -0.000  -0.003  -0.000   0.000  -0.000  -0.000  -0.017   0.000   0.000  -0.237   0.108   0.000  -0.000   0.000   0.000
 -0.000  -0.000   0.000  -0.004  -0.007  -0.000  -0.000  -0.000   0.004   0.017   0.000  -0.000   0.173  -0.000  -0.000  -0.007
  0.000  -0.000   0.000   0.000  -0.000   0.000   0.000   0.000  -0.000  -0.000  -0.000  -0.000   0.000   0.188  -0.000  -0.000
 -0.007   0.004  -0.000  -0.000   0.000   0.017  -0.004   0.000  -0.000   0.000   0.000   0.000  -0.000  -0.000   0.173  -0.000
 -0.000   0.000  -0.000   0.000   0.001   0.000   0.000   0.000  -0.000  -0.001   0.000   0.000  -0.007  -0.000  -0.000   0.000
  0.000  -0.000   0.000   0.000  -0.000  -0.000  -0.000  -0.000   0.000   0.000   0.000   0.000  -0.000  -0.008   0.000   0.000
  0.001  -0.000   0.000   0.000   0.000  -0.001   0.000  -0.000   0.000  -0.000  -0.000   0.000   0.000   0.000  -0.007  -0.000
 total augmentation occupancy for first ion, spin component:           2
  0.511  -0.153   0.000   0.000  -0.000  -0.188   0.060  -0.000  -0.000   0.000  -0.000  -0.000   0.000  -0.000   0.009  -0.000
 -0.153   0.210  -0.000  -0.000   0.000   0.072  -0.093   0.000   0.000  -0.000  -0.000  -0.000  -0.000   0.000  -0.002  -0.000
  0.000  -0.000   0.735  -0.000  -0.000  -0.000   0.000  -0.282   0.000   0.000  -0.059  -0.003  -0.000  -0.000   0.000  -0.000
  0.000  -0.000  -0.000   0.210   0.153  -0.000  -0.000   0.000  -0.093  -0.072   0.000   0.000   0.002   0.000  -0.000   0.000
 -0.000   0.000  -0.000   0.153   0.511  -0.000  -0.000   0.000  -0.060  -0.188   0.000   0.000   0.009   0.000  -0.000   0.000
 -0.188   0.072  -0.000  -0.000  -0.000   0.019  -0.051   0.000   0.000  -0.000   0.000   0.000  -0.000   0.000  -0.002   0.000
  0.060  -0.093   0.000  -0.000  -0.000  -0.051  -0.036  -0.000   0.000   0.000   0.000  -0.000   0.000   0.000   0.001  -0.000
 -0.000   0.000  -0.282   0.000   0.000   0.000  -0.000   0.080  -0.000  -0.000   0.014   0.003   0.000   0.000  -0.000   0.000
 -0.000   0.000   0.000  -0.093  -0.060   0.000   0.000  -0.000  -0.036   0.051   0.000   0.000  -0.001  -0.000   0.000  -0.000
  0.000  -0.000   0.000  -0.072  -0.188  -0.000   0.000  -0.000   0.051   0.019  -0.000  -0.000  -0.002  -0.000   0.000  -0.000
 -0.000  -0.000  -0.059   0.000   0.000   0.000   0.000   0.014   0.000  -0.000   0.094   0.058   0.000   0.000   0.000  -0.000
 -0.000   0.000  -0.003  -0.000   0.000   0.000   0.000   0.003   0.000  -0.000   0.058  -0.025  -0.000  -0.000   0.000   0.000
  0.000  -0.000  -0.000   0.002   0.009  -0.000   0.000   0.000  -0.001  -0.002   0.000   0.000   0.012   0.000  -0.000   0.000
 -0.000  -0.000  -0.000   0.000   0.000   0.000   0.000   0.000  -0.000  -0.000   0.000  -0.000   0.000   0.009  -0.000  -0.000
  0.009  -0.002   0.000  -0.000  -0.000  -0.002   0.001  -0.000   0.000   0.000   0.000   0.000  -0.000  -0.000   0.012  -0.000
 -0.000  -0.000  -0.000   0.000   0.000   0.000  -0.000   0.000  -0.000  -0.000   0.000   0.000   0.000  -0.000  -0.000  -0.000
  0.000   0.000   0.000   0.000  -0.000  -0.000  -0.000  -0.000  -0.000   0.000  -0.000   0.000  -0.000  -0.000   0.000  -0.000
  0.000  -0.000   0.000  -0.000   0.000  -0.000   0.000  -0.000  -0.000  -0.000  -0.000   0.000   0.000   0.000   0.000   0.000


------------------------ aborting loop because EDIFF is reached ----------------------------------------





 total charge     

# of ion       s       p       d       tot
------------------------------------------
    1        0.282   0.353   5.051   5.685
    2        0.282   0.353   5.051   5.685
    3        0.746   0.911   0.000   1.657
    4        0.746   0.911   0.000   1.657
    5        1.362   2.357   0.000   3.719
    6        1.355   2.376   0.000   3.732
    7        1.361   2.360   0.000   3.721
    8        1.362   2.357   0.000   3.719
    9        1.355   2.376   0.000   3.732
   10        1.361   2.360   0.000   3.721
--------------------------------------------------
tot         10.212  16.715  10.102  37.028



 magnetization (x)

# of ion       s       p       d       tot
------------------------------------------
    1        0.017   0.020   2.055   2.092
    2        0.017   0.020   2.055   2.092
    3       -0.006   0.004   0.000  -0.003
    4       -0.006   0.004   0.000  -0.003
    5       -0.002  -0.044   0.000  -0.046
    6       -0.002  -0.025   0.000  -0.027
    7       -0.002  -0.039   0.000  -0.041
    8       -0.002  -0.044   0.000  -0.046
    9       -0.002  -0.025   0.000  -0.027
   10       -0.002  -0.039   0.000  -0.041
--------------------------------------------------
tot          0.010  -0.169   4.110   3.952

    CHARGE:  cpu time    1.8760: real time    1.9509
    FORLOC:  cpu time    0.0520: real time    0.0558
    FORNL :  cpu time    6.8760: real time    6.8988
    STRESS:  cpu time   20.4360: real time   20.5274
    FORCOR:  cpu time   51.8360: real time   52.2364
    FORHAR:  cpu time    0.3240: real time    0.3226
    MIXING:  cpu time    0.0400: real time    0.0407
    OFIELD:  cpu time    0.0000: real time    0.0000

  FORCE on cell =-STRESS in cart. coord.  units (eV):
  Direction    XX          YY          ZZ          XY          YZ          ZX
  --------------------------------------------------------------------------------------
  Alpha Z    29.96682    29.96682    29.96682
  Ewald   10724.65426 10724.65169-12553.01279    -0.00143    -0.00049    -0.00087
  Hartree 11119.39634 11119.39677-10883.76584    -0.00013     0.00004     0.00006
  E(xc)    -223.34604  -223.34605  -222.93304     0.00002     0.00000     0.00001
  Local  -22735.15511-22735.15438 22511.30431     0.00112     0.00026     0.00048
  n-local   465.12865   464.52207   470.01749    -0.05856     1.57418     1.02466
  augment   -53.87135   -53.87125   -58.15225     0.00001     0.00007    -0.00000
  Kinetic   675.56287   671.47199   706.31708    -3.01060    -0.93299     0.40797
  Fock        0.00000     0.00000     0.00000     0.00000     0.00000     0.00000
  -------------------------------------------------------------------------------------
  Total      -0.01295    -0.01295    -0.25821     0.00000     0.00000     0.00000
  in kB      -0.03293    -0.03293    -0.65677     0.00000     0.00000     0.00000
  external pressure =       -0.24 kB  Pullay stress =        0.00 kB


 VOLUME and BASIS-vectors are now :
 -----------------------------------------------------------------------------
  energy-cutoff  :      520.00
  volume of cell :      629.88
      direct lattice vectors                 reciprocal lattice vectors
     5.824291474  0.000000090 -0.000000000     0.171694705 -0.099127976  0.000000000
     2.912145393  5.043984226 -0.000000000    -0.000000003  0.198255975 -0.000000000
    -0.000000000  0.000000000 21.440912323     0.000000000 -0.000000000  0.046639806

  length of vectors
     5.824291474  5.824291172 21.440912323     0.198255964  0.198255975  0.046639806


 FORCES acting on ions
    electron-ion (+dipol)            ewald-force                    non-local-force                 convergence-correction
 -----------------------------------------------------------------------------------------------
   -.105E-03 -.607E-04 0.562E+00   0.524E-03 0.309E-03 -.562E+00   -.870E-18 0.347E-17 0.938E-02   0.166E-06 0.898E-08 -.393E-02
   0.105E-03 0.607E-04 -.562E+00   -.524E-03 -.309E-03 0.562E+00   -.104E-16 0.173E-17 -.938E-02   -.166E-06 -.898E-08 0.393E-02
   -.321E-04 -.307E-04 0.247E+03   -.217E-03 -.122E-03 -.238E+03   0.269E-16 -.722E-17 -.878E+01   -.192E-06 -.115E-06 0.135E-01
   0.321E-04 0.307E-04 -.247E+03   0.217E-03 0.122E-03 0.238E+03   -.958E-17 0.246E-16 0.878E+01   0.192E-06 0.115E-06 -.135E-01
   -.814E+01 0.261E-01 -.513E+03   0.496E+01 -.198E-01 0.518E+03   0.317E+01 -.978E-02 -.406E+01   -.112E-01 -.128E-02 -.388E-01
   0.409E+01 0.704E+01 -.513E+03   -.250E+01 -.428E+01 0.518E+03   -.160E+01 -.274E+01 -.406E+01   0.448E-02 0.103E-01 -.388E-01
   0.405E+01 -.707E+01 -.513E+03   -.246E+01 0.430E+01 0.518E+03   -.158E+01 0.275E+01 -.406E+01   0.671E-02 -.905E-02 -.388E-01
   0.814E+01 -.261E-01 0.513E+03   -.496E+01 0.198E-01 -.518E+03   -.317E+01 0.978E-02 0.406E+01   0.112E-01 0.128E-02 0.388E-01
   -.409E+01 -.704E+01 0.513E+03   0.250E+01 0.428E+01 -.518E+03   0.160E+01 0.274E+01 0.406E+01   -.448E-02 -.103E-01 0.388E-01
   -.405E+01 0.707E+01 0.513E+03   0.246E+01 -.430E+01 -.518E+03   0.158E+01 -.275E+01 0.406E+01   -.671E-02 0.905E-02 0.388E-01
 -----------------------------------------------------------------------------------------------
   -.909E-12 -.708E-10 0.202E-10   0.231E-13 0.888E-15 0.000E+00   -.222E-15 0.444E-15 -.178E-14   0.977E-13 -.501E-12 0.891E-11


 POSITION                                       TOTAL-FORCE (eV/Angst)
 -----------------------------------------------------------------------------------
      2.91214      1.68133     10.71929         0.000000     -0.000000      0.005519
      5.82429      3.36266     10.72162         0.000000     -0.000000     -0.005519
     -0.00000      0.00000      9.60984        -0.000000     -0.000000      0.048335
     -0.00000      0.00000     11.83108         0.000000      0.000000     -0.048335
      3.70131      0.00088     12.22390        -0.024547     -0.003899      0.006426
      1.06226      1.83812     12.22390         0.008897      0.023207      0.006426
      3.97288      3.20499     12.22390         0.015650     -0.019309      0.006426
      5.03513      5.04310      9.21701         0.024547      0.003899     -0.006426
      7.67418      3.20586      9.21701        -0.008897     -0.023207     -0.006426
      4.76356      1.83900      9.21701        -0.015650      0.019309     -0.006426
 -----------------------------------------------------------------------------------
    total drift:                               -0.000000     -0.000000      0.000000


--------------------------------------------------------------------------------------------------------



  FREE ENERGIE OF THE ION-ELECTRON SYSTEM (eV)
  ---------------------------------------------------
  free  energy   TOTEN  =       -54.53115975 eV

  energy  without entropy=      -54.53115975  energy(sigma->0) =      -54.53115975

 d Force = 0.5678227E-03[-0.371E-03, 0.151E-02]  d Energy = 0.1227927E-02-0.660E-03
 d Force = 0.2541178E+01[ 0.254E+01, 0.255E+01]  d Ewald  = 0.5582614E+01-0.304E+01


--------------------------------------------------------------------------------------------------------


    POTLOK:  cpu time   52.1000: real time   52.5917


--------------------------------------------------------------------------------------------------------




--------------------------------------------------------------------------------------------------------


  
 reached required accuracy - stopping structural energy minimisation
     LOOP+:  cpu time  465.7320: real time  469.0411
    4ORBIT:  cpu time    0.0000: real time    0.0000



 total charge     

# of ion       s       p       d       tot
------------------------------------------
    1        0.282   0.353   5.051   5.685
    2        0.282   0.353   5.051   5.685
    3        0.746   0.911   0.000   1.657
    4        0.746   0.911   0.000   1.657
    5        1.362   2.357   0.000   3.719
    6        1.355   2.376   0.000   3.732
    7        1.361   2.360   0.000   3.721
    8        1.362   2.357   0.000   3.719
    9        1.355   2.376   0.000   3.732
   10        1.361   2.360   0.000   3.721
--------------------------------------------------
tot         10.212  16.715  10.102  37.028



 magnetization (x)

# of ion       s       p       d       tot
------------------------------------------
    1        0.017   0.020   2.055   2.092
    2        0.017   0.020   2.055   2.092
    3       -0.006   0.004   0.000  -0.003
    4       -0.006   0.004   0.000  -0.003
    5       -0.002  -0.044   0.000  -0.046
    6       -0.002  -0.025   0.000  -0.027
    7       -0.002  -0.039   0.000  -0.041
    8       -0.002  -0.044   0.000  -0.046
    9       -0.002  -0.025   0.000  -0.027
   10       -0.002  -0.039   0.000  -0.041
--------------------------------------------------
tot          0.010  -0.169   4.110   3.952

 BZINTS: Fermi energy: -2.116402; 58.000000 electrons
         Band energy:-456.540938;  BLOECHL correction: -0.020446

 total amount of memory used by VASP MPI-rank0   130323. kBytes
=======================================================================

   base      :      30000. kBytes
   nonlr-proj:      10028. kBytes
   fftplans  :      11247. kBytes
   grid      :      66142. kBytes
   one-center:        311. kBytes
   wavefun   :      12595. kBytes

  
  
 General timing and accounting informations for this job:
 ========================================================
  
                  Total CPU time used (sec):    12660.112
                            User time (sec):    12381.452
                          System time (sec):      278.660
                         Elapsed time (sec):    12752.728
  
                   Maximum memory used (kb):      387412.
                   Average memory used (kb):           0.
  
                          Minor page faults:     10928543
                          Major page faults:            6
                 Voluntary context switches:          918
