 vasp.5.4.4.18Apr17-6-g9f103f2a35 (build May  1 2020 15:48:39) complex           
 executed on             LinuxGNU date 2020.07.02  22:10:12
 running on   16 total cores
 distrk:  each k-point on   16 cores,    1 groups
 distr:  one band on NCORES_PER_BAND=   1 cores,   16 groups


--------------------------------------------------------------------------------------------------------


 INCAR:
 POTCAR:   PAW_PBE Co 06Sep2000                   
 POTCAR:   PAW_PBE Ge 05Jan2001                   
 POTCAR:    PAW_PBE P 17Jan2003                   
 POTCAR:    PAW_PBE S 17Jan2003                   

 ----------------------------------------------------------------------------- 
|                                                                             |
|           W    W    AA    RRRRR   N    N  II  N    N   GGGG   !!!           |
|           W    W   A  A   R    R  NN   N  II  NN   N  G    G  !!!           |
|           W    W  A    A  R    R  N N  N  II  N N  N  G       !!!           |
|           W WW W  AAAAAA  RRRRR   N  N N  II  N  N N  G  GGG   !            |
|           WW  WW  A    A  R   R   N   NN  II  N   NN  G    G                |
|           W    W  A    A  R    R  N    N  II  N    N   GGGG   !!!           |
|                                                                             |
|      For optimal performance we recommend to set                            |
|        NCORE= 4 - approx SQRT( number of cores)                             |
|      NCORE specifies how many cores store one orbital (NPAR=cpu/NCORE).     |
|      This setting can  greatly improve the performance of VASP for DFT.     |
|      The default,   NCORE=1            might be grossly inefficient         |
|      on modern multi-core architectures or massively parallel machines.     |
|      Do your own testing !!!!                                               |
|      Unfortunately you need to use the default for GW and RPA calculations. |
|      (for HF NCORE is supported but not extensively tested yet)             |
|                                                                             |
 ----------------------------------------------------------------------------- 


 ----------------------------------------------------------------------------- 
|                                                                             |
|  ADVICE TO THIS USER RUNNING 'VASP/VAMP'   (HEAR YOUR MASTER'S VOICE ...):  |
|                                                                             |
|      You have switched on vdW-DFT.                                          |
|      This routine was written and supplied by Jiri Klimes.                  |
|      We recommed that you carefully read and cite the following             |
|      publication                                                            |
|      J. Klimes, D.R. Bowler, A. Michelides                                  |
|        J. Phys.: Cond Matt. 22 022201 (2010)                                |
|      J. Klimes, D.R. Bowler, A. Michelides                                  |
|        Phys. Rev. B. 83, 195131 (2011)                                      |
|      and references therein.                                                |
|                                                                             |
 ----------------------------------------------------------------------------- 

 POTCAR:   PAW_PBE Co 06Sep2000                   
   VRHFIN =Co: d8 s1                                                            
   LEXCH  = PE                                                                  
   EATOM  =   813.5563 eV,   59.7947 Ry                                         
                                                                                
   TITEL  = PAW_PBE Co 06Sep2000                                                
   LULTRA =        F    use ultrasoft PP ?                                      
   IUNSCR =        1    unscreen: 0-lin 1-nonlin 2-no                           
   RPACOR =    2.000    partial core radius                                     
   POMASS =   58.933; ZVAL   =    9.000    mass and valenz                      
   RCORE  =    2.300    outmost cutoff radius                                   
   RWIGS  =    2.460; RWIGS  =    1.302    wigner-seitz radius (au A)           
   ENMAX  =  267.969; ENMIN  =  200.977 eV                                      
   RCLOC  =    1.697    cutoff for local pot                                    
   LCOR   =        T    correct aug charges                                     
   LPAW   =        T    paw PP                                                  
   EAUG   =  477.818                                                            
   DEXC   =    -.016                                                            
   RMAX   =    2.817    core radius for proj-oper                               
   RAUG   =    1.300    factor for augmentation sphere                          
   RDEP   =    2.393    radius for radial grids                                 
   QCUT   =   -4.438; QGAM   =    8.876    optimization parameters              
                                                                                
   Description                                                                  
     l     E      TYP  RCUT    TYP  RCUT                                        
     2   .000     23  2.300                                                     
     2   .000     23  2.300                                                     
     0   .000     23  2.300                                                     
     0   .000     23  2.300                                                     
     1  -.200     23  2.300                                                     
     1   .000     23  2.300                                                     
     3   .000      7   .000                                                     
  local pseudopotential read in
  partial core-charges read in
  atomic valenz-charges read in
  non local Contribution for L=           2  read in
    real space projection operators read in
  non local Contribution for L=           2  read in
    real space projection operators read in
  non local Contribution for L=           0  read in
    real space projection operators read in
  non local Contribution for L=           0  read in
    real space projection operators read in
  non local Contribution for L=           1  read in
    real space projection operators read in
  non local Contribution for L=           1  read in
    real space projection operators read in
    PAW grid and wavefunctions read in

   number of l-projection  operators is LMAX  =           6
   number of lm-projection operators is LMMAX =          18

 POTCAR:   PAW_PBE Ge 05Jan2001                   
   VRHFIN =Ge: s2p2                                                             
   LEXCH  = PE                                                                  
   EATOM  =   104.9960 eV,    7.7170 Ry                                         
                                                                                
   TITEL  = PAW_PBE Ge 05Jan2001                                                
   LULTRA =        F    use ultrasoft PP ?                                      
   IUNSCR =        1    unscreen: 0-lin 1-nonlin 2-no                           
   RPACOR =    2.170    partial core radius                                     
   POMASS =   72.610; ZVAL   =    4.000    mass and valenz                      
   RCORE  =    2.300    outmost cutoff radius                                   
   RWIGS  =    2.300; RWIGS  =    1.217    wigner-seitz radius (au A)           
   ENMAX  =  173.807; ENMIN  =  130.355 eV                                      
   ICORE  =        3    local potential                                         
   LCOR   =        T    correct aug charges                                     
   LPAW   =        T    paw PP                                                  
   EAUG   =  385.843                                                            
   DEXC   =    -.138                                                            
   RMAX   =    3.497    core radius for proj-oper                               
   RAUG   =    1.300    factor for augmentation sphere                          
   RDEP   =    2.318    radius for radial grids                                 
   QCUT   =   -3.574; QGAM   =    7.148    optimization parameters              
                                                                                
   Description                                                                  
     l     E      TYP  RCUT    TYP  RCUT                                        
     0   .000     23  2.300                                                     
     0   .000     23  2.300                                                     
     1   .000     23  2.300                                                     
     1   .000     23  2.300                                                     
     2   .000     23  2.300                                                     
     3  -.100      7  2.300                                                     
  local pseudopotential read in
  partial core-charges read in
  atomic valenz-charges read in
  non local Contribution for L=           0  read in
    real space projection operators read in
  non local Contribution for L=           0  read in
    real space projection operators read in
  non local Contribution for L=           1  read in
    real space projection operators read in
  non local Contribution for L=           1  read in
    real space projection operators read in
  non local Contribution for L=           2  read in
    real space projection operators read in
    PAW grid and wavefunctions read in

   number of l-projection  operators is LMAX  =           5
   number of lm-projection operators is LMMAX =          13

 POTCAR:    PAW_PBE P 17Jan2003                   
   VRHFIN =P : s2p3                                                             
   LEXCH  = PE                                                                  
   EATOM  =   176.0430 eV,   12.9388 Ry                                         
                                                                                
   TITEL  = PAW_PBE P 17Jan2003                                                 
   LULTRA =        F    use ultrasoft PP ?                                      
   IUNSCR =        1    unscreen: 0-lin 1-nonlin 2-no                           
   RPACOR =    1.500    partial core radius                                     
   POMASS =   30.974; ZVAL   =    5.000    mass and valenz                      
   RCORE  =    1.900    outmost cutoff radius                                   
   RWIGS  =    2.330; RWIGS  =    1.233    wigner-seitz radius (au A)           
   ENMAX  =  270.000; ENMIN  =  191.280 eV                                      
   ICORE  =        2    local potential                                         
   LCOR   =        T    correct aug charges                                     
   LPAW   =        T    paw PP                                                  
   EAUG   =  342.924                                                            
   DEXC   =    -.002                                                            
   RMAX   =    2.887    core radius for proj-oper                               
   RAUG   =    1.300    factor for augmentation sphere                          
   RDEP   =    1.931    radius for radial grids                                 
   QCUT   =   -4.330; QGAM   =    8.659    optimization parameters              
                                                                                
   Description                                                                  
     l     E      TYP  RCUT    TYP  RCUT                                        
     0   .000     23  1.900                                                     
     0   .000     23  1.900                                                     
     1   .000     23  1.900                                                     
     1   .000     23  1.900                                                     
     2   .000     23  1.900                                                     
  local pseudopotential read in
  partial core-charges read in
  atomic valenz-charges read in
  non local Contribution for L=           0  read in
    real space projection operators read in
  non local Contribution for L=           0  read in
    real space projection operators read in
  non local Contribution for L=           1  read in
    real space projection operators read in
  non local Contribution for L=           1  read in
    real space projection operators read in
    PAW grid and wavefunctions read in

   number of l-projection  operators is LMAX  =           4
   number of lm-projection operators is LMMAX =           8

 POTCAR:    PAW_PBE S 17Jan2003                   
   VRHFIN =S : s2p4                                                             
   LEXCH  = PE                                                                  
   EATOM  =   276.8230 eV,   20.3459 Ry                                         
                                                                                
   TITEL  = PAW_PBE S 17Jan2003                                                 
   LULTRA =        F    use ultrasoft PP ?                                      
   IUNSCR =        1    unscreen: 0-lin 1-nonlin 2-no                           
   RPACOR =    1.500    partial core radius                                     
   POMASS =   32.066; ZVAL   =    6.000    mass and valenz                      
   RCORE  =    1.900    outmost cutoff radius                                   
   RWIGS  =    2.200; RWIGS  =    1.164    wigner-seitz radius (au A)           
   ENMAX  =  280.000; ENMIN  =  194.016 eV                                      
   ICORE  =        2    local potential                                         
   LCOR   =        T    correct aug charges                                     
   LPAW   =        T    paw PP                                                  
   EAUG   =  335.092                                                            
   DEXC   =     .000                                                            
   RMAX   =    2.867    core radius for proj-oper                               
   RAUG   =    1.300    factor for augmentation sphere                          
   RDEP   =    1.954    radius for radial grids                                 
   QCUT   =   -4.360; QGAM   =    8.721    optimization parameters              
                                                                                
   Description                                                                  
     l     E      TYP  RCUT    TYP  RCUT                                        
     0   .000     23  1.900                                                     
     0   .000     23  1.900                                                     
     1   .000     23  1.900                                                     
     1   .000     23  1.900                                                     
     2   .000     23  1.900                                                     
  local pseudopotential read in
  partial core-charges read in
  atomic valenz-charges read in
  non local Contribution for L=           0  read in
    real space projection operators read in
  non local Contribution for L=           0  read in
    real space projection operators read in
  non local Contribution for L=           1  read in
    real space projection operators read in
  non local Contribution for L=           1  read in
    real space projection operators read in
    PAW grid and wavefunctions read in

   number of l-projection  operators is LMAX  =           4
   number of lm-projection operators is LMMAX =           8

 Optimization of the real space projectors (new method)

 maximal supplied QI-value         = 16.25
 optimisation between [QCUT,QGAM] = [ 11.54, 23.24] = [ 37.28,151.24] Ry 
 Optimized for a Real-space Cutoff    1.53 Angstroem

   l    n(q)    QCUT    max X(q) W(low)/X(q) W(high)/X(q)  e(spline) 
   2     10    11.539     4.599    0.83E-05    0.15E-04    0.45E-07
   2     10    11.539    18.158    0.10E-03    0.14E-03    0.24E-06
   0     11    11.539    15.740    0.19E-04    0.12E-05    0.17E-07
   0     11    11.539    47.662    0.48E-04    0.15E-04    0.31E-06
   1     10    11.539     5.777    0.11E-04    0.46E-05    0.25E-07
   1     10    11.539     8.007    0.46E-04    0.29E-04    0.11E-06
 Optimization of the real space projectors (new method)

 maximal supplied QI-value         = 16.25
 optimisation between [QCUT,QGAM] = [ 11.54, 23.24] = [ 37.28,151.24] Ry 
 Optimized for a Real-space Cutoff    1.28 Angstroem

   l    n(q)    QCUT    max X(q) W(low)/X(q) W(high)/X(q)  e(spline) 
   0      9    11.539     8.651    0.22E-04    0.16E-04    0.10E-07
   0      9    11.539    33.192    0.11E-03    0.16E-03    0.65E-07
   1      8    11.539     5.899    0.37E-04    0.28E-04    0.43E-07
   1      8    11.539    27.289    0.22E-03    0.28E-04    0.14E-06
   2      8    11.539     4.673    0.11E-03    0.18E-03    0.58E-07
 Optimization of the real space projectors (new method)

 maximal supplied QI-value         = 19.84
 optimisation between [QCUT,QGAM] = [ 11.51, 23.22] = [ 37.09,150.92] Ry 
 Optimized for a Real-space Cutoff    1.21 Angstroem

   l    n(q)    QCUT    max X(q) W(low)/X(q) W(high)/X(q)  e(spline) 
   0      8    11.508     6.651    0.19E-04    0.31E-05    0.49E-08
   0      8    11.508    90.285    0.95E-04    0.17E-03    0.51E-07
   1      8    11.508     4.328    0.14E-04    0.32E-04    0.22E-07
   1      8    11.508    54.583    0.16E-03    0.71E-04    0.89E-07
 Optimization of the real space projectors (new method)

 maximal supplied QI-value         = 19.84
 optimisation between [QCUT,QGAM] = [ 11.51, 23.22] = [ 37.09,150.92] Ry 
 Optimized for a Real-space Cutoff    1.21 Angstroem

   l    n(q)    QCUT    max X(q) W(low)/X(q) W(high)/X(q)  e(spline) 
   0      8    11.508     5.487    0.18E-04    0.22E-05    0.47E-08
   0      8    11.508    85.627    0.96E-04    0.18E-03    0.54E-07
   1      8    11.508     3.530    0.17E-04    0.28E-04    0.21E-07
   1      8    11.508    42.714    0.18E-03    0.63E-04    0.92E-07

 ----------------------------------------------------------------------------- 
|                                                                             |
|  ADVICE TO THIS USER RUNNING 'VASP/VAMP'   (HEAR YOUR MASTER'S VOICE ...):  |
|                                                                             |
|      You enforced a specific xc-type in the INCAR file,                     |
|      a different type was found on the POTCAR file                          |
|          I HOPE YOU KNOW, WHAT YOU ARE  DOING                               |
|                                                                             |
 ----------------------------------------------------------------------------- 

 PAW_PBE Co 06Sep2000                   :
 energy of atom  1       EATOM= -813.5563
 kinetic energy error for atom=    0.0028 (will be added to EATOM!!)
 PAW_PBE Ge 05Jan2001                   :
 energy of atom  2       EATOM= -104.9960
 kinetic energy error for atom=    0.0002 (will be added to EATOM!!)
  PAW_PBE P 17Jan2003                   :
 energy of atom  3       EATOM= -176.0430
 kinetic energy error for atom=    0.0011 (will be added to EATOM!!)
  PAW_PBE S 17Jan2003                   :
 energy of atom  4       EATOM= -276.8230
 kinetic energy error for atom=    0.0016 (will be added to EATOM!!)


 POSCAR: Co2 Ge P S6                             
  positions in direct lattice
  velocities in cartesian coordinates
  No initial velocities read in
 exchange correlation table for  LEXCH =       42
   RHO(1)=    0.500       N(1)  =     2000
   RHO(2)=  100.500       N(2)  =     4000



--------------------------------------------------------------------------------------------------------


 ion  position               nearest neighbor table
   1  0.333  0.333  0.500-   6 2.78   5 2.78   7 2.78   8 2.78  10 2.78   9 2.78
   2  0.667  0.667  0.500-   9 2.78   8 2.78  10 2.78   5 2.78   7 2.78   6 2.78
   3  0.000  0.000  0.448-   4 2.43   8 2.63  10 2.63   9 2.63
   4  0.000  0.000  0.552-   3 2.43   5 2.63   7 2.63   6 2.63
   5  0.626  0.000  0.574-   4 2.63   1 2.78   2 2.78
   6  0.000  0.373  0.574-   4 2.63   1 2.78   2 2.78
   7  0.373  0.626  0.574-   4 2.63   1 2.78   2 2.78
   8  0.374  1.000  0.426-   3 2.63   2 2.78   1 2.78
   9  1.000  0.627  0.426-   3 2.63   2 2.78   1 2.78
  10  0.627  0.374  0.426-   3 2.63   2 2.78   1 2.78

  LATTYP: Found a hexagonal cell.
 ALAT       =     6.9077769333
 C/A-ratio  =     3.3939410937
  
  Lattice vectors:
  
 A1 = (   3.4538890000,  -5.9823100000,   0.0000000000)
 A2 = (  -6.9077770000,   0.0000000000,   0.0000000000)
 A3 = (   0.0000000000,   0.0000000000, -23.4445880000)


Analysis of symmetry for initial positions (statically):
=====================================================================
 Subroutine PRICEL returns:
 Original cell was already a primitive cell.
 

 Routine SETGRP: Setting up the symmetry group for a 
 hexagonal supercell.


 Subroutine GETGRP returns: Found  3 space group operations
 (whereof  3 operations were pure point group operations)
 out of a pool of 24 trial point group operations.


The static configuration has the point symmetry C_3 .


Analysis of symmetry for dynamics (positions and initial velocities):
=====================================================================
 Subroutine PRICEL returns:
 Original cell was already a primitive cell.
 

 Routine SETGRP: Setting up the symmetry group for a 
 hexagonal supercell.


 Subroutine GETGRP returns: Found  3 space group operations
 (whereof  3 operations were pure point group operations)
 out of a pool of 24 trial point group operations.


The dynamic configuration has the point symmetry C_3 .


Analysis of constrained symmetry for selective dynamics:
=====================================================================
 Subroutine PRICEL returns:
 Original cell was already a primitive cell.
 

 Routine SETGRP: Setting up the symmetry group for a 
 hexagonal supercell.


 Subroutine GETGRP returns: Found  3 space group operations
 (whereof  3 operations were pure point group operations)
 out of a pool of 24 trial point group operations.


The constrained configuration has the point symmetry C_3 .


Analysis of structural, dynamic, and magnetic symmetry:
=====================================================================
 Subroutine PRICEL returns:
 Original cell was already a primitive cell.
 

 Routine SETGRP: Setting up the symmetry group for a 
 hexagonal supercell.


 Subroutine GETGRP returns: Found  3 space group operations
 (whereof  3 operations were pure point group operations)
 out of a pool of 24 trial point group operations.


The magnetic configuration has the point symmetry C_3 .


 Subroutine INISYM returns: Found  3 space group operations
 (whereof  3 operations are pure point group operations),
 and found     1 'primitive' translations



 KPOINTS: Kpoints from vasprun.xml                

Automatic generation of k-mesh.
Space group operators:
 irot       det(A)        alpha          n_x          n_y          n_z        tau_x        tau_y        tau_z
    1     1.000000     0.000000     1.000000     0.000000     0.000000     0.000000     0.000000     0.000000
    2     1.000000   120.000000     0.000000     0.000000     1.000000     0.000000     0.000000     0.000000
    3     1.000000   120.000000     0.000000     0.000000    -1.000000     0.000000     0.000000     0.000000
 
 Subroutine IBZKPT returns following result:
 ===========================================
 
 Found      5 irreducible k-points:
 
 Following reciprocal coordinates:
            Coordinates               Weight
  0.000000  0.000000  0.000000      1.000000
  0.200000  0.000000  0.000000      6.000000
  0.400000  0.000000  0.000000      6.000000
  0.400000  0.200000  0.000000      6.000000
 -0.400000  0.200000  0.000000      6.000000
 
 Following cartesian coordinates:
            Coordinates               Weight
  0.000000  0.000000  0.000000      1.000000
  0.028953 -0.016716  0.000000      6.000000
  0.057906 -0.033432  0.000000      6.000000
  0.057906  0.000000  0.000000      6.000000
 -0.057906  0.066864  0.000000      6.000000
 
 TETIRR: Found     15 inequivalent tetrahedra from      150


--------------------------------------------------------------------------------------------------------




 Dimension of arrays:
   k-points           NKPTS =      5   k-points in BZ     NKDIM =      5   number of bands    NBANDS=     48
   number of dos      NEDOS =    301   number of ions     NIONS =     10
   non local maximal  LDIM  =      6   non local SUM 2l+1 LMDIM =     18
   total plane-waves  NPLWV = 524880
   max r-space proj   IRMAX =   8238   max aug-charges    IRDMAX=  29641
   dimension x,y,z NGX =    54 NGY =   54 NGZ =  180
   dimension x,y,z NGXF=   108 NGYF=  108 NGZF=  360
   support grid    NGXF=   108 NGYF=  108 NGZF=  360
   ions per type =               2   1   1   6
   NGX,Y,Z   is equivalent  to a cutoff of  13.00, 13.00, 12.76 a.u.
   NGXF,Y,Z  is equivalent  to a cutoff of  25.99, 25.99, 25.53 a.u.

 SYSTEM =  unknown system                          
 POSCAR =  Co2 Ge P S6                             

 Startparameter for this run:
   NWRITE =      2    write-flag & timer
   PREC   = accura    normal or accurate (medium, high low for compatibility)
   ISTART =      0    job   : 0-new  1-cont  2-samecut
   ICHARG =      2    charge: 1-file 2-atom 10-const
   ISPIN  =      2    spin polarized calculation?
   LNONCOLLINEAR =      F non collinear calculations
   LSORBIT =      F    spin-orbit coupling
   INIWAV =      1    electr: 0-lowe 1-rand  2-diag
   LASPH  =      F    aspherical Exc in radial PAW
   METAGGA=      F    non-selfconsistent MetaGGA calc.

 Electronic Relaxation 1
   ENCUT  =  520.0 eV  38.22 Ry    6.18 a.u.  12.84 12.84 43.59*2*pi/ulx,y,z
   ENINI  =  520.0     initial cutoff
   ENAUG  =  477.8 eV  augmentation charge cutoff
   NELM   =    400;   NELMIN=  2; NELMDL=  0     # of ELM steps 
   EDIFF  = 0.1E-03   stopping-criterion for ELM
   LREAL  =      T    real-space projection
   NLSPLINE    = F    spline interpolate recip. space projectors
   LCOMPAT=      F    compatible to vasp.4.4
   GGA_COMPAT  = T    GGA compatible to vasp.4.4-vasp.4.6
   LMAXPAW     = -100 max onsite density
   LMAXMIX     =    2 max onsite mixed and CHGCAR
   VOSKOWN=      0    Vosko Wilk Nusair interpolation
   ROPT   =   -0.00025  -0.00025  -0.00025  -0.00025
 Ionic relaxation
   EDIFFG = 0.1E-02   stopping-criterion for IOM
   NSW    =     99    number of steps for IOM
   NBLOCK =      1;   KBLOCK =     99    inner block; outer block 
   IBRION =      2    ionic relax: 0-MD 1-quasi-New 2-CG
   NFREE  =      1    steps in history (QN), initial steepest desc. (CG)
   ISIF   =      3    stress and relaxation
   IWAVPR =     11    prediction:  0-non 1-charg 2-wave 3-comb
   ISYM   =      2    0-nonsym 1-usesym 2-fastsym
   LCORR  =      T    Harris-Foulkes like correction to forces

   POTIM  = 0.5000    time-step for ionic-motion
   TEIN   =    0.0    initial temperature
   TEBEG  =    0.0;   TEEND  =   0.0 temperature during run
   SMASS  =  -3.00    Nose mass-parameter (am)
   estimated Nose-frequenzy (Omega)   =  0.10E-29 period in steps =****** mass=  -0.109E-26a.u.
   SCALEE = 1.0000    scale energy and forces
   NPACO  =    256;   APACO  = 16.0  distance and # of slots for P.C.
   PSTRESS=    0.0 pullay stress

  Mass of Ions in am
   POMASS =  58.93 72.61 30.97 32.07
  Ionic Valenz
   ZVAL   =   9.00  4.00  5.00  6.00
  Atomic Wigner-Seitz radii
   RWIGS  =  -1.00 -1.00 -1.00 -1.00
  virtual crystal weights 
   VCA    =   1.00  1.00  1.00  1.00
   NELECT =      63.0000    total number of electrons
   NUPDOWN=      -1.0000    fix difference up-down

 DOS related values:
   EMIN   =  10.00;   EMAX   =-10.00  energy-range for DOS
   EFERMI =   0.00
   ISMEAR =    -5;   SIGMA  =   0.05  broadening in eV -4-tet -1-fermi 0-gaus

 Electronic relaxation 2 (details)
   IALGO  =     38    algorithm
   LDIAG  =      T    sub-space diagonalisation (order eigenvalues)
   LSUBROT=      F    optimize rotation matrix (better conditioning)
   TURBO    =      0    0=normal 1=particle mesh
   IRESTART =      0    0=no restart 2=restart with 2 vectors
   NREBOOT  =      0    no. of reboots
   NMIN     =      0    reboot dimension
   EREF     =   0.00    reference energy to select bands
   IMIX   =      4    mixing-type and parameters
     AMIX     =   0.40;   BMIX     =  1.00
     AMIX_MAG =   1.60;   BMIX_MAG =  1.00
     AMIN     =   0.01
     WC   =   100.;   INIMIX=   1;  MIXPRE=   1;  MAXMIX= -45

 Intra band minimization:
   WEIMIN = 0.0010     energy-eigenvalue tresh-hold
   EBREAK =  0.52E-06  absolut break condition
   DEPER  =   0.30     relativ break condition  

   TIME   =   0.40     timestep for ELM

  volume/ion in A,a.u.               =      96.88       653.80
  Fermi-wavevector in a.u.,A,eV,Ry     =   0.658322  1.244048  5.896601  0.433388
  Thomas-Fermi vector in A             =   1.730108

 Write flags
   LWAVE        =      F    write WAVECAR
   LDOWNSAMPLE  =      F    k-point downsampling of WAVECAR
   LCHARG       =      T    write CHGCAR
   LVTOT        =      F    write LOCPOT, total local potential
   LVHAR        =      F    write LOCPOT, Hartree potential only
   LELF         =      F    write electronic localiz. function (ELF)
   LORBIT       =     11    0 simple, 1 ext, 2 COOP (PROOUT), +10 PAW based schemes


 Dipole corrections
   LMONO  =      F    monopole corrections only (constant potential shift)
   LDIPOL =      F    correct potential (dipole corrections)
   IDIPOL =      0    1-x, 2-y, 3-z, 4-all directions 
   EPSILON=  1.0000000 bulk dielectric constant

 Exchange correlation treatment:
   GGA     =    BO    GGA type
   LEXCH   =    42    internal setting for exchange type
   VOSKOWN=      0    Vosko Wilk Nusair interpolation
   LHFCALC =     F    Hartree Fock is set to
   LHFONE  =     F    Hartree Fock one center treatment
   AEXX    =    0.0000 exact exchange contribution

 vdW DFT:
   LUSE_VDW   =     T    switch on vdW DFT
   Zab_VDW    =-.8491    correlation parameter
   PARAM1     =0.1833
   PARAM2     =0.2200
   PARAM3     =0.0000
   -- rVV10 --
   BPARAM     = 6.3000
   CPARAM     = 0.0093

 Linear response parameters
   LEPSILON=     F    determine dielectric tensor
   LRPA    =     F    only Hartree local field effects (RPA)
   LNABLA  =     F    use nabla operator in PAW spheres
   LVEL    =     F    velocity operator in full k-point grid
   LINTERFAST=   F  fast interpolation
   KINTER  =     0    interpolate to denser k-point grid
   CSHIFT  =0.1000    complex shift for real part using Kramers Kronig
   OMEGAMAX=  -1.0    maximum frequency
   DEG_THRESHOLD= 0.2000000E-02 threshold for treating states as degnerate
   RTIME   =   -0.100 relaxation time in fs
  (WPLASMAI=    0.000 imaginary part of plasma frequency in eV, 0.658/RTIME)
   DFIELD  = 0.0000000 0.0000000 0.0000000 field for delta impulse in time

 Orbital magnetization related:
   ORBITALMAG=     F  switch on orbital magnetization
   LCHIMAG   =     F  perturbation theory with respect to B field
   DQ        =  0.001000  dq finite difference perturbation B field
   LLRAUG    =     F  two centre corrections for induced B field



--------------------------------------------------------------------------------------------------------


 conjugate gradient relaxation of ions
   using selective dynamics as specified on POSCAR
 charge density and potential will be updated during run
 spin polarized calculation
 Variant of blocked Davidson
 Davidson routine will perform the subspace rotation
 perform sub-space diagonalisation
    after iterative eigenvector-optimisation
 modified Broyden-mixing scheme, WC =      100.0
 initial mixing is a Kerker type mixing with AMIX =  0.4000 and BMIX =      1.0000
 Hartree-type preconditioning will be used
 using additional bands           16
 real space projection scheme for non local part
 use partial core corrections
 calculate Harris-corrections to forces   (improved forces if not selfconsistent)
 use gradient corrections 
 use of overlap-Matrix (Vanderbilt PP)
 Fermi weights with tetrahedron method with Bloechl corrections


--------------------------------------------------------------------------------------------------------


  energy-cutoff  :      520.00
  volume of cell :      968.84
      direct lattice vectors                 reciprocal lattice vectors
     6.907777000 -0.000000000  0.000000000     0.144764372 -0.083579742  0.000000000
     3.453888000  5.982310000  0.000000000     0.000000000  0.167159509 -0.000000000
     0.000000000  0.000000000 23.444588000    -0.000000000  0.000000000  0.042653767

  length of vectors
     6.907777000  6.907776433 23.444588000     0.167159495  0.167159509  0.042653767



 k-points in units of 2pi/SCALE and weight: Kpoints from vasprun.xml                
   0.00000000  0.00000000  0.00000000       0.040
   0.02895287 -0.01671595  0.00000000       0.240
   0.05790575 -0.03343190  0.00000000       0.240
   0.05790575  0.00000000  0.00000000       0.240
  -0.05790575  0.06686380  0.00000000       0.240

 k-points in reciprocal lattice and weights: Kpoints from vasprun.xml                
   0.00000000  0.00000000  0.00000000       0.040
   0.20000000  0.00000000  0.00000000       0.240
   0.40000000  0.00000000  0.00000000       0.240
   0.40000000  0.20000000  0.00000000       0.240
  -0.40000000  0.20000000  0.00000000       0.240

 position of ions in fractional coordinates (direct lattice) 
   0.33333300  0.33333300  0.49992500
   0.66666700  0.66666700  0.50007500
   0.00000000  0.00000000  0.44821600
   0.00000000  0.00000000  0.55178400
   0.62635700  0.00042000  0.57375200
   0.00042000  0.37322400  0.57375200
   0.37322400  0.62635700  0.57375200
   0.37364300  0.99958000  0.42624800
   0.99958000  0.62677600  0.42624800
   0.62677600  0.37364300  0.42624800

 position of ions in cartesian coordinates  (Angst):
   3.45388488  1.99410134 11.72053566
   6.90778012  3.98820866 11.72405234
   0.00000000  0.00000000 10.50823946
   0.00000000  0.00000000 12.93634854
   4.32818511  0.00251257 13.45137925
   1.29197516  2.23274167 13.45137925
   4.74151509  3.74706174 13.45137925
   6.03347989  5.97979743  9.99320875
   9.06968984  3.74956833  9.99320875
   5.62014991  2.23524826  9.99320875



--------------------------------------------------------------------------------------------------------


 k-point  1 :   0.0000 0.0000 0.0000  plane waves:   26073
 k-point  2 :   0.2000 0.0000 0.0000  plane waves:   26070
 k-point  3 :   0.4000 0.0000 0.0000  plane waves:   26086
 k-point  4 :   0.4000 0.2000 0.0000  plane waves:   26085
 k-point  5 :  -0.4000 0.2000 0.0000  plane waves:   26115

 maximum and minimum number of plane-waves per node :     26115    26070

 maximum number of plane-waves:     26115
 maximum index in each direction: 
   IXMAX=   13   IYMAX=   12   IZMAX=   43
   IXMIN=  -13   IYMIN=  -13   IZMIN=  -43


 serial   3D FFT for wavefunctions
 parallel 3D FFT for charge:
    minimum data exchange during FFTs selected (reduces bandwidth)


 total amount of memory used by VASP MPI-rank0   128855. kBytes
=======================================================================

   base      :      30000. kBytes
   nonlr-proj:       6370. kBytes
   fftplans  :      11247. kBytes
   grid      :      68332. kBytes
   one-center:        311. kBytes
   wavefun   :      12595. kBytes

     INWAV:  cpu time    0.0000: real time    0.0015
 Broyden mixing: mesh for mixing (old mesh)
   NGX = 25   NGY = 25   NGZ = 87
  (NGX  =108   NGY  =108   NGZ  =360)
  gives a total of  54375 points

 initial charge density was supplied:
 charge density of overlapping atoms calculated
 number of electron      63.0000000 magnetization       9.7800000
 keeping initial charge density in first step


--------------------------------------------------------------------------------------------------------


 Maximum index for non-local projection operator         7925
 Maximum index for augmentation-charges         2133 (set IRDMAX)


--------------------------------------------------------------------------------------------------------


 First call to EWALD:  gamma=   0.179
 Maximum number of real-space cells 4x 4x 1
 Maximum number of reciprocal cells 2x 2x 6

    FEWALD:  cpu time    0.0000: real time    0.0015


--------------------------------------- Iteration      1(   1)  ---------------------------------------


vdW kernel read from vdw_kernel.bindat
  0.0000  0.2424  0.5071  0.7962  1.1119  1.4567  1.8333  2.2446  2.6937  3.1842
  3.7199  4.3049  4.9438  5.6415  6.4036  7.2358  8.1446  9.1372 10.2212 11.4050
 12.6979 14.1099 15.6519 17.3360 19.1751 21.1837 23.3773 25.7729 28.3892 31.2465
 34.3669 37.7748 41.4965 45.5611 50.0000

    POTLOK:  cpu time   52.3440: real time   52.6366
    SETDIJ:  cpu time    0.0520: real time    0.0539
     EDDAV:  cpu time   22.5560: real time   22.7862
 BZINTS: Fermi energy:  4.790031; 63.000000 electrons
         Band energy: -34.407455;  BLOECHL correction: -0.015453
       DOS:  cpu time    0.0080: real time    0.0046
    --------------------------------------------
      LOOP:  cpu time   74.9600: real time   75.4813

 eigenvalue-minimisations  :   960
 total energy-change (2. order) : 0.4251635E+03  (-0.1915028E+04)
 number of electron      63.0000000 magnetization       9.7800000
 augmentation part       63.0000000 magnetization       9.7800000

 Free energy of the ion-electron system (eV)
  ---------------------------------------------------
  alpha Z        PSCENC =        27.16914594
  Ewald energy   TEWEN  =      7794.22900203
  -Hartree energ DENC   =    -10978.83725727
  -exchange      EXHF   =         0.00000000
  -V(xc)+E(xc)   XCENC  =        92.98947704
  PAW double counting   =      1951.20272144    -2010.32189605
  entropy T*S    EENTRO =         0.00000000
  eigenvalues    EBANDS =       -34.40745455
  atomic energy  EATOM  =      3583.13977814
  Solvation  Ediel_sol  =         0.00000000
  ---------------------------------------------------
  free energy    TOTEN  =       425.16351673 eV

  energy without entropy =      425.16351673  energy(sigma->0) =      425.16351673


--------------------------------------------------------------------------------------------------------




--------------------------------------- Iteration      1(   2)  ---------------------------------------


     EDDAV:  cpu time   30.1200: real time   30.2563
 BZINTS: Fermi energy: -1.658338; 63.000000 electrons
         Band energy:-422.998583;  BLOECHL correction: -0.002160
       DOS:  cpu time    0.0040: real time    0.0049
    --------------------------------------------
      LOOP:  cpu time   30.1240: real time   30.2612

 eigenvalue-minimisations  :  1312
 total energy-change (2. order) :-0.3885911E+03  (-0.3556450E+03)
 number of electron      63.0000000 magnetization       9.7800000
 augmentation part       63.0000000 magnetization       9.7800000

 Free energy of the ion-electron system (eV)
  ---------------------------------------------------
  alpha Z        PSCENC =        27.16914594
  Ewald energy   TEWEN  =      7794.22900203
  -Hartree energ DENC   =    -10978.83725727
  -exchange      EXHF   =         0.00000000
  -V(xc)+E(xc)   XCENC  =        92.98947704
  PAW double counting   =      1951.20272144    -2010.32189605
  entropy T*S    EENTRO =         0.00000000
  eigenvalues    EBANDS =      -422.99858312
  atomic energy  EATOM  =      3583.13977814
  Solvation  Ediel_sol  =         0.00000000
  ---------------------------------------------------
  free energy    TOTEN  =        36.57238816 eV

  energy without entropy =       36.57238816  energy(sigma->0) =       36.57238816


--------------------------------------------------------------------------------------------------------




--------------------------------------- Iteration      1(   3)  ---------------------------------------


     EDDAV:  cpu time   29.0880: real time   29.2511
 BZINTS: Fermi energy: -3.048164; 63.000000 electrons
         Band energy:-505.278045;  BLOECHL correction:  0.000000
       DOS:  cpu time    0.0040: real time    0.0024
    --------------------------------------------
      LOOP:  cpu time   29.0920: real time   29.2535

 eigenvalue-minimisations  :  1264
 total energy-change (2. order) :-0.8227946E+02  (-0.7905767E+02)
 number of electron      63.0000000 magnetization       9.7800000
 augmentation part       63.0000000 magnetization       9.7800000

 Free energy of the ion-electron system (eV)
  ---------------------------------------------------
  alpha Z        PSCENC =        27.16914594
  Ewald energy   TEWEN  =      7794.22900203
  -Hartree energ DENC   =    -10978.83725727
  -exchange      EXHF   =         0.00000000
  -V(xc)+E(xc)   XCENC  =        92.98947704
  PAW double counting   =      1951.20272144    -2010.32189605
  entropy T*S    EENTRO =         0.00000000
  eigenvalues    EBANDS =      -505.27804517
  atomic energy  EATOM  =      3583.13977814
  Solvation  Ediel_sol  =         0.00000000
  ---------------------------------------------------
  free energy    TOTEN  =       -45.70707390 eV

  energy without entropy =      -45.70707390  energy(sigma->0) =      -45.70707390


--------------------------------------------------------------------------------------------------------




--------------------------------------- Iteration      1(   4)  ---------------------------------------


     EDDAV:  cpu time   27.8520: real time   28.2951
 BZINTS: Fermi energy: -3.066507; 63.000000 electrons
         Band energy:-508.688692;  BLOECHL correction: -0.000885
       DOS:  cpu time    0.0080: real time    0.0054
    --------------------------------------------
      LOOP:  cpu time   27.8600: real time   28.3006

 eigenvalue-minimisations  :  1216
 total energy-change (2. order) :-0.3410647E+01  (-0.3375143E+01)
 number of electron      63.0000000 magnetization       9.7800000
 augmentation part       63.0000000 magnetization       9.7800000

 Free energy of the ion-electron system (eV)
  ---------------------------------------------------
  alpha Z        PSCENC =        27.16914594
  Ewald energy   TEWEN  =      7794.22900203
  -Hartree energ DENC   =    -10978.83725727
  -exchange      EXHF   =         0.00000000
  -V(xc)+E(xc)   XCENC  =        92.98947704
  PAW double counting   =      1951.20272144    -2010.32189605
  entropy T*S    EENTRO =         0.00000000
  eigenvalues    EBANDS =      -508.68869205
  atomic energy  EATOM  =      3583.13977814
  Solvation  Ediel_sol  =         0.00000000
  ---------------------------------------------------
  free energy    TOTEN  =       -49.11772077 eV

  energy without entropy =      -49.11772077  energy(sigma->0) =      -49.11772077


--------------------------------------------------------------------------------------------------------




--------------------------------------- Iteration      1(   5)  ---------------------------------------


     EDDAV:  cpu time   30.7680: real time   31.1472
 BZINTS: Fermi energy: -3.066538; 63.000000 electrons
         Band energy:-508.801111;  BLOECHL correction: -0.000878
       DOS:  cpu time    0.0040: real time    0.0061
    CHARGE:  cpu time    2.1040: real time    2.1051
    MIXING:  cpu time    0.0480: real time    0.0482
    --------------------------------------------
      LOOP:  cpu time   32.9240: real time   33.3066

 eigenvalue-minimisations  :  1360
 total energy-change (2. order) :-0.1124191E+00  (-0.1123993E+00)
 number of electron      62.9999989 magnetization       9.6963693
 augmentation part       -0.2693881 magnetization       6.6589185

 Broyden mixing:
  rms(total) = 0.36040E+01    rms(broyden)= 0.36040E+01
  rms(prec ) = 0.39078E+01
  weight for this iteration     100.00

 Free energy of the ion-electron system (eV)
  ---------------------------------------------------
  alpha Z        PSCENC =        27.16914594
  Ewald energy   TEWEN  =      7794.22900203
  -Hartree energ DENC   =    -10978.83725727
  -exchange      EXHF   =         0.00000000
  -V(xc)+E(xc)   XCENC  =        92.98947704
  PAW double counting   =      1951.20272144    -2010.32189605
  entropy T*S    EENTRO =         0.00000000
  eigenvalues    EBANDS =      -508.80111117
  atomic energy  EATOM  =      3583.13977814
  Solvation  Ediel_sol  =         0.00000000
  ---------------------------------------------------
  free energy    TOTEN  =       -49.23013990 eV

  energy without entropy =      -49.23013990  energy(sigma->0) =      -49.23013990


--------------------------------------------------------------------------------------------------------




--------------------------------------- Iteration      1(   6)  ---------------------------------------


    POTLOK:  cpu time   51.3440: real time   52.3003
    SETDIJ:  cpu time    0.0400: real time    0.0427
     EDDAV:  cpu time   29.2240: real time   29.4786
 BZINTS: Fermi energy: -4.473417; 63.000000 electrons
         Band energy:-767.828949;  BLOECHL correction: -0.033638
       DOS:  cpu time    0.0080: real time    0.0068
    CHARGE:  cpu time    2.1080: real time    2.1158
    MIXING:  cpu time    0.0400: real time    0.0419
    --------------------------------------------
      LOOP:  cpu time   82.7640: real time   83.9862

 eigenvalue-minimisations  :  1280
 total energy-change (2. order) :-0.7354070E+02  (-0.6442086E+02)
 number of electron      62.9999981 magnetization       9.3261089
 augmentation part       10.2854537 magnetization       9.4773957

 Broyden mixing:
  rms(total) = 0.65924E+01    rms(broyden)= 0.65923E+01
  rms(prec ) = 0.69636E+01
  weight for this iteration     100.00

 eigenvalues of (default mixing * dielectric matrix)
  average eigenvalue GAMMA=   0.3236
  0.3236

 Free energy of the ion-electron system (eV)
  ---------------------------------------------------
  alpha Z        PSCENC =        27.16914594
  Ewald energy   TEWEN  =      7794.22900203
  -Hartree energ DENC   =    -10832.23643375
  -exchange      EXHF   =         0.00000000
  -V(xc)+E(xc)   XCENC  =        96.59447443
  PAW double counting   =      1686.38387360    -1710.22172963
  entropy T*S    EENTRO =         0.00000000
  eigenvalues    EBANDS =      -767.82894939
  atomic energy  EATOM  =      3583.13977814
  Solvation  Ediel_sol  =         0.00000000
  ---------------------------------------------------
  free energy    TOTEN  =      -122.77083863 eV

  energy without entropy =     -122.77083863  energy(sigma->0) =     -122.77083863


--------------------------------------------------------------------------------------------------------




--------------------------------------- Iteration      1(   7)  ---------------------------------------


    POTLOK:  cpu time   52.0160: real time   52.3588
    SETDIJ:  cpu time    0.0400: real time    0.0409
     EDDAV:  cpu time   26.1720: real time   26.3948
 BZINTS: Fermi energy: -4.848805; 63.000000 electrons
         Band energy:-588.191618;  BLOECHL correction: -0.016032
       DOS:  cpu time    0.0040: real time    0.0068
    CHARGE:  cpu time    2.0840: real time    2.0898
    MIXING:  cpu time    0.0440: real time    0.0437
    --------------------------------------------
      LOOP:  cpu time   80.3600: real time   80.9348

 eigenvalue-minimisations  :  1136
 total energy-change (2. order) : 0.7036922E+02  (-0.8689729E+01)
 number of electron      62.9999983 magnetization       9.0385292
 augmentation part        8.7551801 magnetization       8.1347057

 Broyden mixing:
  rms(total) = 0.37968E+01    rms(broyden)= 0.37968E+01
  rms(prec ) = 0.40813E+01
  weight for this iteration     100.00

 eigenvalues of (default mixing * dielectric matrix)
  average eigenvalue GAMMA=   0.4582
  0.4582  0.4582

 Free energy of the ion-electron system (eV)
  ---------------------------------------------------
  alpha Z        PSCENC =        27.16914594
  Ewald energy   TEWEN  =      7794.22900203
  -Hartree energ DENC   =    -10910.04776465
  -exchange      EXHF   =         0.00000000
  -V(xc)+E(xc)   XCENC  =        92.69642468
  PAW double counting   =      1834.28195146    -1885.67853426
  entropy T*S    EENTRO =         0.00000000
  eigenvalues    EBANDS =      -588.19161810
  atomic energy  EATOM  =      3583.13977814
  Solvation  Ediel_sol  =         0.00000000
  ---------------------------------------------------
  free energy    TOTEN  =       -52.40161476 eV

  energy without entropy =      -52.40161476  energy(sigma->0) =      -52.40161476


--------------------------------------------------------------------------------------------------------




--------------------------------------- Iteration      1(   8)  ---------------------------------------


    POTLOK:  cpu time   52.0800: real time   52.5882
    SETDIJ:  cpu time    0.0440: real time    0.0422
     EDDAV:  cpu time   29.5680: real time   30.9212
 BZINTS: Fermi energy: -4.289149; 63.000000 electrons
         Band energy:-525.904350;  BLOECHL correction: -0.006651
       DOS:  cpu time    0.0040: real time    0.0070
    CHARGE:  cpu time    2.0360: real time    2.1356
    MIXING:  cpu time    0.0440: real time    0.0444
    --------------------------------------------
      LOOP:  cpu time   83.7760: real time   85.7387

 eigenvalue-minimisations  :  1344
 total energy-change (2. order) : 0.1511218E+02  (-0.2397571E+01)
 number of electron      62.9999986 magnetization       8.9584953
 augmentation part        3.9087554 magnetization       6.3024110

 Broyden mixing:
  rms(total) = 0.75757E+00    rms(broyden)= 0.75723E+00
  rms(prec ) = 0.77760E+00
  weight for this iteration     100.00

 eigenvalues of (default mixing * dielectric matrix)
  average eigenvalue GAMMA=   0.4218
  0.4454  0.4100  0.4100

 Free energy of the ion-electron system (eV)
  ---------------------------------------------------
  alpha Z        PSCENC =        27.16914594
  Ewald energy   TEWEN  =      7794.22900203
  -Hartree energ DENC   =    -10949.51276248
  -exchange      EXHF   =         0.00000000
  -V(xc)+E(xc)   XCENC  =        92.95232741
  PAW double counting   =      1905.78028552    -1965.14286367
  entropy T*S    EENTRO =         0.00000000
  eigenvalues    EBANDS =      -525.90434951
  atomic energy  EATOM  =      3583.13977814
  Solvation  Ediel_sol  =         0.00000000
  ---------------------------------------------------
  free energy    TOTEN  =       -37.28943663 eV

  energy without entropy =      -37.28943663  energy(sigma->0) =      -37.28943663


--------------------------------------------------------------------------------------------------------




--------------------------------------- Iteration      1(   9)  ---------------------------------------


    POTLOK:  cpu time   52.3040: real time   52.4818
    SETDIJ:  cpu time    0.0440: real time    0.0431
     EDDAV:  cpu time   26.9200: real time   27.1016
 BZINTS: Fermi energy: -4.760176; 63.000000 electrons
         Band energy:-538.726614;  BLOECHL correction: -0.012768
       DOS:  cpu time    0.0040: real time    0.0074
    CHARGE:  cpu time    2.0480: real time    2.0825
    MIXING:  cpu time    0.0440: real time    0.0451
    --------------------------------------------
      LOOP:  cpu time   81.3640: real time   81.7615

 eigenvalue-minimisations  :  1168
 total energy-change (2. order) :-0.1107683E+01  (-0.1001319E+01)
 number of electron      62.9999984 magnetization       8.8687100
 augmentation part        6.1284631 magnetization       8.4559042

 Broyden mixing:
  rms(total) = 0.17745E+01    rms(broyden)= 0.17745E+01
  rms(prec ) = 0.18826E+01
  weight for this iteration     100.00

 eigenvalues of (default mixing * dielectric matrix)
  average eigenvalue GAMMA=   0.3649
  0.4398  0.4398  0.4188  0.1610

 Free energy of the ion-electron system (eV)
  ---------------------------------------------------
  alpha Z        PSCENC =        27.16914594
  Ewald energy   TEWEN  =      7794.22900203
  -Hartree energ DENC   =    -10939.39326723
  -exchange      EXHF   =         0.00000000
  -V(xc)+E(xc)   XCENC  =        93.03760568
  PAW double counting   =      1888.32862899    -1946.18139959
  entropy T*S    EENTRO =         0.00000000
  eigenvalues    EBANDS =      -538.72661368
  atomic energy  EATOM  =      3583.13977814
  Solvation  Ediel_sol  =         0.00000000
  ---------------------------------------------------
  free energy    TOTEN  =       -38.39711971 eV

  energy without entropy =      -38.39711971  energy(sigma->0) =      -38.39711971


--------------------------------------------------------------------------------------------------------




--------------------------------------- Iteration      1(  10)  ---------------------------------------


    POTLOK:  cpu time   50.9840: real time   51.5360
    SETDIJ:  cpu time    0.0440: real time    0.0440
     EDDAV:  cpu time   30.9920: real time   31.3630
 BZINTS: Fermi energy: -4.670081; 63.000000 electrons
         Band energy:-535.170478;  BLOECHL correction: -0.004745
       DOS:  cpu time    0.0040: real time    0.0069
    CHARGE:  cpu time    2.0640: real time    2.1138
    MIXING:  cpu time    0.0440: real time    0.0439
    --------------------------------------------
      LOOP:  cpu time   84.1320: real time   85.1076

 eigenvalue-minimisations  :  1376
 total energy-change (2. order) : 0.4581626E+00  (-0.6737655E-01)
 number of electron      62.9999984 magnetization       8.8372861
 augmentation part        5.1901603 magnetization       7.1332162

 Broyden mixing:
  rms(total) = 0.88441E+00    rms(broyden)= 0.88424E+00
  rms(prec ) = 0.94468E+00
  weight for this iteration     100.00

 eigenvalues of (default mixing * dielectric matrix)
  average eigenvalue GAMMA=   0.2956
  0.4415  0.4415  0.4050  0.1750  0.0152

 Free energy of the ion-electron system (eV)
  ---------------------------------------------------
  alpha Z        PSCENC =        27.16914594
  Ewald energy   TEWEN  =      7794.22900203
  -Hartree energ DENC   =    -10942.22282443
  -exchange      EXHF   =         0.00000000
  -V(xc)+E(xc)   XCENC  =        93.02823476
  PAW double counting   =      1893.87205254    -1951.98386807
  entropy T*S    EENTRO =         0.00000000
  eigenvalues    EBANDS =      -535.17047798
  atomic energy  EATOM  =      3583.13977814
  Solvation  Ediel_sol  =         0.00000000
  ---------------------------------------------------
  free energy    TOTEN  =       -37.93895707 eV

  energy without entropy =      -37.93895707  energy(sigma->0) =      -37.93895707


--------------------------------------------------------------------------------------------------------




--------------------------------------- Iteration      1(  11)  ---------------------------------------


    POTLOK:  cpu time   50.4920: real time   51.1262
    SETDIJ:  cpu time    0.0480: real time    0.0471
     EDDAV:  cpu time   27.4600: real time   27.7436
 BZINTS: Fermi energy: -4.601580; 63.000000 electrons
         Band energy:-533.856729;  BLOECHL correction: -0.012115
       DOS:  cpu time    0.0040: real time    0.0068
    CHARGE:  cpu time    2.1160: real time    2.1150
    MIXING:  cpu time    0.0440: real time    0.0446
    --------------------------------------------
      LOOP:  cpu time   80.1640: real time   81.0833

 eigenvalue-minimisations  :  1216
 total energy-change (2. order) : 0.5160667E-01  (-0.3056584E-01)
 number of electron      62.9999984 magnetization       8.8373512
 augmentation part        4.9050721 magnetization       6.9450094

 Broyden mixing:
  rms(total) = 0.66553E+00    rms(broyden)= 0.66546E+00
  rms(prec ) = 0.70687E+00
  weight for this iteration     100.00

 eigenvalues of (default mixing * dielectric matrix)
  average eigenvalue GAMMA=   0.2937
  0.4528  0.4528  0.4454  0.1525  0.1894  0.0692

 Free energy of the ion-electron system (eV)
  ---------------------------------------------------
  alpha Z        PSCENC =        27.16914594
  Ewald energy   TEWEN  =      7794.22900203
  -Hartree energ DENC   =    -10943.42270758
  -exchange      EXHF   =         0.00000000
  -V(xc)+E(xc)   XCENC  =        93.02517912
  PAW double counting   =      1896.12435997    -1954.29537857
  entropy T*S    EENTRO =         0.00000000
  eigenvalues    EBANDS =      -533.85672944
  atomic energy  EATOM  =      3583.13977814
  Solvation  Ediel_sol  =         0.00000000
  ---------------------------------------------------
  free energy    TOTEN  =       -37.88735039 eV

  energy without entropy =      -37.88735039  energy(sigma->0) =      -37.88735039


--------------------------------------------------------------------------------------------------------




--------------------------------------- Iteration      1(  12)  ---------------------------------------


    POTLOK:  cpu time   51.0800: real time   51.4114
    SETDIJ:  cpu time    0.0440: real time    0.0414
     EDDAV:  cpu time   28.2160: real time   28.4480
 BZINTS: Fermi energy: -4.596463; 63.000000 electrons
         Band energy:-533.838279;  BLOECHL correction: -0.012194
       DOS:  cpu time    0.0080: real time    0.0052
    CHARGE:  cpu time    2.1320: real time    2.1362
    MIXING:  cpu time    0.0520: real time    0.0518
    --------------------------------------------
      LOOP:  cpu time   81.5320: real time   82.0940

 eigenvalue-minimisations  :  1248
 total energy-change (2. order) : 0.3981663E-01  (-0.3368312E-01)
 number of electron      62.9999984 magnetization       8.8347692
 augmentation part        4.8957853 magnetization       6.9313583

 Broyden mixing:
  rms(total) = 0.66503E+00    rms(broyden)= 0.66502E+00
  rms(prec ) = 0.70601E+00
  weight for this iteration     100.00

 eigenvalues of (default mixing * dielectric matrix)
  average eigenvalue GAMMA=   0.2507
  0.4526  0.4526  0.4444  0.1896  0.1268  0.0694  0.0195

 Free energy of the ion-electron system (eV)
  ---------------------------------------------------
  alpha Z        PSCENC =        27.16914594
  Ewald energy   TEWEN  =      7794.22900203
  -Hartree energ DENC   =    -10943.41944130
  -exchange      EXHF   =         0.00000000
  -V(xc)+E(xc)   XCENC  =        93.02800192
  PAW double counting   =      1896.11991482    -1954.27565595
  entropy T*S    EENTRO =         0.00000000
  eigenvalues    EBANDS =      -533.83827937
  atomic energy  EATOM  =      3583.13977814
  Solvation  Ediel_sol  =         0.00000000
  ---------------------------------------------------
  free energy    TOTEN  =       -37.84753377 eV

  energy without entropy =      -37.84753377  energy(sigma->0) =      -37.84753377


--------------------------------------------------------------------------------------------------------




--------------------------------------- Iteration      1(  13)  ---------------------------------------


    POTLOK:  cpu time   50.6640: real time   50.9005
    SETDIJ:  cpu time    0.0440: real time    0.0408
     EDDAV:  cpu time   27.9600: real time   28.4904
 BZINTS: Fermi energy: -4.602102; 63.000000 electrons
         Band energy:-534.018709;  BLOECHL correction: -0.012013
       DOS:  cpu time    0.0040: real time    0.0067
    CHARGE:  cpu time    2.0520: real time    2.1303
    MIXING:  cpu time    0.0440: real time    0.0448
    --------------------------------------------
      LOOP:  cpu time   80.7680: real time   81.6134

 eigenvalue-minimisations  :  1248
 total energy-change (2. order) : 0.1477658E-02  (-0.4074368E-02)
 number of electron      62.9999984 magnetization       8.6517497
 augmentation part        4.9046762 magnetization       6.7590930

 Broyden mixing:
  rms(total) = 0.67439E+00    rms(broyden)= 0.67439E+00
  rms(prec ) = 0.71646E+00
  weight for this iteration     100.00

 eigenvalues of (default mixing * dielectric matrix)
  average eigenvalue GAMMA=   0.3956
  0.5448  0.5448  0.4839  0.4839  0.4480  0.4480  0.1535  0.0576

 Free energy of the ion-electron system (eV)
  ---------------------------------------------------
  alpha Z        PSCENC =        27.16914594
  Ewald energy   TEWEN  =      7794.22900203
  -Hartree energ DENC   =    -10943.26352199
  -exchange      EXHF   =         0.00000000
  -V(xc)+E(xc)   XCENC  =        93.02573313
  PAW double counting   =      1895.89762532    -1954.02510943
  entropy T*S    EENTRO =         0.00000000
  eigenvalues    EBANDS =      -534.01870924
  atomic energy  EATOM  =      3583.13977814
  Solvation  Ediel_sol  =         0.00000000
  ---------------------------------------------------
  free energy    TOTEN  =       -37.84605611 eV

  energy without entropy =      -37.84605611  energy(sigma->0) =      -37.84605611


--------------------------------------------------------------------------------------------------------




--------------------------------------- Iteration      1(  14)  ---------------------------------------


    POTLOK:  cpu time   50.5200: real time   51.0194
    SETDIJ:  cpu time    0.0440: real time    0.0438
     EDDAV:  cpu time   37.4240: real time   38.2355
 BZINTS: Fermi energy: -4.603426; 63.000000 electrons
         Band energy:-580.358695;  BLOECHL correction: -0.011352
       DOS:  cpu time    0.0040: real time    0.0078
    CHARGE:  cpu time    2.1000: real time    2.1399
    MIXING:  cpu time    0.0480: real time    0.0481
    --------------------------------------------
      LOOP:  cpu time   90.1400: real time   91.4945

 eigenvalue-minimisations  :  1712
 total energy-change (2. order) :-0.4463372E+02  (-0.4401239E+02)
 number of electron      62.9999985 magnetization       8.6463821
 augmentation part        3.9689600 magnetization       7.4661492

 Broyden mixing:
  rms(total) = 0.21344E+01    rms(broyden)= 0.20949E+01
  rms(prec ) = 0.21403E+01
  weight for this iteration     100.00

 eigenvalues of (default mixing * dielectric matrix)
  average eigenvalue GAMMA=   0.3525
  0.5465  0.5465  0.4836  0.4836  0.4477  0.4477  0.1533  0.0575  0.0063

 Free energy of the ion-electron system (eV)
  ---------------------------------------------------
  alpha Z        PSCENC =        27.16914594
  Ewald energy   TEWEN  =      7794.22900203
  -Hartree energ DENC   =    -10941.98808741
  -exchange      EXHF   =         0.00000000
  -V(xc)+E(xc)   XCENC  =        93.02627764
  PAW double counting   =      1896.95067737    -1954.64787945
  entropy T*S    EENTRO =         0.00000000
  eigenvalues    EBANDS =      -580.35869463
  atomic energy  EATOM  =      3583.13977814
  Solvation  Ediel_sol  =         0.00000000
  ---------------------------------------------------
  free energy    TOTEN  =       -82.47978037 eV

  energy without entropy =      -82.47978037  energy(sigma->0) =      -82.47978037


--------------------------------------------------------------------------------------------------------




--------------------------------------- Iteration      1(  15)  ---------------------------------------


    POTLOK:  cpu time   50.4120: real time   50.8004
    SETDIJ:  cpu time    0.0440: real time    0.0459
     EDDAV:  cpu time   28.7080: real time   29.2164
 BZINTS: Fermi energy: -4.564426; 63.000000 electrons
         Band energy:-535.564395;  BLOECHL correction: -0.013146
       DOS:  cpu time    0.0040: real time    0.0071
    CHARGE:  cpu time    2.0960: real time    2.1030
    MIXING:  cpu time    0.0480: real time    0.0473
    --------------------------------------------
      LOOP:  cpu time   81.3120: real time   82.2202

 eigenvalue-minimisations  :  1280
 total energy-change (2. order) : 0.4558878E+02  (-0.1258122E+03)
 number of electron      62.9999984 magnetization       8.1692653
 augmentation part        4.5287892 magnetization       6.2190672

 Broyden mixing:
  rms(total) = 0.56647E+00    rms(broyden)= 0.46263E+00
  rms(prec ) = 0.47990E+00
  weight for this iteration     100.00
  WARNING: grid for Broyden might be to small

 eigenvalues of (default mixing * dielectric matrix)
  average eigenvalue GAMMA=   0.4567
  1.0292  1.0292  0.5679  0.4523  0.4523  0.4061  0.4061  0.1556  0.0575  0.0113

 Free energy of the ion-electron system (eV)
  ---------------------------------------------------
  alpha Z        PSCENC =        27.16914594
  Ewald energy   TEWEN  =      7794.22900203
  -Hartree energ DENC   =    -10941.75281243
  -exchange      EXHF   =         0.00000000
  -V(xc)+E(xc)   XCENC  =        93.58017440
  PAW double counting   =      1896.65190775    -1954.34379712
  entropy T*S    EENTRO =         0.00000000
  eigenvalues    EBANDS =      -535.56439497
  atomic energy  EATOM  =      3583.13977814
  Solvation  Ediel_sol  =         0.00000000
  ---------------------------------------------------
  free energy    TOTEN  =       -36.89099626 eV

  energy without entropy =      -36.89099626  energy(sigma->0) =      -36.89099626


--------------------------------------------------------------------------------------------------------




--------------------------------------- Iteration      1(  16)  ---------------------------------------


    POTLOK:  cpu time   50.8280: real time   50.9659
    SETDIJ:  cpu time    0.0400: real time    0.0402
     EDDAV:  cpu time   27.1480: real time   27.3389
 BZINTS: Fermi energy: -4.496706; 62.999943 electrons
         Band energy:-541.923295;  BLOECHL correction: -0.000042
       DOS:  cpu time    0.0080: real time    0.0097
    CHARGE:  cpu time    2.0320: real time    2.0560
    MIXING:  cpu time    0.0480: real time    0.0475
    --------------------------------------------
      LOOP:  cpu time   80.1040: real time   80.4582

 eigenvalue-minimisations  :  1200
 total energy-change (2. order) :-0.8210985E+00  (-0.2057574E+00)
 number of electron      62.9999415 magnetization       8.0701390
 augmentation part        3.7707839 magnetization       5.3202934

 Broyden mixing:
  rms(total) = 0.11063E+01    rms(broyden)= 0.11043E+01
  rms(prec ) = 0.11973E+01
  weight for this iteration     100.00

 eigenvalues of (default mixing * dielectric matrix)
  average eigenvalue GAMMA=   0.4485
  0.9753  0.9753  0.4321  0.4321  0.4787  0.4787  0.4689  0.4689  0.1548  0.0574
  0.0113

 Free energy of the ion-electron system (eV)
  ---------------------------------------------------
  alpha Z        PSCENC =        27.16914594
  Ewald energy   TEWEN  =      7794.22900203
  -Hartree energ DENC   =    -10936.37386983
  -exchange      EXHF   =         0.00000000
  -V(xc)+E(xc)   XCENC  =        93.27757362
  PAW double counting   =      1893.36055351    -1950.59098283
  entropy T*S    EENTRO =         0.00000000
  eigenvalues    EBANDS =      -541.92329534
  atomic energy  EATOM  =      3583.13977814
  Solvation  Ediel_sol  =         0.00000000
  ---------------------------------------------------
  free energy    TOTEN  =       -37.71209477 eV

  energy without entropy =      -37.71209477  energy(sigma->0) =      -37.71209477


--------------------------------------------------------------------------------------------------------




--------------------------------------- Iteration      1(  17)  ---------------------------------------


    POTLOK:  cpu time   50.4240: real time   50.8280
    SETDIJ:  cpu time    0.0440: real time    0.0429
     EDDAV:  cpu time   35.9880: real time   36.5165
 BZINTS: Fermi energy: -4.627330; 63.000000 electrons
         Band energy:-969.507472;  BLOECHL correction: -0.012685
       DOS:  cpu time    0.0080: real time    0.0074
    CHARGE:  cpu time    2.0960: real time    2.1202
    MIXING:  cpu time    0.0480: real time    0.0481
    --------------------------------------------
      LOOP:  cpu time   88.6120: real time   89.5632

 eigenvalue-minimisations  :  1632
 total energy-change (2. order) :-0.4276580E+03  (-0.4270483E+03)
 number of electron      62.9999986 magnetization       8.0697697
 augmentation part        3.7913803 magnetization       6.8124587

 Broyden mixing:
  rms(total) = 0.24809E+01    rms(broyden)= 0.23828E+01
  rms(prec ) = 0.24372E+01
  weight for this iteration     100.00

 eigenvalues of (default mixing * dielectric matrix)
  average eigenvalue GAMMA=   0.4113
  0.9753  0.9753  0.4321  0.4321  0.4785  0.4785  0.4688  0.4688  0.1548  0.0574
  0.0113  0.0032

 Free energy of the ion-electron system (eV)
  ---------------------------------------------------
  alpha Z        PSCENC =        27.16914594
  Ewald energy   TEWEN  =      7794.22900203
  -Hartree energ DENC   =    -10936.29479084
  -exchange      EXHF   =         0.00000000
  -V(xc)+E(xc)   XCENC  =        93.29466468
  PAW double counting   =      1892.62417386    -1950.02455000
  entropy T*S    EENTRO =         0.00000000
  eigenvalues    EBANDS =      -969.50747211
  atomic energy  EATOM  =      3583.13977814
  Solvation  Ediel_sol  =         0.00000000
  ---------------------------------------------------
  free energy    TOTEN  =      -465.37004831 eV

  energy without entropy =     -465.37004831  energy(sigma->0) =     -465.37004831


--------------------------------------------------------------------------------------------------------




--------------------------------------- Iteration      1(  18)  ---------------------------------------


    POTLOK:  cpu time   50.6920: real time   50.8858
    SETDIJ:  cpu time    0.0400: real time    0.0412
     EDDAV:  cpu time   25.3480: real time   25.5404
 BZINTS: Fermi energy: -4.554419; 63.000000 electrons
         Band energy:-541.658724;  BLOECHL correction: -0.013433
       DOS:  cpu time    0.0040: real time    0.0077
    CHARGE:  cpu time    2.0800: real time    2.1032
    MIXING:  cpu time    0.0600: real time    0.0579
    --------------------------------------------
      LOOP:  cpu time   78.2200: real time   78.6362

 eigenvalue-minimisations  :  1104
 total energy-change (2. order) : 0.4288616E+03  (-0.2109128E+03)
 number of electron      62.9999985 magnetization       7.8029596
 augmentation part        4.2106127 magnetization       5.4523936

 Broyden mixing:
  rms(total) = 0.68244E+00    rms(broyden)= 0.40041E+00
  rms(prec ) = 0.41865E+00
  weight for this iteration     100.00
  WARNING: grid for Broyden might be to small

 eigenvalues of (default mixing * dielectric matrix)
  average eigenvalue GAMMA=   0.4567
  0.9909  0.9909  0.7774  0.7774  0.4410  0.4410  0.4602  0.4602  0.3730  0.1550
  0.0574  0.0113  0.0013

 Free energy of the ion-electron system (eV)
  ---------------------------------------------------
  alpha Z        PSCENC =        27.16914594
  Ewald energy   TEWEN  =      7794.22900203
  -Hartree energ DENC   =    -10936.34113276
  -exchange      EXHF   =         0.00000000
  -V(xc)+E(xc)   XCENC  =        94.36215833
  PAW double counting   =      1892.60387340    -1950.01251221
  entropy T*S    EENTRO =         0.00000000
  eigenvalues    EBANDS =      -541.65872436
  atomic energy  EATOM  =      3583.13977814
  Solvation  Ediel_sol  =         0.00000000
  ---------------------------------------------------
  free energy    TOTEN  =       -36.50841150 eV

  energy without entropy =      -36.50841150  energy(sigma->0) =      -36.50841150


--------------------------------------------------------------------------------------------------------




--------------------------------------- Iteration      1(  19)  ---------------------------------------


    POTLOK:  cpu time   51.0760: real time   51.2774
    SETDIJ:  cpu time    0.0440: real time    0.0438
     EDDAV:  cpu time   26.3040: real time   26.4879
 BZINTS: Fermi energy: -4.595166; 63.000000 electrons
         Band energy:-542.932502;  BLOECHL correction: -0.012701
       DOS:  cpu time    0.0040: real time    0.0070
    CHARGE:  cpu time    2.0880: real time    2.0917
    MIXING:  cpu time    0.0520: real time    0.0530
    --------------------------------------------
      LOOP:  cpu time   79.5680: real time   79.9608

 eigenvalue-minimisations  :  1152
 total energy-change (2. order) :-0.1152534E+01  (-0.2560405E-01)
 number of electron      62.9999985 magnetization       7.6692244
 augmentation part        4.2563664 magnetization       5.4784266

 Broyden mixing:
  rms(total) = 0.52179E+00    rms(broyden)= 0.50991E+00
  rms(prec ) = 0.51928E+00
  weight for this iteration     100.00

 eigenvalues of (default mixing * dielectric matrix)
  average eigenvalue GAMMA=   0.4867
  1.0028  1.0028  0.8441  0.8441  0.5815  0.5815  0.4485  0.4485  0.4177  0.4177
  0.1550  0.0574  0.0113  0.0013

 Free energy of the ion-electron system (eV)
  ---------------------------------------------------
  alpha Z        PSCENC =        27.16914594
  Ewald energy   TEWEN  =      7794.22900203
  -Hartree energ DENC   =    -10935.10835700
  -exchange      EXHF   =         0.00000000
  -V(xc)+E(xc)   XCENC  =        93.46649646
  PAW double counting   =      1891.87377344    -1949.49828212
  entropy T*S    EENTRO =         0.00000000
  eigenvalues    EBANDS =      -542.93250201
  atomic energy  EATOM  =      3583.13977814
  Solvation  Ediel_sol  =         0.00000000
  ---------------------------------------------------
  free energy    TOTEN  =       -37.66094512 eV

  energy without entropy =      -37.66094512  energy(sigma->0) =      -37.66094512


--------------------------------------------------------------------------------------------------------




--------------------------------------- Iteration      1(  20)  ---------------------------------------


    POTLOK:  cpu time   50.1760: real time   50.8216
    SETDIJ:  cpu time    0.0400: real time    0.0407
     EDDAV:  cpu time   30.8800: real time   31.4103
 BZINTS: Fermi energy: -4.631202; 63.000000 electrons
         Band energy:-543.915385;  BLOECHL correction: -0.013419
       DOS:  cpu time    0.0080: real time    0.0074
    CHARGE:  cpu time    2.0960: real time    2.1110
    MIXING:  cpu time    0.0520: real time    0.0523
    --------------------------------------------
      LOOP:  cpu time   83.2520: real time   84.4433

 eigenvalue-minimisations  :  1392
 total energy-change (2. order) :-0.2175503E+00  (-0.1474676E-01)
 number of electron      62.9999984 magnetization       7.3861112
 augmentation part        4.4162948 magnetization       5.3476721

 Broyden mixing:
  rms(total) = 0.48030E+00    rms(broyden)= 0.47978E+00
  rms(prec ) = 0.49248E+00
  weight for this iteration     100.00

 eigenvalues of (default mixing * dielectric matrix)
  average eigenvalue GAMMA=   0.5533
  1.7329  1.2144  0.7982  0.7982  0.7025  0.4376  0.4376  0.5420  0.5420  0.4342
  0.4342  0.1550  0.0574  0.0113  0.0013

 Free energy of the ion-electron system (eV)
  ---------------------------------------------------
  alpha Z        PSCENC =        27.16914594
  Ewald energy   TEWEN  =      7794.22900203
  -Hartree energ DENC   =    -10934.22853649
  -exchange      EXHF   =         0.00000000
  -V(xc)+E(xc)   XCENC  =        93.38840583
  PAW double counting   =      1890.65152168    -1948.31242728
  entropy T*S    EENTRO =         0.00000000
  eigenvalues    EBANDS =      -543.91538528
  atomic energy  EATOM  =      3583.13977814
  Solvation  Ediel_sol  =         0.00000000
  ---------------------------------------------------
  free energy    TOTEN  =       -37.87849544 eV

  energy without entropy =      -37.87849544  energy(sigma->0) =      -37.87849544


--------------------------------------------------------------------------------------------------------




--------------------------------------- Iteration      1(  21)  ---------------------------------------


    POTLOK:  cpu time   50.5960: real time   50.9919
    SETDIJ:  cpu time    0.0440: real time    0.0425
     EDDAV:  cpu time   31.9960: real time   32.4434
 BZINTS: Fermi energy: -4.599426; 63.027343 electrons
         Band energy:-544.160503;  BLOECHL correction: -0.015161
       DOS:  cpu time    0.0080: real time    0.0095
    CHARGE:  cpu time    2.0760: real time    2.1481
    MIXING:  cpu time    0.0560: real time    0.0640
    --------------------------------------------
      LOOP:  cpu time   84.7760: real time   85.6993

 eigenvalue-minimisations  :  1440
 total energy-change (2. order) :-0.2521525E+00  (-0.4856934E-01)
 number of electron      63.0273412 magnetization       7.1947978
 augmentation part        4.2385115 magnetization       5.0459534

 Broyden mixing:
  rms(total) = 0.38070E+00    rms(broyden)= 0.38067E+00
  rms(prec ) = 0.40082E+00
  weight for this iteration     100.00

 eigenvalues of (default mixing * dielectric matrix)
  average eigenvalue GAMMA=   0.5998
  2.1223  1.0565  1.0565  0.8397  0.8397  0.4428  0.4428  0.5735  0.5735  0.5596
  0.4327  0.4327  0.1550  0.0574  0.0113  0.0013

 Free energy of the ion-electron system (eV)
  ---------------------------------------------------
  alpha Z        PSCENC =        27.16914594
  Ewald energy   TEWEN  =      7794.22900203
  -Hartree energ DENC   =    -10933.82730889
  -exchange      EXHF   =         0.00000000
  -V(xc)+E(xc)   XCENC  =        93.38780227
  PAW double counting   =      1891.15915793    -1949.22772258
  entropy T*S    EENTRO =         0.00000000
  eigenvalues    EBANDS =      -544.16050278
  atomic energy  EATOM  =      3583.13977814
  Solvation  Ediel_sol  =         0.00000000
  ---------------------------------------------------
  free energy    TOTEN  =       -38.13064793 eV

  energy without entropy =      -38.13064793  energy(sigma->0) =      -38.13064793


--------------------------------------------------------------------------------------------------------




--------------------------------------- Iteration      1(  22)  ---------------------------------------


    POTLOK:  cpu time   50.6440: real time   50.9348
    SETDIJ:  cpu time    0.0440: real time    0.0447
     EDDAV:  cpu time   32.2480: real time   32.7134
 BZINTS: Fermi energy: -4.712713; 63.000000 electrons
         Band energy:-558.673531;  BLOECHL correction: -0.010763
       DOS:  cpu time    0.0040: real time    0.0067
    CHARGE:  cpu time    2.1000: real time    2.1372
    MIXING:  cpu time    0.0600: real time    0.0632
    --------------------------------------------
      LOOP:  cpu time   85.1000: real time   85.9001

 eigenvalue-minimisations  :  1440
 total energy-change (2. order) :-0.1373408E+02  (-0.1358231E+02)
 number of electron      62.9999985 magnetization       7.1948764
 augmentation part        4.2488209 magnetization       5.9865313

 Broyden mixing:
  rms(total) = 0.17189E+01    rms(broyden)= 0.16960E+01
  rms(prec ) = 0.17383E+01
  weight for this iteration     100.00

 eigenvalues of (default mixing * dielectric matrix)
  average eigenvalue GAMMA=   0.5646
  2.1215  1.0569  1.0569  0.8397  0.8397  0.5735  0.5735  0.4428  0.4428  0.5595
  0.4327  0.4327  0.1550  0.0574  0.0113  0.0003  0.0013

 Free energy of the ion-electron system (eV)
  ---------------------------------------------------
  alpha Z        PSCENC =        27.16914594
  Ewald energy   TEWEN  =      7794.22900203
  -Hartree energ DENC   =    -10932.94573605
  -exchange      EXHF   =         0.00000000
  -V(xc)+E(xc)   XCENC  =        93.42328249
  PAW double counting   =      1889.41481886    -1947.62148576
  entropy T*S    EENTRO =         0.00000000
  eigenvalues    EBANDS =      -558.67353061
[...]
     34      -1.7836      0.00000
     35      -1.5119      0.00000
     36      -1.4263      0.00000
     37      -0.2639      0.00000
     38       0.4869      0.00000
     39       0.5834      0.00000
     40       0.8081      0.00000
     41       1.4900      0.00000
     42       1.5214      0.00000
     43       2.1692      0.00000
     44       2.3649      0.00000
     45       2.7808      0.00000
     46       2.9401      0.00000
     47       3.2478      0.00000
     48       3.2911      0.00000

 k-point     5 :      -0.4000    0.2000    0.0000
  band No.  band energies     occupation 
      1     -18.2388      1.00000
      2     -16.9292      1.00000
      3     -16.5449      1.00000
      4     -15.9342      1.00000
      5     -15.9297      1.00000
      6     -15.6498      1.00000
      7     -12.3513      1.00000
      8     -10.8788      1.00000
      9      -9.0293      1.00000
     10      -8.5531      1.00000
     11      -8.1658      1.00000
     12      -7.6548      1.00000
     13      -7.6257      1.00000
     14      -7.2765      1.00000
     15      -7.0873      1.00000
     16      -6.7132      1.00000
     17      -6.5354      1.00000
     18      -6.4296      1.00000
     19      -6.2268      1.00000
     20      -5.8807      1.00000
     21      -5.7403      1.00000
     22      -5.1135      1.00000
     23      -4.9670      1.00000
     24      -4.8673      1.00000
     25      -4.5518      1.00000
     26      -4.2774      1.00000
     27      -3.9583      1.00000
     28      -3.7738      1.00000
     29      -3.7455      1.00000
     30      -3.5815      1.00000
     31      -3.5541      1.00000
     32      -2.7330     -0.04855
     33      -2.0082      0.00000
     34      -1.9191      0.00000
     35      -1.6600      0.00000
     36      -1.3753      0.00000
     37      -0.3539      0.00000
     38       0.2485      0.00000
     39       0.2621      0.00000
     40       0.9272      0.00000
     41       1.1333      0.00000
     42       1.2265      0.00000
     43       2.6127      0.00000
     44       2.7370      0.00000
     45       2.8490      0.00000
     46       3.0696      0.00000
     47       3.2749      0.00000
     48       3.5748      0.00000


--------------------------------------------------------------------------------------------------------


 soft charge-density along one line, spin component           1
         0         1         2         3         4         5         6         7         8         9
 total charge-density along one line

 soft charge-density along one line, spin component           2
         0         1         2         3         4         5         6         7         8         9
 total charge-density along one line

 pseudopotential strength for first ion, spin component:           1
-10.711  -0.100  -0.000   0.006  -0.000   1.115   0.035   0.000
 -0.100 -10.832   0.000  -0.000   0.006   0.035   1.157  -0.000
 -0.000   0.000 -10.630   0.000   0.000   0.000  -0.000   1.087
  0.006  -0.000   0.000 -10.832   0.100  -0.002   0.000  -0.000
 -0.000   0.006   0.000   0.100 -10.711   0.000  -0.002  -0.000
  1.115   0.035   0.000  -0.002   0.000   0.628  -0.013  -0.000
  0.035   1.157  -0.000   0.000  -0.002  -0.013   0.613   0.000
  0.000  -0.000   1.087  -0.000  -0.000  -0.000   0.000   0.639
 -0.002   0.000  -0.000   1.157  -0.035   0.001  -0.000   0.000
  0.000  -0.002  -0.000  -0.035   1.115  -0.000   0.001   0.000
  0.000  -0.000   0.003  -0.000   0.000  -0.000  -0.000  -0.001
 -0.000   0.000  -0.000   0.000  -0.000   0.000  -0.000   0.000
 -0.002  -0.014   0.000  -0.000   0.002   0.001   0.005  -0.000
 -0.000  -0.000  -0.013  -0.000  -0.000  -0.000   0.000   0.004
  0.002  -0.000   0.000  -0.014   0.002   0.000  -0.000  -0.000
  0.002   0.006  -0.000   0.000  -0.002  -0.000  -0.002   0.000
  0.000   0.000   0.004   0.000   0.000  -0.000  -0.000  -0.001
 -0.002   0.000  -0.000   0.006  -0.002   0.000  -0.000   0.000
 pseudopotential strength for first ion, spin component:           2
-10.562  -0.069  -0.000   0.060  -0.000   1.060   0.024   0.000
 -0.069 -10.629   0.000  -0.000   0.060   0.024   1.083  -0.000
 -0.000   0.000 -10.517   0.000   0.000   0.000  -0.000   1.044
  0.060  -0.000   0.000 -10.629   0.069  -0.021   0.000  -0.000
 -0.000   0.060   0.000   0.069 -10.562   0.000  -0.021  -0.000
  1.060   0.024   0.000  -0.021   0.000   0.649  -0.009  -0.000
  0.024   1.083  -0.000   0.000  -0.021  -0.009   0.640   0.000
  0.000  -0.000   1.044  -0.000  -0.000  -0.000   0.000   0.655
 -0.021   0.000  -0.000   1.083  -0.024   0.007  -0.000   0.000
  0.000  -0.021  -0.000  -0.024   1.060  -0.000   0.007   0.000
  0.000  -0.000   0.001  -0.000   0.000  -0.000  -0.000  -0.000
 -0.000   0.000  -0.000   0.000  -0.000   0.000  -0.000   0.000
 -0.002  -0.014   0.000  -0.000   0.002   0.001   0.005  -0.000
 -0.000  -0.000  -0.012  -0.000  -0.000  -0.000   0.000   0.004
  0.002  -0.000   0.000  -0.014   0.002  -0.000  -0.000  -0.000
  0.002   0.006  -0.000   0.000  -0.002  -0.000  -0.002   0.000
  0.000   0.000   0.004   0.000   0.000  -0.000  -0.000  -0.001
 -0.002   0.000  -0.000   0.006  -0.002   0.000  -0.000   0.000
 total augmentation occupancy for first ion, spin component:           1
  1.685  -0.257   0.000   0.086  -0.000   0.112   0.175   0.000  -0.079  -0.000  -0.000  -0.000  -0.033  -0.000   0.025   0.001
 -0.257   1.436  -0.000  -0.000   0.086   0.174   0.280   0.000  -0.000  -0.078   0.000   0.000  -0.062   0.000   0.007   0.004
  0.000  -0.000   1.912  -0.000  -0.000   0.000   0.000  -0.052   0.000  -0.000  -0.003  -0.004  -0.000  -0.007   0.000   0.000
  0.086  -0.000  -0.000   1.436   0.257  -0.078   0.000   0.000   0.280  -0.174  -0.000   0.000  -0.007  -0.000  -0.062   0.000
 -0.000   0.086  -0.000   0.257   1.685   0.000  -0.079  -0.000  -0.175   0.112   0.000   0.000   0.025   0.000   0.033  -0.002
  0.112   0.174   0.000  -0.078   0.000   0.140   0.067   0.000  -0.024  -0.000   0.000  -0.000   0.005  -0.000   0.028  -0.000
  0.175   0.280   0.000   0.000  -0.079   0.067   0.212   0.000  -0.000  -0.024   0.000   0.000  -0.033   0.000  -0.006   0.004
  0.000   0.000  -0.052   0.000  -0.000   0.000   0.000   0.113   0.000  -0.000   0.016  -0.010  -0.000  -0.023   0.000   0.000
 -0.079  -0.000   0.000   0.280  -0.175  -0.024  -0.000   0.000   0.212  -0.067   0.000   0.000   0.006  -0.000  -0.033  -0.000
 -0.000  -0.078  -0.000  -0.174   0.112  -0.000  -0.024  -0.000  -0.067   0.140  -0.000   0.000   0.028   0.000  -0.005  -0.005
 -0.000   0.000  -0.003   0.000   0.000   0.000   0.000   0.016   0.000  -0.000   1.130  -0.365   0.000  -0.079  -0.000  -0.000
 -0.000   0.000  -0.004  -0.000   0.000  -0.000   0.000  -0.010   0.000   0.000  -0.365   0.207  -0.000   0.029   0.000   0.000
 -0.033  -0.062  -0.000  -0.007   0.025   0.005  -0.033  -0.000   0.006   0.028   0.000  -0.000   0.235  -0.000  -0.000  -0.019
 -0.000   0.000  -0.007  -0.000   0.000  -0.000   0.000  -0.023  -0.000   0.000  -0.079   0.029  -0.000   0.240   0.000   0.000
  0.025   0.007   0.000  -0.062   0.033   0.028  -0.006   0.000  -0.033  -0.005  -0.000   0.000  -0.000   0.000   0.235   0.000
  0.001   0.004   0.000   0.000  -0.002  -0.000   0.004   0.000  -0.000  -0.005  -0.000   0.000  -0.019   0.000   0.000   0.002
  0.000  -0.000   0.002   0.000  -0.000   0.000  -0.000   0.003   0.000  -0.000   0.008  -0.006   0.000  -0.021  -0.000  -0.000
 -0.002  -0.000  -0.000   0.004  -0.001  -0.005   0.000  -0.000   0.004   0.000   0.000  -0.000  -0.000  -0.000  -0.019  -0.000
 total augmentation occupancy for first ion, spin component:           2
  0.027   0.020   0.000   0.039  -0.000  -0.019  -0.005  -0.000  -0.022   0.005  -0.000   0.000  -0.002   0.000   0.001  -0.000
  0.020   0.064  -0.000  -0.000   0.039  -0.007  -0.034   0.000   0.005  -0.016   0.000  -0.000   0.001  -0.000   0.001  -0.000
  0.000  -0.000   0.001   0.000  -0.000  -0.000   0.000  -0.010  -0.000   0.000  -0.000   0.001  -0.000   0.002  -0.000  -0.000
  0.039  -0.000   0.000   0.064  -0.020  -0.016  -0.005  -0.000  -0.034   0.007  -0.000  -0.000  -0.001   0.000   0.001  -0.000
 -0.000   0.039  -0.000  -0.020   0.027  -0.005  -0.022   0.000   0.005  -0.019   0.000  -0.000   0.001  -0.000   0.002   0.000
 -0.019  -0.007  -0.000  -0.016  -0.005   0.002  -0.001   0.000   0.006  -0.000   0.000   0.000   0.002  -0.000  -0.000  -0.000
 -0.005  -0.034   0.000  -0.005  -0.022  -0.001   0.003  -0.000  -0.000   0.006   0.000  -0.000   0.001   0.000  -0.001  -0.000
 -0.000   0.000  -0.010  -0.000   0.000   0.000  -0.000   0.001   0.000  -0.000   0.000   0.000   0.000  -0.001   0.000  -0.000
 -0.022   0.005  -0.000  -0.034   0.005   0.006  -0.000   0.000   0.003   0.001   0.000   0.000   0.001   0.000   0.001   0.000
  0.005  -0.016   0.000   0.007  -0.019  -0.000   0.006  -0.000   0.001   0.002  -0.000  -0.000  -0.000   0.000  -0.002   0.000
 -0.000  -0.000  -0.000  -0.000   0.000   0.000   0.000   0.000   0.000  -0.000   0.004   0.007   0.000  -0.000   0.000   0.000
  0.000  -0.000   0.001  -0.000  -0.000   0.000  -0.000   0.000   0.000  -0.000   0.007  -0.005   0.000  -0.001   0.000  -0.000
 -0.002   0.001  -0.000  -0.001   0.001   0.002   0.001   0.000   0.001  -0.000   0.000   0.000   0.001  -0.000  -0.000   0.000
  0.000  -0.000   0.002   0.000  -0.000  -0.000   0.000  -0.001   0.000   0.000  -0.000  -0.001  -0.000   0.002   0.000  -0.000
  0.001   0.001  -0.000   0.001   0.002  -0.000  -0.001   0.000   0.001  -0.002   0.000   0.000  -0.000   0.000   0.001  -0.000
 -0.000  -0.000  -0.000  -0.000   0.000  -0.000  -0.000  -0.000   0.000   0.000   0.000  -0.000   0.000  -0.000  -0.000  -0.000
  0.000   0.000   0.000   0.000  -0.000  -0.000   0.000  -0.000  -0.000   0.000  -0.000   0.000  -0.000   0.000   0.000   0.000
  0.000   0.000  -0.000  -0.000   0.000   0.000  -0.000   0.000  -0.000   0.000  -0.000   0.000   0.000   0.000   0.000   0.000


------------------------ aborting loop because EDIFF is reached ----------------------------------------





 total charge     

# of ion       s       p       d       tot
------------------------------------------
    1        0.410   0.543   7.397   8.350
    2        0.410   0.543   7.397   8.350
    3        1.251   0.940   0.082   2.273
    4        1.034   1.392   0.000   2.425
    5        1.372   2.316   0.000   3.688
    6        1.359   2.328   0.000   3.688
    7        1.369   2.320   0.000   3.688
    8        1.381   2.277   0.000   3.658
    9        1.380   2.295   0.000   3.674
   10        1.380   2.277   0.000   3.657
--------------------------------------------------
tot         11.345  17.231  14.876  43.452



 magnetization (x)

# of ion       s       p       d       tot
------------------------------------------
    1        0.000   0.002   0.213   0.215
    2        0.000   0.002   0.214   0.216
    3        0.048   0.018   0.004   0.070
    4       -0.000   0.007   0.000   0.006
    5        0.004   0.005   0.000   0.009
    6        0.003   0.001   0.000   0.004
    7        0.003   0.004   0.000   0.007
    8        0.006   0.073   0.000   0.079
    9        0.004   0.039   0.000   0.044
   10        0.005   0.067   0.000   0.072
--------------------------------------------------
tot          0.074   0.219   0.431   0.723

    CHARGE:  cpu time    2.0520: real time    2.0992
    FORLOC:  cpu time    0.0640: real time    0.0633
    FORNL :  cpu time    6.5320: real time    6.6902
    STRESS:  cpu time   19.9880: real time   20.0691
    FORCOR:  cpu time   51.6120: real time   51.7471
    FORHAR:  cpu time    0.3400: real time    0.3397
    MIXING:  cpu time    0.0440: real time    0.0437
    OFIELD:  cpu time    0.0000: real time    0.0001

  FORCE on cell =-STRESS in cart. coord.  units (eV):
  Direction    XX          YY          ZZ          XY          YZ          ZX
  --------------------------------------------------------------------------------------
  Alpha Z    35.74961    35.74961    35.74961
  Ewald   16265.82768 16265.82514-18469.19003    -0.00228    -0.00064    -0.00115
  Hartree 16823.87289 16823.87377-16398.28011    -0.00042     0.00006     0.00009
  E(xc)    -254.18767  -254.18771  -253.77981     0.00004     0.00001     0.00001
  Local  -34008.82659-34008.82624 33908.71544     0.00222     0.00039     0.00071
  n-local   445.11581   446.27605   451.96601     0.44522     0.49892     0.51596
  augment   -17.32704   -17.32694   -21.27593     0.00007    -0.00019     0.00020
  Kinetic   712.81223   705.39144   746.16856    -4.04837     0.62504     0.37580
  Fock        0.00000     0.00000     0.00000     0.00000     0.00000     0.00000
  -------------------------------------------------------------------------------------
  Total      -0.09398    -0.09398     0.07374     0.00000    -0.00000    -0.00000
  in kB      -0.20449    -0.20449     0.16047     0.00000    -0.00000    -0.00000
  external pressure =       -0.08 kB  Pullay stress =        0.00 kB


 VOLUME and BASIS-vectors are now :
 -----------------------------------------------------------------------------
  energy-cutoff  :      520.00
  volume of cell :      736.30
      direct lattice vectors                 reciprocal lattice vectors
     5.866687444 -0.000000250  0.000000000     0.170453938 -0.098411631 -0.000000000
     2.933343672  5.080700043 -0.000000000     0.000000008  0.196823266  0.000000000
     0.000000000 -0.000000000 24.702333311    -0.000000000  0.000000000  0.040482006

  length of vectors
     5.866687444  5.866687142 24.702333311     0.196823256  0.196823266  0.040482006


 FORCES acting on ions
    electron-ion (+dipol)            ewald-force                    non-local-force                 convergence-correction
 -----------------------------------------------------------------------------------------------
   -.118E-03 -.103E-03 -.668E+02   0.871E-03 0.516E-03 0.667E+02   -.137E-16 -.502E-18 0.155E+00   0.881E-07 -.482E-07 0.163E-02
   0.151E-03 0.775E-04 -.664E+02   -.796E-03 -.474E-03 0.663E+02   0.141E-16 -.521E-18 0.161E+00   -.771E-07 -.159E-06 0.143E-02
   -.372E-04 -.125E-04 0.410E+03   -.197E-03 -.112E-03 -.412E+03   0.210E-17 -.192E-16 0.163E+01   -.111E-08 -.159E-08 -.743E-02
   0.215E-04 0.265E-04 -.218E+03   0.191E-03 0.106E-03 0.210E+03   0.343E-16 -.806E-16 0.774E+01   0.330E-07 0.194E-07 0.641E-02
   -.150E+02 0.342E-01 -.599E+03   0.121E+02 -.348E-01 0.604E+03   0.286E+01 0.242E-02 -.505E+01   0.394E-03 -.217E-02 0.788E-02
   0.754E+01 0.130E+02 -.599E+03   -.610E+01 -.105E+02 0.604E+03   -.143E+01 -.248E+01 -.505E+01   -.208E-02 0.745E-03 0.788E-02
   0.748E+01 -.130E+02 -.599E+03   -.604E+01 0.105E+02 0.604E+03   -.143E+01 0.248E+01 -.505E+01   0.168E-02 0.143E-02 0.788E-02
   0.348E+02 -.428E-01 0.577E+03   -.323E+02 0.482E-01 -.581E+03   -.257E+01 0.713E-04 0.432E+01   0.161E-02 -.309E-02 -.604E-02
   -.175E+02 -.302E+02 0.577E+03   0.162E+02 0.279E+02 -.581E+03   0.128E+01 0.222E+01 0.432E+01   -.348E-02 0.147E-03 -.604E-02
   -.174E+02 0.302E+02 0.577E+03   0.161E+02 -.280E+02 -.581E+03   0.128E+01 -.222E+01 0.432E+01   0.187E-02 0.294E-02 -.604E-02
 -----------------------------------------------------------------------------------------------
   0.647E-04 0.299E-04 -.741E+01   0.000E+00 -.711E-14 0.000E+00   0.888E-15 0.444E-15 0.748E+01   0.333E-07 -.202E-06 0.755E-02


 POSITION                                       TOTAL-FORCE (eV/Angst)
 -----------------------------------------------------------------------------------
      2.93334      1.69356     12.80631         0.000000     -0.000000      0.044192
      5.86669      3.38713     12.80557         0.000000     -0.000000      0.050010
      0.00000     -0.00000     11.07198        -0.000000      0.000000     -0.179364
      0.00000     -0.00000     13.48995         0.000000     -0.000000      0.001925
      3.87955     -0.00008     14.17391        -0.023411      0.000424     -0.001040
      0.99350      1.72095     14.17391         0.012073      0.020063     -0.001040
      3.92698      3.35983     14.17391         0.011339     -0.020487     -0.001040
      2.42947      0.00006     11.44791         0.021654      0.001623      0.028786
      1.71866      2.97668     11.44791        -0.009421     -0.019564      0.028786
      4.65189      2.10395     11.44791        -0.012233      0.017941      0.028786
 -----------------------------------------------------------------------------------
    total drift:                                0.000065      0.000030      0.074772


--------------------------------------------------------------------------------------------------------



  FREE ENERGIE OF THE ION-ELECTRON SYSTEM (eV)
  ---------------------------------------------------
  free  energy   TOTEN  =       -47.12549077 eV

  energy  without entropy=      -47.12549077  energy(sigma->0) =      -47.12549077

 d Force =-0.1074713E-03[-0.415E-03, 0.200E-03]  d Energy = 0.1214305E-02-0.132E-02
 d Force =-0.1504372E+01[-0.151E+01,-0.150E+01]  d Ewald  =-0.1260419E+02 0.111E+02


--------------------------------------------------------------------------------------------------------


    POTLOK:  cpu time   51.6760: real time   51.8904


--------------------------------------------------------------------------------------------------------




--------------------------------------------------------------------------------------------------------


  
 reached required accuracy - stopping structural energy minimisation
     LOOP+:  cpu time  779.6960: real time  786.4731
    4ORBIT:  cpu time    0.0000: real time    0.0000



 total charge     

# of ion       s       p       d       tot
------------------------------------------
    1        0.410   0.543   7.397   8.350
    2        0.410   0.543   7.397   8.350
    3        1.251   0.940   0.082   2.273
    4        1.034   1.392   0.000   2.425
    5        1.372   2.316   0.000   3.688
    6        1.359   2.328   0.000   3.688
    7        1.369   2.320   0.000   3.688
    8        1.381   2.277   0.000   3.658
    9        1.380   2.295   0.000   3.674
   10        1.380   2.277   0.000   3.657
--------------------------------------------------
tot         11.345  17.231  14.876  43.452



 magnetization (x)

# of ion       s       p       d       tot
------------------------------------------
    1        0.000   0.002   0.213   0.215
    2        0.000   0.002   0.214   0.216
    3        0.048   0.018   0.004   0.070
    4       -0.000   0.007   0.000   0.006
    5        0.004   0.005   0.000   0.009
    6        0.003   0.001   0.000   0.004
    7        0.003   0.004   0.000   0.007
    8        0.006   0.073   0.000   0.079
    9        0.004   0.039   0.000   0.044
   10        0.005   0.067   0.000   0.072
--------------------------------------------------
tot          0.074   0.219   0.431   0.723

 BZINTS: Fermi energy: -2.839136; 63.000000 electrons
         Band energy:-521.421570;  BLOECHL correction: -0.008058

 total amount of memory used by VASP MPI-rank0   132491. kBytes
=======================================================================

   base      :      30000. kBytes
   nonlr-proj:      10006. kBytes
   fftplans  :      11247. kBytes
   grid      :      68332. kBytes
   one-center:        311. kBytes
   wavefun   :      12595. kBytes

  
  
 General timing and accounting informations for this job:
 ========================================================
  
                  Total CPU time used (sec):    62123.473
                            User time (sec):    60690.816
                          System time (sec):     1432.656
                         Elapsed time (sec):    62619.942
  
                   Maximum memory used (kb):      411000.
                   Average memory used (kb):           0.
  
                          Minor page faults:     58075592
                          Major page faults:            8
                 Voluntary context switches:         1282
