 vasp.5.4.4.18Apr17-6-g9f103f2a35 (build May  1 2020 15:48:39) complex           
 executed on             LinuxGNU date 2020.06.28  04:52:57
 running on   16 total cores
 distrk:  each k-point on   16 cores,    1 groups
 distr:  one band on NCORES_PER_BAND=   1 cores,   16 groups


--------------------------------------------------------------------------------------------------------


 INCAR:
 POTCAR:   PAW_PBE Co 06Sep2000                   
 POTCAR:   PAW_PBE Si 05Jan2001                   
 POTCAR:    PAW_PBE P 17Jan2003                   
 POTCAR:   PAW_PBE Te 08Apr2002                   

 ----------------------------------------------------------------------------- 
|                                                                             |
|           W    W    AA    RRRRR   N    N  II  N    N   GGGG   !!!           |
|           W    W   A  A   R    R  NN   N  II  NN   N  G    G  !!!           |
|           W    W  A    A  R    R  N N  N  II  N N  N  G       !!!           |
|           W WW W  AAAAAA  RRRRR   N  N N  II  N  N N  G  GGG   !            |
|           WW  WW  A    A  R   R   N   NN  II  N   NN  G    G                |
|           W    W  A    A  R    R  N    N  II  N    N   GGGG   !!!           |
|                                                                             |
|      For optimal performance we recommend to set                            |
|        NCORE= 4 - approx SQRT( number of cores)                             |
|      NCORE specifies how many cores store one orbital (NPAR=cpu/NCORE).     |
|      This setting can  greatly improve the performance of VASP for DFT.     |
|      The default,   NCORE=1            might be grossly inefficient         |
|      on modern multi-core architectures or massively parallel machines.     |
|      Do your own testing !!!!                                               |
|      Unfortunately you need to use the default for GW and RPA calculations. |
|      (for HF NCORE is supported but not extensively tested yet)             |
|                                                                             |
 ----------------------------------------------------------------------------- 


 ----------------------------------------------------------------------------- 
|                                                                             |
|  ADVICE TO THIS USER RUNNING 'VASP/VAMP'   (HEAR YOUR MASTER'S VOICE ...):  |
|                                                                             |
|      You have switched on vdW-DFT.                                          |
|      This routine was written and supplied by Jiri Klimes.                  |
|      We recommed that you carefully read and cite the following             |
|      publication                                                            |
|      J. Klimes, D.R. Bowler, A. Michelides                                  |
|        J. Phys.: Cond Matt. 22 022201 (2010)                                |
|      J. Klimes, D.R. Bowler, A. Michelides                                  |
|        Phys. Rev. B. 83, 195131 (2011)                                      |
|      and references therein.                                                |
|                                                                             |
 ----------------------------------------------------------------------------- 

 POTCAR:   PAW_PBE Co 06Sep2000                   
   VRHFIN =Co: d8 s1                                                            
   LEXCH  = PE                                                                  
   EATOM  =   813.5563 eV,   59.7947 Ry                                         
                                                                                
   TITEL  = PAW_PBE Co 06Sep2000                                                
   LULTRA =        F    use ultrasoft PP ?                                      
   IUNSCR =        1    unscreen: 0-lin 1-nonlin 2-no                           
   RPACOR =    2.000    partial core radius                                     
   POMASS =   58.933; ZVAL   =    9.000    mass and valenz                      
   RCORE  =    2.300    outmost cutoff radius                                   
   RWIGS  =    2.460; RWIGS  =    1.302    wigner-seitz radius (au A)           
   ENMAX  =  267.969; ENMIN  =  200.977 eV                                      
   RCLOC  =    1.697    cutoff for local pot                                    
   LCOR   =        T    correct aug charges                                     
   LPAW   =        T    paw PP                                                  
   EAUG   =  477.818                                                            
   DEXC   =    -.016                                                            
   RMAX   =    2.817    core radius for proj-oper                               
   RAUG   =    1.300    factor for augmentation sphere                          
   RDEP   =    2.393    radius for radial grids                                 
   QCUT   =   -4.438; QGAM   =    8.876    optimization parameters              
                                                                                
   Description                                                                  
     l     E      TYP  RCUT    TYP  RCUT                                        
     2   .000     23  2.300                                                     
     2   .000     23  2.300                                                     
     0   .000     23  2.300                                                     
     0   .000     23  2.300                                                     
     1  -.200     23  2.300                                                     
     1   .000     23  2.300                                                     
     3   .000      7   .000                                                     
  local pseudopotential read in
  partial core-charges read in
  atomic valenz-charges read in
  non local Contribution for L=           2  read in
    real space projection operators read in
  non local Contribution for L=           2  read in
    real space projection operators read in
  non local Contribution for L=           0  read in
    real space projection operators read in
  non local Contribution for L=           0  read in
    real space projection operators read in
  non local Contribution for L=           1  read in
    real space projection operators read in
  non local Contribution for L=           1  read in
    real space projection operators read in
    PAW grid and wavefunctions read in

   number of l-projection  operators is LMAX  =           6
   number of lm-projection operators is LMMAX =          18

 POTCAR:   PAW_PBE Si 05Jan2001                   
   VRHFIN =Si: s2p2                                                             
   LEXCH  = PE                                                                  
   EATOM  =   103.0669 eV,    7.5752 Ry                                         
                                                                                
   TITEL  = PAW_PBE Si 05Jan2001                                                
   LULTRA =        F    use ultrasoft PP ?                                      
   IUNSCR =        1    unscreen: 0-lin 1-nonlin 2-no                           
   RPACOR =    1.500    partial core radius                                     
   POMASS =   28.085; ZVAL   =    4.000    mass and valenz                      
   RCORE  =    1.900    outmost cutoff radius                                   
   RWIGS  =    2.480; RWIGS  =    1.312    wigner-seitz radius (au A)           
   ENMAX  =  245.345; ENMIN  =  184.009 eV                                      
   ICORE  =        2    local potential                                         
   LCOR   =        T    correct aug charges                                     
   LPAW   =        T    paw PP                                                  
   EAUG   =  322.069                                                            
   DEXC   =    -.007                                                            
   RMAX   =    2.944    core radius for proj-oper                               
   RAUG   =    1.300    factor for augmentation sphere                          
   RDEP   =    1.993    radius for radial grids                                 
   QCUT   =   -4.246; QGAM   =    8.493    optimization parameters              
                                                                                
   Description                                                                  
     l     E      TYP  RCUT    TYP  RCUT                                        
     0   .000     23  1.900                                                     
     0   .000     23  1.900                                                     
     1   .000     23  1.900                                                     
     1   .000     23  1.900                                                     
     2   .000      7  1.900                                                     
  local pseudopotential read in
  partial core-charges read in
  atomic valenz-charges read in
  non local Contribution for L=           0  read in
    real space projection operators read in
  non local Contribution for L=           0  read in
    real space projection operators read in
  non local Contribution for L=           1  read in
    real space projection operators read in
  non local Contribution for L=           1  read in
    real space projection operators read in
    PAW grid and wavefunctions read in

   number of l-projection  operators is LMAX  =           4
   number of lm-projection operators is LMMAX =           8

 POTCAR:    PAW_PBE P 17Jan2003                   
   VRHFIN =P : s2p3                                                             
   LEXCH  = PE                                                                  
   EATOM  =   176.0430 eV,   12.9388 Ry                                         
                                                                                
   TITEL  = PAW_PBE P 17Jan2003                                                 
   LULTRA =        F    use ultrasoft PP ?                                      
   IUNSCR =        1    unscreen: 0-lin 1-nonlin 2-no                           
   RPACOR =    1.500    partial core radius                                     
   POMASS =   30.974; ZVAL   =    5.000    mass and valenz                      
   RCORE  =    1.900    outmost cutoff radius                                   
   RWIGS  =    2.330; RWIGS  =    1.233    wigner-seitz radius (au A)           
   ENMAX  =  270.000; ENMIN  =  191.280 eV                                      
   ICORE  =        2    local potential                                         
   LCOR   =        T    correct aug charges                                     
   LPAW   =        T    paw PP                                                  
   EAUG   =  342.924                                                            
   DEXC   =    -.002                                                            
   RMAX   =    2.887    core radius for proj-oper                               
   RAUG   =    1.300    factor for augmentation sphere                          
   RDEP   =    1.931    radius for radial grids                                 
   QCUT   =   -4.330; QGAM   =    8.659    optimization parameters              
                                                                                
   Description                                                                  
     l     E      TYP  RCUT    TYP  RCUT                                        
     0   .000     23  1.900                                                     
     0   .000     23  1.900                                                     
     1   .000     23  1.900                                                     
     1   .000     23  1.900                                                     
     2   .000     23  1.900                                                     
  local pseudopotential read in
  partial core-charges read in
  atomic valenz-charges read in
  non local Contribution for L=           0  read in
    real space projection operators read in
  non local Contribution for L=           0  read in
    real space projection operators read in
  non local Contribution for L=           1  read in
    real space projection operators read in
  non local Contribution for L=           1  read in
    real space projection operators read in
    PAW grid and wavefunctions read in

   number of l-projection  operators is LMAX  =           4
   number of lm-projection operators is LMMAX =           8

 POTCAR:   PAW_PBE Te 08Apr2002                   
   VRHFIN =Te: s2p4                                                             
   LEXCH  = PE                                                                  
   EATOM  =   223.2721 eV,   16.4100 Ry                                         
                                                                                
   TITEL  = PAW_PBE Te 08Apr2002                                                
   LULTRA =        F    use ultrasoft PP ?                                      
   IUNSCR =        1    unscreen: 0-lin 1-nonlin 2-no                           
   RPACOR =    2.200    partial core radius                                     
   POMASS =  127.600; ZVAL   =    6.000    mass and valenz                      
   RCORE  =    2.300    outmost cutoff radius                                   
   RWIGS  =    2.900; RWIGS  =    1.535    wigner-seitz radius (au A)           
   ENMAX  =  174.982; ENMIN  =  131.236 eV                                      
   ICORE  =        3    local potential                                         
   LCOR   =        T    correct aug charges                                     
   LPAW   =        T    paw PP                                                  
   EAUG   =  368.792                                                            
   DEXC   =    -.169                                                            
   RMAX   =    3.486    core radius for proj-oper                               
   RAUG   =    1.300    factor for augmentation sphere                          
   RDEP   =    2.397    radius for radial grids                                 
   QCUT   =   -3.586; QGAM   =    7.172    optimization parameters              
                                                                                
   Description                                                                  
     l     E      TYP  RCUT    TYP  RCUT                                        
     0   .000     23  2.300                                                     
     0   .000     23  2.300                                                     
     1   .000     23  2.300                                                     
     1   .000     23  2.300                                                     
     2   .000     23  2.300                                                     
     3  -.100     23  2.300                                                     
  local pseudopotential read in
  partial core-charges read in
  atomic valenz-charges read in
  non local Contribution for L=           0  read in
    real space projection operators read in
  non local Contribution for L=           0  read in
    real space projection operators read in
  non local Contribution for L=           1  read in
    real space projection operators read in
  non local Contribution for L=           1  read in
    real space projection operators read in
  non local Contribution for L=           2  read in
    real space projection operators read in
    PAW grid and wavefunctions read in

   number of l-projection  operators is LMAX  =           5
   number of lm-projection operators is LMMAX =          13

 Optimization of the real space projectors (new method)

 maximal supplied QI-value         = 16.25
 optimisation between [QCUT,QGAM] = [ 11.54, 23.24] = [ 37.28,151.24] Ry 
 Optimized for a Real-space Cutoff    1.53 Angstroem

   l    n(q)    QCUT    max X(q) W(low)/X(q) W(high)/X(q)  e(spline) 
   2     10    11.539     4.599    0.83E-05    0.15E-04    0.45E-07
   2     10    11.539    18.158    0.10E-03    0.14E-03    0.24E-06
   0     11    11.539    15.740    0.19E-04    0.12E-05    0.17E-07
   0     11    11.539    47.662    0.48E-04    0.15E-04    0.31E-06
   1     10    11.539     5.777    0.11E-04    0.46E-05    0.25E-07
   1     10    11.539     8.007    0.46E-04    0.29E-04    0.11E-06
 Optimization of the real space projectors (new method)

 maximal supplied QI-value         = 19.84
 optimisation between [QCUT,QGAM] = [ 11.51, 23.22] = [ 37.09,150.92] Ry 
 Optimized for a Real-space Cutoff    1.21 Angstroem

   l    n(q)    QCUT    max X(q) W(low)/X(q) W(high)/X(q)  e(spline) 
   0      8    11.508     8.708    0.18E-04    0.44E-05    0.47E-08
   0      8    11.508   106.241    0.70E-04    0.15E-03    0.51E-07
   1      8    11.508     5.901    0.63E-05    0.23E-04    0.21E-07
   1      8    11.508    73.241    0.15E-03    0.36E-04    0.79E-07
 Optimization of the real space projectors (new method)

 maximal supplied QI-value         = 19.84
 optimisation between [QCUT,QGAM] = [ 11.51, 23.22] = [ 37.09,150.92] Ry 
 Optimized for a Real-space Cutoff    1.21 Angstroem

   l    n(q)    QCUT    max X(q) W(low)/X(q) W(high)/X(q)  e(spline) 
   0      8    11.508     6.651    0.19E-04    0.31E-05    0.49E-08
   0      8    11.508    90.285    0.95E-04    0.17E-03    0.51E-07
   1      8    11.508     4.328    0.14E-04    0.32E-04    0.22E-07
   1      8    11.508    54.583    0.16E-03    0.71E-04    0.89E-07
 Optimization of the real space projectors (new method)

 maximal supplied QI-value         = 16.25
 optimisation between [QCUT,QGAM] = [ 11.54, 23.24] = [ 37.28,151.24] Ry 
 Optimized for a Real-space Cutoff    1.36 Angstroem

   l    n(q)    QCUT    max X(q) W(low)/X(q) W(high)/X(q)  e(spline) 
   0      9    11.539     7.090    0.13E-04    0.25E-05    0.51E-08
   0      9    11.539   101.654    0.53E-04    0.69E-04    0.12E-06
   1      9    11.539     5.276    0.20E-04    0.98E-05    0.24E-07
   1      9    11.539    81.891    0.24E-03    0.13E-04    0.15E-06
   2      9    11.539     5.599    0.30E-04    0.97E-04    0.54E-07

 ----------------------------------------------------------------------------- 
|                                                                             |
|  ADVICE TO THIS USER RUNNING 'VASP/VAMP'   (HEAR YOUR MASTER'S VOICE ...):  |
|                                                                             |
|      You enforced a specific xc-type in the INCAR file,                     |
|      a different type was found on the POTCAR file                          |
|          I HOPE YOU KNOW, WHAT YOU ARE  DOING                               |
|                                                                             |
 ----------------------------------------------------------------------------- 

 PAW_PBE Co 06Sep2000                   :
 energy of atom  1       EATOM= -813.5563
 kinetic energy error for atom=    0.0028 (will be added to EATOM!!)
 PAW_PBE Si 05Jan2001                   :
 energy of atom  2       EATOM= -103.0669
 kinetic energy error for atom=    0.0005 (will be added to EATOM!!)
  PAW_PBE P 17Jan2003                   :
 energy of atom  3       EATOM= -176.0430
 kinetic energy error for atom=    0.0011 (will be added to EATOM!!)
 PAW_PBE Te 08Apr2002                   :
 energy of atom  4       EATOM= -223.2721
 kinetic energy error for atom=    0.0007 (will be added to EATOM!!)


 POSCAR: Co2 Si P Te6                            
  positions in direct lattice
  velocities in cartesian coordinates
  No initial velocities read in
 exchange correlation table for  LEXCH =       42
   RHO(1)=    0.500       N(1)  =     2000
   RHO(2)=  100.500       N(2)  =     4000



--------------------------------------------------------------------------------------------------------


 ion  position               nearest neighbor table
   1  0.333  0.333  0.500-   6 2.78   5 2.78   7 2.78   8 2.78  10 2.78   9 2.78
   2  0.667  0.667  0.500-   9 2.78   8 2.78  10 2.78   5 2.78   7 2.78   6 2.78
   3  0.000  0.000  0.448-   4 2.43   8 2.63  10 2.63   9 2.63
   4  0.000  0.000  0.552-   3 2.43   5 2.63   7 2.63   6 2.63
   5  0.626  0.000  0.574-   4 2.63   1 2.78   2 2.78
   6  0.000  0.373  0.574-   4 2.63   1 2.78   2 2.78
   7  0.373  0.626  0.574-   4 2.63   1 2.78   2 2.78
   8  0.374  1.000  0.426-   3 2.63   2 2.78   1 2.78
   9  1.000  0.627  0.426-   3 2.63   2 2.78   1 2.78
  10  0.627  0.374  0.426-   3 2.63   2 2.78   1 2.78

  LATTYP: Found a hexagonal cell.
 ALAT       =     6.9077769333
 C/A-ratio  =     3.3939410937
  
  Lattice vectors:
  
 A1 = (   3.4538890000,  -5.9823100000,   0.0000000000)
 A2 = (  -6.9077770000,   0.0000000000,   0.0000000000)
 A3 = (   0.0000000000,   0.0000000000, -23.4445880000)


Analysis of symmetry for initial positions (statically):
=====================================================================
 Subroutine PRICEL returns:
 Original cell was already a primitive cell.
 

 Routine SETGRP: Setting up the symmetry group for a 
 hexagonal supercell.


 Subroutine GETGRP returns: Found  3 space group operations
 (whereof  3 operations were pure point group operations)
 out of a pool of 24 trial point group operations.


The static configuration has the point symmetry C_3 .


Analysis of symmetry for dynamics (positions and initial velocities):
=====================================================================
 Subroutine PRICEL returns:
 Original cell was already a primitive cell.
 

 Routine SETGRP: Setting up the symmetry group for a 
 hexagonal supercell.


 Subroutine GETGRP returns: Found  3 space group operations
 (whereof  3 operations were pure point group operations)
 out of a pool of 24 trial point group operations.


The dynamic configuration has the point symmetry C_3 .


Analysis of constrained symmetry for selective dynamics:
=====================================================================
 Subroutine PRICEL returns:
 Original cell was already a primitive cell.
 

 Routine SETGRP: Setting up the symmetry group for a 
 hexagonal supercell.


 Subroutine GETGRP returns: Found  3 space group operations
 (whereof  3 operations were pure point group operations)
 out of a pool of 24 trial point group operations.


The constrained configuration has the point symmetry C_3 .


Analysis of structural, dynamic, and magnetic symmetry:
=====================================================================
 Subroutine PRICEL returns:
 Original cell was already a primitive cell.
 

 Routine SETGRP: Setting up the symmetry group for a 
 hexagonal supercell.


 Subroutine GETGRP returns: Found  3 space group operations
 (whereof  3 operations were pure point group operations)
 out of a pool of 24 trial point group operations.


The magnetic configuration has the point symmetry C_3 .


 Subroutine INISYM returns: Found  3 space group operations
 (whereof  3 operations are pure point group operations),
 and found     1 'primitive' translations



 KPOINTS: Kpoints from vasprun.xml                

Automatic generation of k-mesh.
Space group operators:
 irot       det(A)        alpha          n_x          n_y          n_z        tau_x        tau_y        tau_z
    1     1.000000     0.000000     1.000000     0.000000     0.000000     0.000000     0.000000     0.000000
    2     1.000000   120.000000     0.000000     0.000000     1.000000     0.000000     0.000000     0.000000
    3     1.000000   120.000000     0.000000     0.000000    -1.000000     0.000000     0.000000     0.000000
 
 Subroutine IBZKPT returns following result:
 ===========================================
 
 Found      5 irreducible k-points:
 
 Following reciprocal coordinates:
            Coordinates               Weight
  0.000000  0.000000  0.000000      1.000000
  0.200000  0.000000  0.000000      6.000000
  0.400000  0.000000  0.000000      6.000000
  0.400000  0.200000  0.000000      6.000000
 -0.400000  0.200000  0.000000      6.000000
 
 Following cartesian coordinates:
            Coordinates               Weight
  0.000000  0.000000  0.000000      1.000000
  0.028953 -0.016716  0.000000      6.000000
  0.057906 -0.033432  0.000000      6.000000
  0.057906  0.000000  0.000000      6.000000
 -0.057906  0.066864  0.000000      6.000000
 
 TETIRR: Found     15 inequivalent tetrahedra from      150


--------------------------------------------------------------------------------------------------------




 Dimension of arrays:
   k-points           NKPTS =      5   k-points in BZ     NKDIM =      5   number of bands    NBANDS=     48
   number of dos      NEDOS =    301   number of ions     NIONS =     10
   non local maximal  LDIM  =      6   non local SUM 2l+1 LMDIM =     18
   total plane-waves  NPLWV = 524880
   max r-space proj   IRMAX =   8238   max aug-charges    IRDMAX=  31706
   dimension x,y,z NGX =    54 NGY =   54 NGZ =  180
   dimension x,y,z NGXF=   108 NGYF=  108 NGZF=  360
   support grid    NGXF=   108 NGYF=  108 NGZF=  360
   ions per type =               2   1   1   6
   NGX,Y,Z   is equivalent  to a cutoff of  13.00, 13.00, 12.76 a.u.
   NGXF,Y,Z  is equivalent  to a cutoff of  25.99, 25.99, 25.53 a.u.

 SYSTEM =  unknown system                          
 POSCAR =  Co2 Si P Te6                            

 Startparameter for this run:
   NWRITE =      2    write-flag & timer
   PREC   = accura    normal or accurate (medium, high low for compatibility)
   ISTART =      0    job   : 0-new  1-cont  2-samecut
   ICHARG =      2    charge: 1-file 2-atom 10-const
   ISPIN  =      2    spin polarized calculation?
   LNONCOLLINEAR =      F non collinear calculations
   LSORBIT =      F    spin-orbit coupling
   INIWAV =      1    electr: 0-lowe 1-rand  2-diag
   LASPH  =      F    aspherical Exc in radial PAW
   METAGGA=      F    non-selfconsistent MetaGGA calc.

 Electronic Relaxation 1
   ENCUT  =  520.0 eV  38.22 Ry    6.18 a.u.  12.84 12.84 43.59*2*pi/ulx,y,z
   ENINI  =  520.0     initial cutoff
   ENAUG  =  477.8 eV  augmentation charge cutoff
   NELM   =    400;   NELMIN=  2; NELMDL=  0     # of ELM steps 
   EDIFF  = 0.1E-03   stopping-criterion for ELM
   LREAL  =      T    real-space projection
   NLSPLINE    = F    spline interpolate recip. space projectors
   LCOMPAT=      F    compatible to vasp.4.4
   GGA_COMPAT  = T    GGA compatible to vasp.4.4-vasp.4.6
   LMAXPAW     = -100 max onsite density
   LMAXMIX     =    2 max onsite mixed and CHGCAR
   VOSKOWN=      0    Vosko Wilk Nusair interpolation
   ROPT   =   -0.00025  -0.00025  -0.00025  -0.00025
 Ionic relaxation
   EDIFFG = 0.1E-02   stopping-criterion for IOM
   NSW    =     99    number of steps for IOM
   NBLOCK =      1;   KBLOCK =     99    inner block; outer block 
   IBRION =      2    ionic relax: 0-MD 1-quasi-New 2-CG
   NFREE  =      1    steps in history (QN), initial steepest desc. (CG)
   ISIF   =      3    stress and relaxation
   IWAVPR =     11    prediction:  0-non 1-charg 2-wave 3-comb
   ISYM   =      2    0-nonsym 1-usesym 2-fastsym
   LCORR  =      T    Harris-Foulkes like correction to forces

   POTIM  = 0.5000    time-step for ionic-motion
   TEIN   =    0.0    initial temperature
   TEBEG  =    0.0;   TEEND  =   0.0 temperature during run
   SMASS  =  -3.00    Nose mass-parameter (am)
   estimated Nose-frequenzy (Omega)   =  0.10E-29 period in steps =****** mass=  -0.109E-26a.u.
   SCALEE = 1.0000    scale energy and forces
   NPACO  =    256;   APACO  = 16.0  distance and # of slots for P.C.
   PSTRESS=    0.0 pullay stress

  Mass of Ions in am
   POMASS =  58.93 28.09 30.97127.60
  Ionic Valenz
   ZVAL   =   9.00  4.00  5.00  6.00
  Atomic Wigner-Seitz radii
   RWIGS  =  -1.00 -1.00 -1.00 -1.00
  virtual crystal weights 
   VCA    =   1.00  1.00  1.00  1.00
   NELECT =      63.0000    total number of electrons
   NUPDOWN=      -1.0000    fix difference up-down

 DOS related values:
   EMIN   =  10.00;   EMAX   =-10.00  energy-range for DOS
   EFERMI =   0.00
   ISMEAR =    -5;   SIGMA  =   0.05  broadening in eV -4-tet -1-fermi 0-gaus

 Electronic relaxation 2 (details)
   IALGO  =     38    algorithm
   LDIAG  =      T    sub-space diagonalisation (order eigenvalues)
   LSUBROT=      F    optimize rotation matrix (better conditioning)
   TURBO    =      0    0=normal 1=particle mesh
   IRESTART =      0    0=no restart 2=restart with 2 vectors
   NREBOOT  =      0    no. of reboots
   NMIN     =      0    reboot dimension
   EREF     =   0.00    reference energy to select bands
   IMIX   =      4    mixing-type and parameters
     AMIX     =   0.40;   BMIX     =  1.00
     AMIX_MAG =   1.60;   BMIX_MAG =  1.00
     AMIN     =   0.01
     WC   =   100.;   INIMIX=   1;  MIXPRE=   1;  MAXMIX= -45

 Intra band minimization:
   WEIMIN = 0.0010     energy-eigenvalue tresh-hold
   EBREAK =  0.52E-06  absolut break condition
   DEPER  =   0.30     relativ break condition  

   TIME   =   0.40     timestep for ELM

  volume/ion in A,a.u.               =      96.88       653.80
  Fermi-wavevector in a.u.,A,eV,Ry     =   0.658322  1.244048  5.896601  0.433388
  Thomas-Fermi vector in A             =   1.730108

 Write flags
   LWAVE        =      F    write WAVECAR
   LDOWNSAMPLE  =      F    k-point downsampling of WAVECAR
   LCHARG       =      T    write CHGCAR
   LVTOT        =      F    write LOCPOT, total local potential
   LVHAR        =      F    write LOCPOT, Hartree potential only
   LELF         =      F    write electronic localiz. function (ELF)
   LORBIT       =     11    0 simple, 1 ext, 2 COOP (PROOUT), +10 PAW based schemes


 Dipole corrections
   LMONO  =      F    monopole corrections only (constant potential shift)
   LDIPOL =      F    correct potential (dipole corrections)
   IDIPOL =      0    1-x, 2-y, 3-z, 4-all directions 
   EPSILON=  1.0000000 bulk dielectric constant

 Exchange correlation treatment:
   GGA     =    BO    GGA type
   LEXCH   =    42    internal setting for exchange type
   VOSKOWN=      0    Vosko Wilk Nusair interpolation
   LHFCALC =     F    Hartree Fock is set to
   LHFONE  =     F    Hartree Fock one center treatment
   AEXX    =    0.0000 exact exchange contribution

 vdW DFT:
   LUSE_VDW   =     T    switch on vdW DFT
   Zab_VDW    =-.8491    correlation parameter
   PARAM1     =0.1833
   PARAM2     =0.2200
   PARAM3     =0.0000
   -- rVV10 --
   BPARAM     = 6.3000
   CPARAM     = 0.0093

 Linear response parameters
   LEPSILON=     F    determine dielectric tensor
   LRPA    =     F    only Hartree local field effects (RPA)
   LNABLA  =     F    use nabla operator in PAW spheres
   LVEL    =     F    velocity operator in full k-point grid
   LINTERFAST=   F  fast interpolation
   KINTER  =     0    interpolate to denser k-point grid
   CSHIFT  =0.1000    complex shift for real part using Kramers Kronig
   OMEGAMAX=  -1.0    maximum frequency
   DEG_THRESHOLD= 0.2000000E-02 threshold for treating states as degnerate
   RTIME   =   -0.100 relaxation time in fs
  (WPLASMAI=    0.000 imaginary part of plasma frequency in eV, 0.658/RTIME)
   DFIELD  = 0.0000000 0.0000000 0.0000000 field for delta impulse in time

 Orbital magnetization related:
   ORBITALMAG=     F  switch on orbital magnetization
   LCHIMAG   =     F  perturbation theory with respect to B field
   DQ        =  0.001000  dq finite difference perturbation B field
   LLRAUG    =     F  two centre corrections for induced B field



--------------------------------------------------------------------------------------------------------


 conjugate gradient relaxation of ions
   using selective dynamics as specified on POSCAR
 charge density and potential will be updated during run
 spin polarized calculation
 Variant of blocked Davidson
 Davidson routine will perform the subspace rotation
 perform sub-space diagonalisation
    after iterative eigenvector-optimisation
 modified Broyden-mixing scheme, WC =      100.0
 initial mixing is a Kerker type mixing with AMIX =  0.4000 and BMIX =      1.0000
 Hartree-type preconditioning will be used
 using additional bands           16
 real space projection scheme for non local part
 use partial core corrections
 calculate Harris-corrections to forces   (improved forces if not selfconsistent)
 use gradient corrections 
 use of overlap-Matrix (Vanderbilt PP)
 Fermi weights with tetrahedron method with Bloechl corrections


--------------------------------------------------------------------------------------------------------


  energy-cutoff  :      520.00
  volume of cell :      968.84
      direct lattice vectors                 reciprocal lattice vectors
     6.907777000 -0.000000000  0.000000000     0.144764372 -0.083579742  0.000000000
     3.453888000  5.982310000  0.000000000     0.000000000  0.167159509 -0.000000000
     0.000000000  0.000000000 23.444588000    -0.000000000  0.000000000  0.042653767

  length of vectors
     6.907777000  6.907776433 23.444588000     0.167159495  0.167159509  0.042653767



 k-points in units of 2pi/SCALE and weight: Kpoints from vasprun.xml                
   0.00000000  0.00000000  0.00000000       0.040
   0.02895287 -0.01671595  0.00000000       0.240
   0.05790575 -0.03343190  0.00000000       0.240
   0.05790575  0.00000000  0.00000000       0.240
  -0.05790575  0.06686380  0.00000000       0.240

 k-points in reciprocal lattice and weights: Kpoints from vasprun.xml                
   0.00000000  0.00000000  0.00000000       0.040
   0.20000000  0.00000000  0.00000000       0.240
   0.40000000  0.00000000  0.00000000       0.240
   0.40000000  0.20000000  0.00000000       0.240
  -0.40000000  0.20000000  0.00000000       0.240

 position of ions in fractional coordinates (direct lattice) 
   0.33333300  0.33333300  0.49992500
   0.66666700  0.66666700  0.50007500
   0.00000000  0.00000000  0.44821600
   0.00000000  0.00000000  0.55178400
   0.62635700  0.00042000  0.57375200
   0.00042000  0.37322400  0.57375200
   0.37322400  0.62635700  0.57375200
   0.37364300  0.99958000  0.42624800
   0.99958000  0.62677600  0.42624800
   0.62677600  0.37364300  0.42624800

 position of ions in cartesian coordinates  (Angst):
   3.45388488  1.99410134 11.72053566
   6.90778012  3.98820866 11.72405234
   0.00000000  0.00000000 10.50823946
   0.00000000  0.00000000 12.93634854
   4.32818511  0.00251257 13.45137925
   1.29197516  2.23274167 13.45137925
   4.74151509  3.74706174 13.45137925
   6.03347989  5.97979743  9.99320875
   9.06968984  3.74956833  9.99320875
   5.62014991  2.23524826  9.99320875



--------------------------------------------------------------------------------------------------------


 k-point  1 :   0.0000 0.0000 0.0000  plane waves:   26073
 k-point  2 :   0.2000 0.0000 0.0000  plane waves:   26070
 k-point  3 :   0.4000 0.0000 0.0000  plane waves:   26086
 k-point  4 :   0.4000 0.2000 0.0000  plane waves:   26085
 k-point  5 :  -0.4000 0.2000 0.0000  plane waves:   26115

 maximum and minimum number of plane-waves per node :     26115    26070

 maximum number of plane-waves:     26115
 maximum index in each direction: 
   IXMAX=   13   IYMAX=   12   IZMAX=   43
   IXMIN=  -13   IYMIN=  -13   IZMIN=  -43


 serial   3D FFT for wavefunctions
 parallel 3D FFT for charge:
    minimum data exchange during FFTs selected (reduces bandwidth)


 total amount of memory used by VASP MPI-rank0   130781. kBytes
=======================================================================

   base      :      30000. kBytes
   nonlr-proj:       8281. kBytes
   fftplans  :      11247. kBytes
   grid      :      68332. kBytes
   one-center:        311. kBytes
   wavefun   :      12610. kBytes

     INWAV:  cpu time    0.0000: real time    0.0005
 Broyden mixing: mesh for mixing (old mesh)
   NGX = 25   NGY = 25   NGZ = 87
  (NGX  =108   NGY  =108   NGZ  =360)
  gives a total of  54375 points

 initial charge density was supplied:
 charge density of overlapping atoms calculated
 number of electron      63.0000000 magnetization       9.7800000
 keeping initial charge density in first step


--------------------------------------------------------------------------------------------------------


 Maximum index for non-local projection operator         7925
 Maximum index for augmentation-charges         2278 (set IRDMAX)


--------------------------------------------------------------------------------------------------------


 First call to EWALD:  gamma=   0.179
 Maximum number of real-space cells 4x 4x 1
 Maximum number of reciprocal cells 2x 2x 6

    FEWALD:  cpu time    0.0040: real time    0.0015


--------------------------------------- Iteration      1(   1)  ---------------------------------------


vdW kernel read from vdw_kernel.bindat
  0.0000  0.2424  0.5071  0.7962  1.1119  1.4567  1.8333  2.2446  2.6937  3.1842
  3.7199  4.3049  4.9438  5.6415  6.4036  7.2358  8.1446  9.1372 10.2212 11.4050
 12.6979 14.1099 15.6519 17.3360 19.1751 21.1837 23.3773 25.7729 28.3892 31.2465
 34.3669 37.7748 41.4965 45.5611 50.0000

    POTLOK:  cpu time   52.5600: real time   52.8339
    SETDIJ:  cpu time    0.0480: real time    0.0487
     EDDAV:  cpu time   22.8520: real time   23.1819
 BZINTS: Fermi energy:  5.624239; 63.000000 electrons
         Band energy:  20.785808;  BLOECHL correction: -0.026148
       DOS:  cpu time    0.0040: real time    0.0055
    --------------------------------------------
      LOOP:  cpu time   75.4640: real time   76.0701

 eigenvalue-minimisations  :   960
 total energy-change (2. order) : 0.3959434E+03  (-0.1890676E+04)
 number of electron      63.0000000 magnetization       9.7800000
 augmentation part       63.0000000 magnetization       9.7800000

 Free energy of the ion-electron system (eV)
  ---------------------------------------------------
  alpha Z        PSCENC =        16.48263918
  Ewald energy   TEWEN  =      7794.22900203
  -Hartree energ DENC   =    -10708.46771382
  -exchange      EXHF   =         0.00000000
  -V(xc)+E(xc)   XCENC  =      -150.18570668
  PAW double counting   =      1976.70093714    -1813.83053112
  entropy T*S    EENTRO =         0.00000000
  eigenvalues    EBANDS =        20.78580828
  atomic energy  EATOM  =      3260.22896581
  Solvation  Ediel_sol  =         0.00000000
  ---------------------------------------------------
  free energy    TOTEN  =       395.94340081 eV

  energy without entropy =      395.94340081  energy(sigma->0) =      395.94340081


--------------------------------------------------------------------------------------------------------




--------------------------------------- Iteration      1(   2)  ---------------------------------------


     EDDAV:  cpu time   29.8800: real time   30.9288
 BZINTS: Fermi energy: -0.978144; 63.000000 electrons
         Band energy:-365.682417;  BLOECHL correction: -0.031809
       DOS:  cpu time    0.0080: real time    0.0051
    --------------------------------------------
      LOOP:  cpu time   29.8880: real time   30.9338

 eigenvalue-minimisations  :  1328
 total energy-change (2. order) :-0.3864682E+03  (-0.3642588E+03)
 number of electron      63.0000000 magnetization       9.7800000
 augmentation part       63.0000000 magnetization       9.7800000

 Free energy of the ion-electron system (eV)
  ---------------------------------------------------
  alpha Z        PSCENC =        16.48263918
  Ewald energy   TEWEN  =      7794.22900203
  -Hartree energ DENC   =    -10708.46771382
  -exchange      EXHF   =         0.00000000
  -V(xc)+E(xc)   XCENC  =      -150.18570668
  PAW double counting   =      1976.70093714    -1813.83053112
  entropy T*S    EENTRO =         0.00000000
  eigenvalues    EBANDS =      -365.68241746
  atomic energy  EATOM  =      3260.22896581
  Solvation  Ediel_sol  =         0.00000000
  ---------------------------------------------------
  free energy    TOTEN  =         9.47517508 eV

  energy without entropy =        9.47517508  energy(sigma->0) =        9.47517508


--------------------------------------------------------------------------------------------------------




--------------------------------------- Iteration      1(   3)  ---------------------------------------


     EDDAV:  cpu time   29.7280: real time   29.9115
 BZINTS: Fermi energy: -1.499675; 63.000000 electrons
         Band energy:-411.028436;  BLOECHL correction: -0.007339
       DOS:  cpu time    0.0040: real time    0.0045
    --------------------------------------------
      LOOP:  cpu time   29.7320: real time   29.9160

 eigenvalue-minimisations  :  1280
 total energy-change (2. order) :-0.4534602E+02  (-0.4425199E+02)
 number of electron      63.0000000 magnetization       9.7800000
 augmentation part       63.0000000 magnetization       9.7800000

 Free energy of the ion-electron system (eV)
  ---------------------------------------------------
  alpha Z        PSCENC =        16.48263918
  Ewald energy   TEWEN  =      7794.22900203
  -Hartree energ DENC   =    -10708.46771382
  -exchange      EXHF   =         0.00000000
  -V(xc)+E(xc)   XCENC  =      -150.18570668
  PAW double counting   =      1976.70093714    -1813.83053112
  entropy T*S    EENTRO =         0.00000000
  eigenvalues    EBANDS =      -411.02843552
  atomic energy  EATOM  =      3260.22896581
  Solvation  Ediel_sol  =         0.00000000
  ---------------------------------------------------
  free energy    TOTEN  =       -35.87084298 eV

  energy without entropy =      -35.87084298  energy(sigma->0) =      -35.87084298


--------------------------------------------------------------------------------------------------------




--------------------------------------- Iteration      1(   4)  ---------------------------------------


     EDDAV:  cpu time   29.2000: real time   30.0824
 BZINTS: Fermi energy: -1.537107; 63.000000 electrons
         Band energy:-412.881404;  BLOECHL correction: -0.007829
       DOS:  cpu time    0.0040: real time    0.0048
    --------------------------------------------
      LOOP:  cpu time   29.2040: real time   30.0872

 eigenvalue-minimisations  :  1296
 total energy-change (2. order) :-0.1852969E+01  (-0.1847403E+01)
 number of electron      63.0000000 magnetization       9.7800000
 augmentation part       63.0000000 magnetization       9.7800000

 Free energy of the ion-electron system (eV)
  ---------------------------------------------------
  alpha Z        PSCENC =        16.48263918
  Ewald energy   TEWEN  =      7794.22900203
  -Hartree energ DENC   =    -10708.46771382
  -exchange      EXHF   =         0.00000000
  -V(xc)+E(xc)   XCENC  =      -150.18570668
  PAW double counting   =      1976.70093714    -1813.83053112
  entropy T*S    EENTRO =         0.00000000
  eigenvalues    EBANDS =      -412.88140425
  atomic energy  EATOM  =      3260.22896581
  Solvation  Ediel_sol  =         0.00000000
  ---------------------------------------------------
  free energy    TOTEN  =       -37.72381171 eV

  energy without entropy =      -37.72381171  energy(sigma->0) =      -37.72381171


--------------------------------------------------------------------------------------------------------




--------------------------------------- Iteration      1(   5)  ---------------------------------------


     EDDAV:  cpu time   32.9400: real time   34.1925
 BZINTS: Fermi energy: -1.539103; 63.000000 electrons
         Band energy:-412.917981;  BLOECHL correction: -0.007942
       DOS:  cpu time    0.0040: real time    0.0055
    CHARGE:  cpu time    2.1120: real time    2.1189
    MIXING:  cpu time    0.0440: real time    0.0431
    --------------------------------------------
      LOOP:  cpu time   35.1000: real time   36.3599

 eigenvalue-minimisations  :  1488
 total energy-change (2. order) :-0.3657672E-01  (-0.3651285E-01)
 number of electron      62.9999994 magnetization       9.4622936
 augmentation part       -0.0254134 magnetization       6.7784837

 Broyden mixing:
  rms(total) = 0.19239E+01    rms(broyden)= 0.19239E+01
  rms(prec ) = 0.20732E+01
  weight for this iteration     100.00

 Free energy of the ion-electron system (eV)
  ---------------------------------------------------
  alpha Z        PSCENC =        16.48263918
  Ewald energy   TEWEN  =      7794.22900203
  -Hartree energ DENC   =    -10708.46771382
  -exchange      EXHF   =         0.00000000
  -V(xc)+E(xc)   XCENC  =      -150.18570668
  PAW double counting   =      1976.70093714    -1813.83053112
  entropy T*S    EENTRO =         0.00000000
  eigenvalues    EBANDS =      -412.91798097
  atomic energy  EATOM  =      3260.22896581
  Solvation  Ediel_sol  =         0.00000000
  ---------------------------------------------------
  free energy    TOTEN  =       -37.76038844 eV

  energy without entropy =      -37.76038844  energy(sigma->0) =      -37.76038844


--------------------------------------------------------------------------------------------------------




--------------------------------------- Iteration      1(   6)  ---------------------------------------


    POTLOK:  cpu time   51.7480: real time   52.0341
    SETDIJ:  cpu time    0.0520: real time    0.0532
     EDDAV:  cpu time   25.2320: real time   25.3259
 BZINTS: Fermi energy: -3.122634; 63.000000 electrons
         Band energy:-554.412678;  BLOECHL correction: -0.062232
       DOS:  cpu time    0.0040: real time    0.0069
    CHARGE:  cpu time    2.1080: real time    2.1128
    MIXING:  cpu time    0.0400: real time    0.0413
    --------------------------------------------
      LOOP:  cpu time   79.1840: real time   79.5742

 eigenvalue-minimisations  :  1072
 total energy-change (2. order) :-0.2905590E+02  (-0.2533499E+02)
 number of electron      62.9999988 magnetization       9.1958162
 augmentation part        7.5575843 magnetization       8.4496545

 Broyden mixing:
  rms(total) = 0.45683E+01    rms(broyden)= 0.45683E+01
  rms(prec ) = 0.48527E+01
  weight for this iteration     100.00

 eigenvalues of (default mixing * dielectric matrix)
  average eigenvalue GAMMA=   0.2567
  0.2567

 Free energy of the ion-electron system (eV)
  ---------------------------------------------------
  alpha Z        PSCENC =        16.48263918
  Ewald energy   TEWEN  =      7794.22900203
  -Hartree energ DENC   =    -10615.81174637
  -exchange      EXHF   =         0.00000000
  -V(xc)+E(xc)   XCENC  =      -151.10142979
  PAW double counting   =      1839.95604374    -1656.38708893
  entropy T*S    EENTRO =         0.00000000
  eigenvalues    EBANDS =      -554.41267801
  atomic energy  EATOM  =      3260.22896581
  Solvation  Ediel_sol  =         0.00000000
  ---------------------------------------------------
  free energy    TOTEN  =       -66.81629234 eV

  energy without entropy =      -66.81629234  energy(sigma->0) =      -66.81629234


--------------------------------------------------------------------------------------------------------




--------------------------------------- Iteration      1(   7)  ---------------------------------------


    POTLOK:  cpu time   51.5760: real time   51.6873
    SETDIJ:  cpu time    0.0520: real time    0.0528
     EDDAV:  cpu time   26.6360: real time   26.7257
 BZINTS: Fermi energy: -2.842105; 63.000000 electrons
         Band energy:-449.022099;  BLOECHL correction: -0.042066
       DOS:  cpu time    0.0040: real time    0.0066
    CHARGE:  cpu time    2.0800: real time    2.1048
    MIXING:  cpu time    0.0400: real time    0.0408
    --------------------------------------------
      LOOP:  cpu time   80.3880: real time   80.6179

 eigenvalue-minimisations  :  1136
 total energy-change (2. order) : 0.2843272E+02  (-0.3806764E+01)
 number of electron      62.9999990 magnetization       8.9121787
 augmentation part        5.1236523 magnetization       8.6080059

 Broyden mixing:
  rms(total) = 0.21272E+01    rms(broyden)= 0.21272E+01
  rms(prec ) = 0.22786E+01
  weight for this iteration     100.00

 eigenvalues of (default mixing * dielectric matrix)
  average eigenvalue GAMMA=   0.4675
  0.4675  0.4675

 Free energy of the ion-electron system (eV)
  ---------------------------------------------------
  alpha Z        PSCENC =        16.48263918
  Ewald energy   TEWEN  =      7794.22900203
  -Hartree energ DENC   =    -10675.55671580
  -exchange      EXHF   =         0.00000000
  -V(xc)+E(xc)   XCENC  =      -151.15243586
  PAW double counting   =      1950.19989597    -1783.79281992
  entropy T*S    EENTRO =         0.00000000
  eigenvalues    EBANDS =      -449.02209925
  atomic energy  EATOM  =      3260.22896581
  Solvation  Ediel_sol  =         0.00000000
  ---------------------------------------------------
  free energy    TOTEN  =       -38.38356785 eV

  energy without entropy =      -38.38356785  energy(sigma->0) =      -38.38356785


--------------------------------------------------------------------------------------------------------




--------------------------------------- Iteration      1(   8)  ---------------------------------------


    POTLOK:  cpu time   51.4320: real time   51.6171
    SETDIJ:  cpu time    0.0520: real time    0.0491
     EDDAV:  cpu time   38.0400: real time   38.3567
 BZINTS: Fermi energy: -2.709082; 63.000000 electrons
         Band energy:-442.181436;  BLOECHL correction: -0.041423
       DOS:  cpu time    0.0080: real time    0.0097
    CHARGE:  cpu time    1.8920: real time    2.1077
    MIXING:  cpu time    0.0400: real time    0.0412
    --------------------------------------------
      LOOP:  cpu time   91.4640: real time   92.1815

 eigenvalue-minimisations  :  1680
 total energy-change (2. order) :-0.1216170E+02  (-0.1476895E+02)
 number of electron      62.9999992 magnetization       8.9282951
 augmentation part        3.3574214 magnetization      10.2077131

 Broyden mixing:
  rms(total) = 0.19622E+01    rms(broyden)= 0.19445E+01
  rms(prec ) = 0.19919E+01
  weight for this iteration     100.00

 eigenvalues of (default mixing * dielectric matrix)
  average eigenvalue GAMMA=   0.3129
  0.4663  0.4663  0.0062

 Free energy of the ion-electron system (eV)
  ---------------------------------------------------
  alpha Z        PSCENC =        16.48263918
  Ewald energy   TEWEN  =      7794.22900203
  -Hartree energ DENC   =    -10692.67022155
  -exchange      EXHF   =         0.00000000
  -V(xc)+E(xc)   XCENC  =      -150.97221219
  PAW double counting   =      1986.09101072    -1821.75302052
  entropy T*S    EENTRO =         0.00000000
  eigenvalues    EBANDS =      -442.18143628
  atomic energy  EATOM  =      3260.22896581
  Solvation  Ediel_sol  =         0.00000000
  ---------------------------------------------------
  free energy    TOTEN  =       -50.54527281 eV

  energy without entropy =      -50.54527281  energy(sigma->0) =      -50.54527281


--------------------------------------------------------------------------------------------------------




--------------------------------------- Iteration      1(   9)  ---------------------------------------


    POTLOK:  cpu time   50.0600: real time   51.1438
    SETDIJ:  cpu time    0.0480: real time    0.0481
     EDDAV:  cpu time   25.3920: real time   25.4667
 BZINTS: Fermi energy: -2.596780; 63.000000 electrons
         Band energy:-426.880097;  BLOECHL correction: -0.026104
       DOS:  cpu time    0.0040: real time    0.0070
    CHARGE:  cpu time    2.0560: real time    2.1456
    MIXING:  cpu time    0.0440: real time    0.0418
    --------------------------------------------
      LOOP:  cpu time   77.6040: real time   78.8530

 eigenvalue-minimisations  :  1088
 total energy-change (2. order) : 0.1526025E+02  (-0.8755997E+02)
 number of electron      62.9999992 magnetization       9.3900971
 augmentation part        3.5168602 magnetization       9.4382937

 Broyden mixing:
  rms(total) = 0.11982E+01    rms(broyden)= 0.11796E+01
  rms(prec ) = 0.12278E+01
  weight for this iteration     100.00

 eigenvalues of (default mixing * dielectric matrix)
  average eigenvalue GAMMA=   0.3356
  0.4406  0.4406  0.4383  0.0228

 Free energy of the ion-electron system (eV)
  ---------------------------------------------------
  alpha Z        PSCENC =        16.48263918
  Ewald energy   TEWEN  =      7794.22900203
  -Hartree energ DENC   =    -10692.91357796
  -exchange      EXHF   =         0.00000000
  -V(xc)+E(xc)   XCENC  =      -150.62037256
  PAW double counting   =      1986.06831330    -1821.87989416
  entropy T*S    EENTRO =         0.00000000
  eigenvalues    EBANDS =      -426.88009735
  atomic energy  EATOM  =      3260.22896581
  Solvation  Ediel_sol  =         0.00000000
  ---------------------------------------------------
  free energy    TOTEN  =       -35.28502171 eV

  energy without entropy =      -35.28502171  energy(sigma->0) =      -35.28502171


--------------------------------------------------------------------------------------------------------




--------------------------------------- Iteration      1(  10)  ---------------------------------------


    POTLOK:  cpu time   50.5120: real time   50.8918
    SETDIJ:  cpu time    0.0520: real time    0.0535
     EDDAV:  cpu time   28.3280: real time   28.7732
 BZINTS: Fermi energy: -2.611562; 63.000000 electrons
         Band energy:-430.639179;  BLOECHL correction: -0.013967
       DOS:  cpu time    0.0040: real time    0.0073
    CHARGE:  cpu time    2.1080: real time    2.1117
    MIXING:  cpu time    0.0440: real time    0.0461
    --------------------------------------------
      LOOP:  cpu time   81.0480: real time   81.8835

 eigenvalue-minimisations  :  1248
 total energy-change (2. order) :-0.2819480E+00  (-0.7557209E-01)
 number of electron      62.9999992 magnetization       9.1099468
 augmentation part        3.3574209 magnetization       8.7824401

 Broyden mixing:
  rms(total) = 0.12603E+01    rms(broyden)= 0.12595E+01
  rms(prec ) = 0.13042E+01
  weight for this iteration     100.00

 eigenvalues of (default mixing * dielectric matrix)
  average eigenvalue GAMMA=   0.4026
  0.5714  0.5714  0.4240  0.4240  0.0220

 Free energy of the ion-electron system (eV)
  ---------------------------------------------------
  alpha Z        PSCENC =        16.48263918
  Ewald energy   TEWEN  =      7794.22900203
  -Hartree energ DENC   =    -10688.55018533
  -exchange      EXHF   =         0.00000000
  -V(xc)+E(xc)   XCENC  =      -150.53947059
  PAW double counting   =      1972.43496733    -1809.21370939
  entropy T*S    EENTRO =         0.00000000
  eigenvalues    EBANDS =      -430.63917878
  atomic energy  EATOM  =      3260.22896581
  Solvation  Ediel_sol  =         0.00000000
  ---------------------------------------------------
  free energy    TOTEN  =       -35.56696974 eV

  energy without entropy =      -35.56696974  energy(sigma->0) =      -35.56696974


--------------------------------------------------------------------------------------------------------




--------------------------------------- Iteration      1(  11)  ---------------------------------------


    POTLOK:  cpu time   50.6560: real time   51.0292
    SETDIJ:  cpu time    0.0480: real time    0.0483
     EDDAV:  cpu time   27.0680: real time   27.3184
 BZINTS: Fermi energy: -2.453266; 63.000000 electrons
         Band energy:-429.220379;  BLOECHL correction: -0.015263
       DOS:  cpu time    0.0040: real time    0.0065
    CHARGE:  cpu time    2.1720: real time    2.1866
    MIXING:  cpu time    0.0440: real time    0.0432
    --------------------------------------------
      LOOP:  cpu time   79.9920: real time   80.6323

 eigenvalue-minimisations  :  1184
 total energy-change (2. order) :-0.5055609E+00  (-0.8277625E-01)
 number of electron      62.9999991 magnetization       7.9642018
 augmentation part        3.0047212 magnetization       7.0513921

 Broyden mixing:
  rms(total) = 0.12860E+01    rms(broyden)= 0.12859E+01
  rms(prec ) = 0.13712E+01
  weight for this iteration     100.00

 eigenvalues of (default mixing * dielectric matrix)
  average eigenvalue GAMMA=   0.5234
  1.0751  1.0751  0.4283  0.4283  0.0220  0.1117

 Free energy of the ion-electron system (eV)
  ---------------------------------------------------
  alpha Z        PSCENC =        16.48263918
  Ewald energy   TEWEN  =      7794.22900203
  -Hartree energ DENC   =    -10690.69519016
  -exchange      EXHF   =         0.00000000
  -V(xc)+E(xc)   XCENC  =      -150.73883244
  PAW double counting   =      1977.57281886    -1813.93155444
  entropy T*S    EENTRO =         0.00000000
  eigenvalues    EBANDS =      -429.22037949
  atomic energy  EATOM  =      3260.22896581
  Solvation  Ediel_sol  =         0.00000000
  ---------------------------------------------------
  free energy    TOTEN  =       -36.07253065 eV

  energy without entropy =      -36.07253065  energy(sigma->0) =      -36.07253065


--------------------------------------------------------------------------------------------------------




--------------------------------------- Iteration      1(  12)  ---------------------------------------


    POTLOK:  cpu time   50.5600: real time   50.8093
    SETDIJ:  cpu time    0.0480: real time    0.0487
     EDDAV:  cpu time   31.7320: real time   31.8757
 BZINTS: Fermi energy: -2.445886; 63.000000 electrons
         Band energy:-421.234690;  BLOECHL correction: -0.018876
       DOS:  cpu time    0.0040: real time    0.0076
    CHARGE:  cpu time    2.0840: real time    2.1038
    MIXING:  cpu time    0.0440: real time    0.0438
    --------------------------------------------
      LOOP:  cpu time   84.4720: real time   84.8890

 eigenvalue-minimisations  :  1392
 total energy-change (2. order) : 0.1974331E+00  (-0.2376125E+00)
 number of electron      62.9999992 magnetization       6.3626501
 augmentation part        3.4202515 magnetization       6.3916500

 Broyden mixing:
  rms(total) = 0.96832E+00    rms(broyden)= 0.96818E+00
  rms(prec ) = 0.10126E+01
  weight for this iteration     100.00

 eigenvalues of (default mixing * dielectric matrix)
  average eigenvalue GAMMA=   0.6754
  1.5637  1.5637  0.6094  0.4322  0.4322  0.0220  0.1044

 Free energy of the ion-electron system (eV)
  ---------------------------------------------------
  alpha Z        PSCENC =        16.48263918
  Ewald energy   TEWEN  =      7794.22900203
  -Hartree energ DENC   =    -10699.29485665
  -exchange      EXHF   =         0.00000000
  -V(xc)+E(xc)   XCENC  =      -151.10984746
  PAW double counting   =      1999.21016240    -1834.38647313
  entropy T*S    EENTRO =         0.00000000
  eigenvalues    EBANDS =      -421.23468971
  atomic energy  EATOM  =      3260.22896581
  Solvation  Ediel_sol  =         0.00000000
  ---------------------------------------------------
  free energy    TOTEN  =       -35.87509753 eV

  energy without entropy =      -35.87509753  energy(sigma->0) =      -35.87509753


--------------------------------------------------------------------------------------------------------




--------------------------------------- Iteration      1(  13)  ---------------------------------------


    POTLOK:  cpu time   50.6480: real time   50.8103
    SETDIJ:  cpu time    0.0480: real time    0.0483
     EDDAV:  cpu time   29.9600: real time   30.1978
 BZINTS: Fermi energy: -2.255787; 63.000000 electrons
         Band energy:-412.393285;  BLOECHL correction: -0.004939
       DOS:  cpu time    0.0040: real time    0.0077
    CHARGE:  cpu time    2.1160: real time    2.1256
    MIXING:  cpu time    0.0440: real time    0.0446
    --------------------------------------------
      LOOP:  cpu time   82.8200: real time   83.2344

 eigenvalue-minimisations  :  1312
 total energy-change (2. order) :-0.2126554E+00  (-0.4401485E-01)
 number of electron      62.9999992 magnetization       5.1342614
 augmentation part        3.3095450 magnetization       4.9560235

 Broyden mixing:
  rms(total) = 0.65529E+00    rms(broyden)= 0.65528E+00
  rms(prec ) = 0.69753E+00
  weight for this iteration     100.00

 eigenvalues of (default mixing * dielectric matrix)
  average eigenvalue GAMMA=   0.7597
  1.8893  1.8893  0.6470  0.6470  0.4395  0.4395  0.0220  0.1038

 Free energy of the ion-electron system (eV)
  ---------------------------------------------------
  alpha Z        PSCENC =        16.48263918
  Ewald energy   TEWEN  =      7794.22900203
  -Hartree energ DENC   =    -10708.81649349
  -exchange      EXHF   =         0.00000000
  -V(xc)+E(xc)   XCENC  =      -151.16133178
  PAW double counting   =      2017.47140359    -1852.12865300
  entropy T*S    EENTRO =         0.00000000
  eigenvalues    EBANDS =      -412.39328527
  atomic energy  EATOM  =      3260.22896581
  Solvation  Ediel_sol  =         0.00000000
  ---------------------------------------------------
  free energy    TOTEN  =       -36.08775294 eV

  energy without entropy =      -36.08775294  energy(sigma->0) =      -36.08775294


--------------------------------------------------------------------------------------------------------




--------------------------------------- Iteration      1(  14)  ---------------------------------------


    POTLOK:  cpu time   50.7640: real time   50.8666
    SETDIJ:  cpu time    0.0480: real time    0.0486
     EDDAV:  cpu time   30.2120: real time   30.3638
 BZINTS: Fermi energy: -2.088979; 63.000000 electrons
         Band energy:-405.207546;  BLOECHL correction: -0.003964
       DOS:  cpu time    0.0040: real time    0.0075
    CHARGE:  cpu time    2.0960: real time    2.0996
    MIXING:  cpu time    0.0760: real time    0.0762
    --------------------------------------------
      LOOP:  cpu time   83.2000: real time   83.4623

 eigenvalue-minimisations  :  1328
 total energy-change (2. order) :-0.1869134E+00  (-0.4103748E-01)
 number of electron      62.9999992 magnetization       4.3887365
 augmentation part        3.0343345 magnetization       4.2123829

 Broyden mixing:
  rms(total) = 0.52739E+00    rms(broyden)= 0.52739E+00
  rms(prec ) = 0.55507E+00
  weight for this iteration     100.00

 eigenvalues of (default mixing * dielectric matrix)
  average eigenvalue GAMMA=   0.7891
  2.1052  2.1052  0.7641  0.7641  0.4331  0.4331  0.3720  0.0220  0.1037

 Free energy of the ion-electron system (eV)
  ---------------------------------------------------
  alpha Z        PSCENC =        16.48263918
  Ewald energy   TEWEN  =      7794.22900203
  -Hartree energ DENC   =    -10715.71071881
  -exchange      EXHF   =         0.00000000
  -V(xc)+E(xc)   XCENC  =      -151.08652077
  PAW double counting   =      2024.99524406    -1860.20573153
  entropy T*S    EENTRO =         0.00000000
  eigenvalues    EBANDS =      -405.20754628
  atomic energy  EATOM  =      3260.22896581
  Solvation  Ediel_sol  =         0.00000000
  ---------------------------------------------------
  free energy    TOTEN  =       -36.27466631 eV

  energy without entropy =      -36.27466631  energy(sigma->0) =      -36.27466631


--------------------------------------------------------------------------------------------------------




--------------------------------------- Iteration      1(  15)  ---------------------------------------


    POTLOK:  cpu time   50.7400: real time   50.8975
    SETDIJ:  cpu time    0.0480: real time    0.0504
     EDDAV:  cpu time   25.8600: real time   26.0618
 BZINTS: Fermi energy: -1.972973; 63.000000 electrons
         Band energy:-400.470682;  BLOECHL correction: -0.003631
       DOS:  cpu time    0.0080: real time    0.0071
    CHARGE:  cpu time    2.1240: real time    2.1281
    MIXING:  cpu time    0.0480: real time    0.0464
    --------------------------------------------
      LOOP:  cpu time   78.8280: real time   79.1912

 eigenvalue-minimisations  :  1120
 total energy-change (2. order) :-0.7417715E-01  (-0.3370828E-01)
 number of electron      62.9999993 magnetization       3.1571906
 augmentation part        2.7699839 magnetization       2.9814713

 Broyden mixing:
  rms(total) = 0.41569E+00    rms(broyden)= 0.41568E+00
  rms(prec ) = 0.42505E+00
  weight for this iteration     100.00

 eigenvalues of (default mixing * dielectric matrix)
  average eigenvalue GAMMA=   0.8801
  2.6116  2.2856  0.9701  0.9701  0.6084  0.4365  0.4365  0.3561  0.0220  0.1037

 Free energy of the ion-electron system (eV)
  ---------------------------------------------------
  alpha Z        PSCENC =        16.48263918
  Ewald energy   TEWEN  =      7794.22900203
  -Hartree energ DENC   =    -10719.88651931
  -exchange      EXHF   =         0.00000000
  -V(xc)+E(xc)   XCENC  =      -151.06117801
  PAW double counting   =      2028.98282171    -1864.85389291
  entropy T*S    EENTRO =         0.00000000
  eigenvalues    EBANDS =      -400.47068195
  atomic energy  EATOM  =      3260.22896581
  Solvation  Ediel_sol  =         0.00000000
  ---------------------------------------------------
  free energy    TOTEN  =       -36.34884345 eV

  energy without entropy =      -36.34884345  energy(sigma->0) =      -36.34884345


--------------------------------------------------------------------------------------------------------




--------------------------------------- Iteration      1(  16)  ---------------------------------------


    POTLOK:  cpu time   50.6360: real time   50.9525
    SETDIJ:  cpu time    0.0480: real time    0.0479
     EDDAV:  cpu time   28.4840: real time   28.9674
 BZINTS: Fermi energy: -1.784269; 63.000000 electrons
         Band energy:-393.948005;  BLOECHL correction: -0.003394
       DOS:  cpu time    0.0040: real time    0.0073
    CHARGE:  cpu time    2.1040: real time    2.1206
    MIXING:  cpu time    0.0360: real time    0.0808
    --------------------------------------------
      LOOP:  cpu time   81.3120: real time   82.1765

 eigenvalue-minimisations  :  1264
 total energy-change (2. order) :-0.2289965E+00  (-0.2006728E-01)
 number of electron      62.9999993 magnetization       1.8404702
 augmentation part        2.4510797 magnetization       1.5785610

 Broyden mixing:
  rms(total) = 0.35894E+00    rms(broyden)= 0.35894E+00
  rms(prec ) = 0.36789E+00
  weight for this iteration     100.00

 eigenvalues of (default mixing * dielectric matrix)
  average eigenvalue GAMMA=   1.0979
  4.5490  2.3612  1.2280  1.2280  0.6886  0.6886  0.4347  0.4347  0.3380  0.0220
  0.1037

 Free energy of the ion-electron system (eV)
  ---------------------------------------------------
  alpha Z        PSCENC =        16.48263918
  Ewald energy   TEWEN  =      7794.22900203
  -Hartree energ DENC   =    -10726.26031772
  -exchange      EXHF   =         0.00000000
  -V(xc)+E(xc)   XCENC  =      -151.02403461
  PAW double counting   =      2034.90500024    -1871.19108955
  entropy T*S    EENTRO =         0.00000000
  eigenvalues    EBANDS =      -393.94800535
  atomic energy  EATOM  =      3260.22896581
  Solvation  Ediel_sol  =         0.00000000
  ---------------------------------------------------
  free energy    TOTEN  =       -36.57783996 eV

  energy without entropy =      -36.57783996  energy(sigma->0) =      -36.57783996


--------------------------------------------------------------------------------------------------------




--------------------------------------- Iteration      1(  17)  ---------------------------------------


    POTLOK:  cpu time   50.7520: real time   50.9733
    SETDIJ:  cpu time    0.0480: real time    0.0484
     EDDAV:  cpu time   24.6320: real time   24.8052
 BZINTS: Fermi energy: -1.712858; 63.000000 electrons
         Band energy:-391.599970;  BLOECHL correction: -0.007766
       DOS:  cpu time    0.0040: real time    0.0068
    CHARGE:  cpu time    2.0680: real time    2.1139
    MIXING:  cpu time    0.0480: real time    0.0482
    --------------------------------------------
      LOOP:  cpu time   77.5520: real time   77.9959

 eigenvalue-minimisations  :  1056
 total energy-change (2. order) :-0.2055873E+00  (-0.2357559E-01)
 number of electron      62.9999993 magnetization       1.2675452
 augmentation part        2.5704320 magnetization       0.8709780

 Broyden mixing:
  rms(total) = 0.36995E+00    rms(broyden)= 0.36995E+00
  rms(prec ) = 0.37896E+00
  weight for this iteration     100.00

 eigenvalues of (default mixing * dielectric matrix)
  average eigenvalue GAMMA=   1.3061
  7.1910  2.2851  1.2842  1.2842  0.8332  0.8332  0.6284  0.4347  0.4347  0.3384
  0.0220  0.1037

 Free energy of the ion-electron system (eV)
  ---------------------------------------------------
  alpha Z        PSCENC =        16.48263918
  Ewald energy   TEWEN  =      7794.22900203
  -Hartree energ DENC   =    -10728.67017408
  -exchange      EXHF   =         0.00000000
  -V(xc)+E(xc)   XCENC  =      -151.14391846
  PAW double counting   =      2031.82538125    -1868.13535258
  entropy T*S    EENTRO =         0.00000000
  eigenvalues    EBANDS =      -391.59997043
  atomic energy  EATOM  =      3260.22896581
  Solvation  Ediel_sol  =         0.00000000
  ---------------------------------------------------
  free energy    TOTEN  =       -36.78342729 eV

  energy without entropy =      -36.78342729  energy(sigma->0) =      -36.78342729


--------------------------------------------------------------------------------------------------------




--------------------------------------- Iteration      1(  18)  ---------------------------------------


    POTLOK:  cpu time   50.6800: real time   50.9834
    SETDIJ:  cpu time    0.0480: real time    0.0491
     EDDAV:  cpu time   26.7120: real time   26.8267
 BZINTS: Fermi energy: -1.677903; 63.000000 electrons
         Band energy:-388.961663;  BLOECHL correction: -0.009771
       DOS:  cpu time    0.0040: real time    0.0072
    CHARGE:  cpu time    2.1240: real time    2.1218
    MIXING:  cpu time    0.0480: real time    0.0493
    --------------------------------------------
      LOOP:  cpu time   79.6160: real time   80.0375

 eigenvalue-minimisations  :  1152
 total energy-change (2. order) :-0.7057168E-01  (-0.4847046E-02)
 number of electron      62.9999993 magnetization       1.1146860
 augmentation part        2.5367900 magnetization       0.7280151

 Broyden mixing:
  rms(total) = 0.39142E+00    rms(broyden)= 0.39142E+00
  rms(prec ) = 0.40177E+00
  weight for this iteration     100.00

 eigenvalues of (default mixing * dielectric matrix)
  average eigenvalue GAMMA=   1.3953
  8.3668  2.4424  1.2426  1.2426  1.2105  0.8317  0.8317  0.6372  0.4347  0.4347
  0.0220  0.3381  0.1037

 Free energy of the ion-electron system (eV)
  ---------------------------------------------------
  alpha Z        PSCENC =        16.48263918
  Ewald energy   TEWEN  =      7794.22900203
  -Hartree energ DENC   =    -10731.41584712
  -exchange      EXHF   =         0.00000000
  -V(xc)+E(xc)   XCENC  =      -151.13544925
  PAW double counting   =      2034.03416458    -1870.31581151
  entropy T*S    EENTRO =         0.00000000
  eigenvalues    EBANDS =      -388.96166270
  atomic energy  EATOM  =      3260.22896581
  Solvation  Ediel_sol  =         0.00000000
  ---------------------------------------------------
  free energy    TOTEN  =       -36.85399897 eV

  energy without entropy =      -36.85399897  energy(sigma->0) =      -36.85399897


--------------------------------------------------------------------------------------------------------




--------------------------------------- Iteration      1(  19)  ---------------------------------------


    POTLOK:  cpu time   50.7760: real time   50.8756
    SETDIJ:  cpu time    0.0480: real time    0.0484
     EDDAV:  cpu time   24.3040: real time   24.4426
 BZINTS: Fermi energy: -1.657590; 63.000000 electrons
         Band energy:-387.472562;  BLOECHL correction: -0.010149
       DOS:  cpu time    0.0040: real time    0.0069
    CHARGE:  cpu time    2.0960: real time    2.1105
    MIXING:  cpu time    0.0520: real time    0.0506
    --------------------------------------------
      LOOP:  cpu time   77.2800: real time   77.5347

 eigenvalue-minimisations  :  1040
 total energy-change (2. order) :-0.1672139E-01  (-0.1786425E-02)
 number of electron      62.9999993 magnetization       1.0896177
 augmentation part        2.5296052 magnetization       0.7130248

 Broyden mixing:
  rms(total) = 0.40214E+00    rms(broyden)= 0.40214E+00
  rms(prec ) = 0.41314E+00
  weight for this iteration     100.00

 eigenvalues of (default mixing * dielectric matrix)
  average eigenvalue GAMMA=   1.4038
  8.7502  2.5312  1.2791  1.2791  1.1850  1.1850  0.7381  0.7381  0.6342  0.4347
  0.4347  0.0220  0.3383  0.1037

 Free energy of the ion-electron system (eV)
  ---------------------------------------------------
  alpha Z        PSCENC =        16.48263918
  Ewald energy   TEWEN  =      7794.22900203
  -Hartree energ DENC   =    -10732.98878472
  -exchange      EXHF   =         0.00000000
  -V(xc)+E(xc)   XCENC  =      -151.13560747
  PAW double counting   =      2035.65794481    -1871.87231798
  entropy T*S    EENTRO =         0.00000000
  eigenvalues    EBANDS =      -387.47256202
  atomic energy  EATOM  =      3260.22896581
  Solvation  Ediel_sol  =         0.00000000
  ---------------------------------------------------
  free energy    TOTEN  =       -36.87072036 eV

  energy without entropy =      -36.87072036  energy(sigma->0) =      -36.87072036


--------------------------------------------------------------------------------------------------------




--------------------------------------- Iteration      1(  20)  ---------------------------------------


    POTLOK:  cpu time   50.6320: real time   50.9487
    SETDIJ:  cpu time    0.0480: real time    0.0483
     EDDAV:  cpu time   23.0440: real time   23.3464
 BZINTS: Fermi energy: -1.639520; 63.000000 electrons
         Band energy:-386.424985;  BLOECHL correction: -0.010079
       DOS:  cpu time    0.0040: real time    0.0065
    CHARGE:  cpu time    2.0920: real time    2.1112
    MIXING:  cpu time    0.0520: real time    0.0519
    --------------------------------------------
      LOOP:  cpu time   75.8720: real time   76.5129

 eigenvalue-minimisations  :   992
 total energy-change (2. order) :-0.1425409E-01  (-0.1932862E-02)
 number of electron      62.9999993 magnetization       1.1027526
 augmentation part        2.5101384 magnetization       0.7259961

 Broyden mixing:
  rms(total) = 0.41018E+00    rms(broyden)= 0.41018E+00
  rms(prec ) = 0.42181E+00
  weight for this iteration     100.00

 eigenvalues of (default mixing * dielectric matrix)
  average eigenvalue GAMMA=   1.4040
  8.8307  2.5853  1.5001  1.5001  1.1775  1.1775  0.8211  0.8211  0.4347  0.4347
  0.6806  0.6319  0.0220  0.3382  0.1037

 Free energy of the ion-electron system (eV)
  ---------------------------------------------------
  alpha Z        PSCENC =        16.48263918
  Ewald energy   TEWEN  =      7794.22900203
  -Hartree energ DENC   =    -10734.10273719
  -exchange      EXHF   =         0.00000000
  -V(xc)+E(xc)   XCENC  =      -151.12784863
  PAW double counting   =      2036.74628754    -1872.91629858
  entropy T*S    EENTRO =         0.00000000
  eigenvalues    EBANDS =      -386.42498460
  atomic energy  EATOM  =      3260.22896581
  Solvation  Ediel_sol  =         0.00000000
  ---------------------------------------------------
  free energy    TOTEN  =       -36.88497444 eV

  energy without entropy =      -36.88497444  energy(sigma->0) =      -36.88497444


--------------------------------------------------------------------------------------------------------




--------------------------------------- Iteration      1(  21)  ---------------------------------------


    POTLOK:  cpu time   50.8960: real time   51.0119
    SETDIJ:  cpu time    0.0480: real time    0.0482
     EDDAV:  cpu time   23.3000: real time   23.4258
 BZINTS: Fermi energy: -1.628976; 63.000000 electrons
         Band energy:-385.740906;  BLOECHL correction: -0.010032
       DOS:  cpu time    0.0040: real time    0.0070
    CHARGE:  cpu time    2.0600: real time    2.1277
    MIXING:  cpu time    0.0560: real time    0.0533
    --------------------------------------------
      LOOP:  cpu time   76.3640: real time   76.6738

 eigenvalue-minimisations  :   992
 total energy-change (2. order) :-0.1566622E-01  (-0.3249817E-02)
 number of electron      62.9999993 magnetization       1.1133152
 augmentation part        2.5083422 magnetization       0.7365363

 Broyden mixing:
  rms(total) = 0.41555E+00    rms(broyden)= 0.41555E+00
  rms(prec ) = 0.42744E+00
  weight for this iteration     100.00

 eigenvalues of (default mixing * dielectric matrix)
  average eigenvalue GAMMA=   1.4107
  8.8609  2.5685  1.6785  1.6785  1.2378  1.2378  0.9651  0.9651  0.4347  0.4347
  0.7581  0.6235  0.6645  0.0220  0.1037  0.3382

 Free energy of the ion-electron system (eV)
  ---------------------------------------------------
  alpha Z        PSCENC =        16.48263918
  Ewald energy   TEWEN  =      7794.22900203
  -Hartree energ DENC   =    -10734.82694024
  -exchange      EXHF   =         0.00000000
  -V(xc)+E(xc)   XCENC  =      -151.12039288
  PAW double counting   =      2037.05639951    -1873.20940822
  entropy T*S    EENTRO =         0.00000000
  eigenvalues    EBANDS =      -385.74090585
  atomic energy  EATOM  =      3260.22896581
  Solvation  Ediel_sol  =         0.00000000
  ---------------------------------------------------
  free energy    TOTEN  =       -36.90064066 eV

  energy without entropy =      -36.90064066  energy(sigma->0) =      -36.90064066


--------------------------------------------------------------------------------------------------------




--------------------------------------- Iteration      1(  22)  ---------------------------------------


    POTLOK:  cpu time   50.8320: real time   50.8983
    SETDIJ:  cpu time    0.0480: real time    0.0494
     EDDAV:  cpu time   23.8080: real time   24.0497
 BZINTS: Fermi energy: -1.611785; 63.000000 electrons
         Band energy:-384.638630;  BLOECHL correction: -0.010002
       DOS:  cpu time    0.0040: real time    0.0066
    CHARGE:  cpu time    2.0720: real time    2.0745
    MIXING:  cpu time    0.0560: real time    0.0549
    --------------------------------------------
      LOOP:  cpu time   76.8200: real time   77.1333

 eigenvalue-minimisations  :  1024
 total energy-change (2. order) :-0.1144375E-01  (-0.1360819E-02)
 number of electron      62.9999993 magnetization       1.1386125
 augmentation part        2.5107766 magnetization       0.7597712

 Broyden mixing:
  rms(total) = 0.42571E+00    rms(broyden)= 0.42571E+00
  rms(prec ) = 0.43781E+00
  weight for this iteration     100.00

 eigenvalues of (default mixing * dielectric matrix)
  average eigenvalue GAMMA=   1.4143
  8.8611  2.6318  1.9931  1.9931  1.2853  1.2853  1.0308  1.0308  0.0220  0.1037
  0.4347  0.4347  0.7878  0.3382  0.6614  0.6251  0.5240

 Free energy of the ion-electron system (eV)
  ---------------------------------------------------
  alpha Z        PSCENC =        16.48263918
  Ewald energy   TEWEN  =      7794.22900203
  -Hartree energ DENC   =    -10735.96824554
  -exchange      EXHF   =         0.00000000
  -V(xc)+E(xc)   XCENC  =      -151.10750962
  PAW double counting   =      2037.13943019    -1873.27773635
  entropy T*S    EENTRO =         0.00000000
  eigenvalues    EBANDS =      -384.63863011
  atomic energy  EATOM  =      3260.22896581
  Solvation  Ediel_sol  =         0.00000000
[...]
     34      -0.4644      0.00000
     35      -0.2540      0.00000
     36      -0.2001      0.00000
     37       0.5689      0.00000
     38       0.9956      0.00000
     39       1.0943      0.00000
     40       1.8695      0.00000
     41       2.0096      0.00000
     42       2.1090      0.00000
     43       2.7078      0.00000
     44       2.9363      0.00000
     45       3.0192      0.00000
     46       3.5088      0.00000
     47       3.6467      0.00000
     48       4.1216      0.00000

 k-point     5 :      -0.4000    0.2000    0.0000
  band No.  band energies     occupation 
      1     -14.7066      1.00000
      2     -13.6555      1.00000
      3     -13.2891      1.00000
      4     -13.0324      1.00000
      5     -12.7141      1.00000
      6     -12.5776      1.00000
      7     -10.7640      1.00000
      8      -8.5445      1.00000
      9      -6.8275      1.00000
     10      -6.3835      1.00000
     11      -6.1170      1.00000
     12      -5.5246      1.00000
     13      -5.4916      1.00000
     14      -4.9735      1.00000
     15      -4.7875      1.00000
     16      -4.5449      1.00000
     17      -4.5287      1.00000
     18      -4.1719      1.00000
     19      -4.1037      1.00000
     20      -3.8893      1.00000
     21      -3.8768      1.00000
     22      -3.4355      1.00000
     23      -3.0726      1.00000
     24      -2.8578      1.00000
     25      -2.6580      1.00000
     26      -2.6450      1.00000
     27      -2.3651      1.00000
     28      -2.2801      1.00000
     29      -2.1700      1.00000
     30      -2.1582      1.00000
     31      -2.1325      1.00000
     32      -1.0446     -0.01410
     33      -0.7826      0.00000
     34      -0.7200      0.00000
     35      -0.3441      0.00000
     36      -0.1145      0.00000
     37       0.3836      0.00000
     38       0.4998      0.00000
     39       1.0201      0.00000
     40       1.5219      0.00000
     41       1.8568      0.00000
     42       2.0309      0.00000
     43       3.0664      0.00000
     44       3.2396      0.00000
     45       3.2819      0.00000
     46       3.3742      0.00000
     47       3.4375      0.00000
     48       3.9798      0.00000


--------------------------------------------------------------------------------------------------------


 soft charge-density along one line, spin component           1
         0         1         2         3         4         5         6         7         8         9
 total charge-density along one line

 soft charge-density along one line, spin component           2
         0         1         2         3         4         5         6         7         8         9
 total charge-density along one line

 pseudopotential strength for first ion, spin component:           1
 -9.439  -0.094  -0.000   0.010   0.000   0.667   0.033   0.000
 -0.094  -9.496   0.000   0.000   0.010   0.033   0.687  -0.000
 -0.000   0.000  -9.328   0.000   0.000   0.000  -0.000   0.628
  0.010   0.000   0.000  -9.496   0.094  -0.004  -0.000  -0.000
  0.000   0.010   0.000   0.094  -9.439  -0.000  -0.004  -0.000
  0.667   0.033   0.000  -0.004  -0.000   0.785  -0.012  -0.000
  0.033   0.687  -0.000  -0.000  -0.004  -0.012   0.778   0.000
  0.000  -0.000   0.628  -0.000  -0.000  -0.000   0.000   0.800
 -0.004  -0.000  -0.000   0.687  -0.033   0.001   0.000   0.000
 -0.000  -0.004  -0.000  -0.033   0.667   0.000   0.001   0.000
 -0.000  -0.000  -0.004  -0.000   0.000  -0.000  -0.000   0.002
  0.000   0.000   0.000   0.000  -0.000  -0.000  -0.000  -0.000
 -0.000   0.003   0.000  -0.000   0.002   0.000  -0.001  -0.000
 -0.000  -0.000   0.003  -0.000  -0.000  -0.000   0.000  -0.001
  0.002  -0.000   0.000   0.003   0.000  -0.000  -0.000  -0.000
 -0.000  -0.001  -0.000   0.000  -0.002   0.000   0.000   0.000
  0.000   0.000  -0.002   0.000   0.000  -0.000  -0.000   0.001
 -0.002   0.000  -0.000  -0.001   0.000   0.000  -0.000   0.000
 pseudopotential strength for first ion, spin component:           2
 -9.289  -0.052  -0.000  -0.015   0.000   0.612   0.018   0.000
 -0.052  -9.329   0.000   0.000  -0.015   0.018   0.626  -0.000
 -0.000   0.000  -9.227   0.000   0.000   0.000  -0.000   0.590
 -0.015   0.000   0.000  -9.329   0.052   0.005  -0.000  -0.000
  0.000  -0.015   0.000   0.052  -9.289  -0.000   0.005  -0.000
  0.612   0.018   0.000   0.005  -0.000   0.806  -0.007  -0.000
  0.018   0.626  -0.000  -0.000   0.005  -0.007   0.800   0.000
  0.000  -0.000   0.590  -0.000  -0.000  -0.000   0.000   0.814
  0.005  -0.000  -0.000   0.626  -0.018  -0.002   0.000   0.000
 -0.000   0.005  -0.000  -0.018   0.612   0.000  -0.002   0.000
 -0.000  -0.000  -0.001  -0.000   0.000  -0.000  -0.000   0.001
  0.000   0.000   0.000   0.000  -0.000  -0.000  -0.000  -0.000
  0.000   0.003   0.000  -0.000   0.001  -0.000  -0.001  -0.000
 -0.000  -0.000   0.003  -0.000  -0.000  -0.000   0.000  -0.001
  0.001  -0.000   0.000   0.003  -0.000  -0.000  -0.000  -0.000
 -0.000  -0.002  -0.000   0.000  -0.002   0.000   0.000   0.000
  0.000   0.000  -0.002   0.000   0.000  -0.000  -0.000   0.001
 -0.002   0.000  -0.000  -0.002   0.000   0.000  -0.000   0.000
 total augmentation occupancy for first ion, spin component:           1
  1.682  -0.244   0.000  -0.005  -0.000   0.118   0.109   0.000   0.006  -0.000  -0.000  -0.000   0.002   0.000   0.018  -0.000
 -0.244   1.476  -0.000  -0.000  -0.005   0.110   0.214   0.000   0.000   0.006   0.000  -0.000   0.005   0.000   0.002  -0.000
  0.000  -0.000   1.907  -0.000  -0.000   0.000   0.000   0.014   0.000  -0.000  -0.002  -0.001  -0.000   0.006   0.000  -0.000
 -0.005  -0.000  -0.000   1.476   0.244   0.006  -0.000   0.000   0.214  -0.110   0.000   0.000  -0.002  -0.000   0.005   0.000
 -0.000  -0.005  -0.000   0.244   1.682   0.000   0.006  -0.000  -0.109   0.118   0.000   0.000   0.018  -0.000  -0.002  -0.000
  0.118   0.110   0.000   0.006   0.000   0.075   0.046   0.000  -0.003  -0.000   0.000  -0.000   0.002  -0.000   0.011  -0.000
  0.109   0.214   0.000  -0.000   0.006   0.046   0.114   0.000  -0.000  -0.003   0.000   0.000   0.004   0.000  -0.001  -0.000
  0.000   0.000   0.014   0.000  -0.000   0.000   0.000   0.054   0.000  -0.000   0.003  -0.004  -0.000  -0.001   0.000   0.000
  0.006   0.000   0.000   0.214  -0.109  -0.003  -0.000   0.000   0.114  -0.046   0.000  -0.000   0.001  -0.000   0.004  -0.000
 -0.000   0.006  -0.000  -0.110   0.118  -0.000  -0.003  -0.000  -0.046   0.075  -0.000   0.000   0.011   0.000  -0.002  -0.002
 -0.000   0.000  -0.002   0.000   0.000   0.000   0.000   0.003   0.000  -0.000   1.040  -0.287   0.000   0.007  -0.000   0.000
 -0.000   0.000  -0.001  -0.000   0.000  -0.000   0.000  -0.004  -0.000   0.000  -0.287   0.132   0.000  -0.003   0.000   0.000
  0.002   0.005  -0.000  -0.002   0.018   0.002   0.004  -0.000   0.001   0.011   0.000   0.000   0.188   0.000  -0.000  -0.013
  0.000   0.000   0.006  -0.000  -0.000  -0.000  -0.000  -0.001  -0.000   0.000   0.007  -0.003   0.000   0.186   0.000  -0.000
  0.018   0.002   0.000   0.005  -0.002   0.011  -0.001   0.000   0.004  -0.002   0.000  -0.000  -0.000   0.000   0.188   0.000
 -0.000  -0.000  -0.000   0.000  -0.000  -0.000  -0.000   0.000  -0.000  -0.002   0.000   0.000  -0.013  -0.000   0.000   0.001
  0.000   0.000   0.000   0.000  -0.000  -0.000   0.000  -0.000   0.000   0.000  -0.001   0.000  -0.000  -0.013  -0.000   0.000
 -0.000  -0.000  -0.000  -0.000   0.000  -0.002   0.000  -0.000  -0.000   0.000   0.000   0.000  -0.000  -0.000  -0.013  -0.000
 total augmentation occupancy for first ion, spin component:           2
  0.037   0.030   0.000  -0.019  -0.000  -0.021  -0.009  -0.000   0.008  -0.002   0.000  -0.000   0.002  -0.000  -0.002   0.000
  0.030   0.049   0.000  -0.000  -0.019  -0.008  -0.022  -0.000  -0.002   0.007   0.000   0.000   0.002  -0.000  -0.001   0.000
  0.000   0.000   0.000   0.000  -0.000  -0.000  -0.000  -0.009   0.000   0.000   0.000  -0.001   0.000  -0.000  -0.000   0.000
 -0.019  -0.000   0.000   0.049  -0.030   0.007   0.002   0.000  -0.022   0.008  -0.000   0.000   0.001  -0.000   0.002  -0.000
 -0.000  -0.019  -0.000  -0.030   0.037   0.002   0.008   0.000   0.009  -0.021  -0.000   0.000  -0.002   0.000  -0.002   0.000
 -0.021  -0.008  -0.000   0.007   0.002   0.001   0.000   0.000  -0.002  -0.000  -0.000   0.000  -0.001  -0.000   0.000   0.000
 -0.009  -0.022  -0.000   0.002   0.008   0.000   0.000   0.000  -0.000  -0.002   0.000   0.000  -0.001   0.000   0.000   0.000
 -0.000  -0.000  -0.009   0.000   0.000   0.000   0.000   0.000  -0.000  -0.000  -0.000   0.000  -0.000  -0.000  -0.000   0.000
  0.008  -0.002   0.000  -0.022   0.009  -0.002  -0.000  -0.000   0.000  -0.000   0.000   0.000  -0.000   0.000  -0.001   0.000
 -0.002   0.007   0.000   0.008  -0.021  -0.000  -0.002  -0.000  -0.000   0.001   0.000  -0.000   0.000   0.000   0.001   0.000
  0.000   0.000   0.000  -0.000  -0.000  -0.000   0.000  -0.000   0.000   0.000   0.003   0.006   0.000   0.000   0.000   0.000
 -0.000   0.000  -0.001   0.000   0.000   0.000   0.000   0.000  -0.000  -0.000   0.006  -0.003   0.000   0.000   0.000   0.000
  0.002   0.002   0.000   0.001  -0.002  -0.001  -0.001  -0.000  -0.000   0.000   0.000   0.000   0.001   0.000  -0.000   0.000
 -0.000   0.000  -0.000  -0.000   0.000  -0.000   0.000  -0.000   0.000   0.000   0.000   0.000  -0.000   0.001  -0.000  -0.000
 -0.002  -0.001  -0.000   0.002  -0.002   0.000   0.000  -0.000  -0.001   0.001   0.000   0.000  -0.000  -0.000   0.001   0.000
  0.000   0.000   0.000  -0.000   0.000   0.000   0.000   0.000   0.000   0.000   0.000   0.000   0.000   0.000   0.000  -0.000
  0.000   0.000   0.000   0.000  -0.000  -0.000   0.000  -0.000   0.000   0.000   0.000  -0.000   0.000   0.000   0.000  -0.000
  0.000   0.000   0.000   0.000  -0.000   0.000  -0.000   0.000   0.000  -0.000   0.000   0.000  -0.000   0.000   0.000   0.000


------------------------ aborting loop because EDIFF is reached ----------------------------------------





 total charge     

# of ion       s       p       d       tot
------------------------------------------
    1        0.370   0.421   7.422   8.213
    2        0.370   0.421   7.430   8.221
    3        0.783   0.838   0.000   1.620
    4        1.077   1.403   0.000   2.479
    5        1.411   1.904   0.053   3.367
    6        1.396   1.892   0.056   3.344
    7        1.405   1.894   0.054   3.354
    8        1.399   1.929   0.048   3.376
    9        1.390   1.956   0.049   3.395
   10        1.394   1.931   0.049   3.374
--------------------------------------------------
tot         10.994  14.589  15.161  40.744



 magnetization (x)

# of ion       s       p       d       tot
------------------------------------------
    1        0.000   0.001   0.193   0.195
    2        0.000   0.001   0.194   0.195
    3        0.003   0.004   0.000   0.007
    4        0.018   0.007   0.000   0.025
    5        0.005   0.031   0.000   0.037
    6        0.003   0.023   0.001   0.027
    7        0.004   0.029   0.001   0.034
    8        0.003   0.001   0.000   0.005
    9        0.003   0.010   0.000   0.014
   10        0.003   0.001   0.000   0.004
--------------------------------------------------
tot          0.044   0.109   0.390   0.543

    CHARGE:  cpu time    2.0160: real time    2.1022
    FORLOC:  cpu time    0.0640: real time    0.0629
    FORNL :  cpu time    6.4720: real time    6.9311
    STRESS:  cpu time   20.1360: real time   20.3842
    FORCOR:  cpu time   50.9280: real time   51.2375
    FORHAR:  cpu time    0.3320: real time    0.3317
    MIXING:  cpu time    0.0400: real time    0.0415
    OFIELD:  cpu time    0.0040: real time    0.0001

  FORCE on cell =-STRESS in cart. coord.  units (eV):
  Direction    XX          YY          ZZ          XY          YZ          ZX
  --------------------------------------------------------------------------------------
  Alpha Z    19.48210    19.48210    19.48210
  Ewald    8882.86771  8882.86498-10825.85588    -0.00202    -0.00060    -0.00108
  Hartree  9451.85292  9451.85385 -9016.91765    -0.00025     0.00009     0.00014
  E(xc)    -266.24873  -266.24872  -266.21251     0.00003     0.00002     0.00002
  Local  -19231.13380-19231.13294 18907.68954     0.00195     0.00039     0.00073
  n-local   688.85669   689.39469   703.06252    -0.03455     0.76059     0.68819
  augment   -79.88932   -79.88917   -87.56160     0.00006     0.00003     0.00005
  Kinetic   537.21594   529.44528   566.00183    -4.40483     0.25021    -0.54867
  Fock        0.00000     0.00000     0.00000     0.00000     0.00000     0.00000
  -------------------------------------------------------------------------------------
  Total      -0.61320    -0.61320    -0.31165     0.00000     0.00000    -0.00000
  in kB      -1.19860    -1.19860    -0.60916     0.00000     0.00000    -0.00000
  external pressure =       -1.00 kB  Pullay stress =        0.00 kB


 VOLUME and BASIS-vectors are now :
 -----------------------------------------------------------------------------
  energy-cutoff  :      520.00
  volume of cell :      819.67
      direct lattice vectors                 reciprocal lattice vectors
     6.734794062 -0.000000050  0.000000000     0.148482639 -0.085726486 -0.000000000
     3.367396614  5.832502386  0.000000000     0.000000001  0.171452994 -0.000000000
     0.000000000  0.000000000 20.867075942    -0.000000000 -0.000000000  0.047922383

  length of vectors
     6.734794062  6.734793541 20.867075942     0.171452981  0.171452994  0.047922383


 FORCES acting on ions
    electron-ion (+dipol)            ewald-force                    non-local-force                 convergence-correction
 -----------------------------------------------------------------------------------------------
   0.845E-04 0.333E-04 0.807E+01   0.660E-03 0.395E-03 -.823E+01   0.275E-19 0.817E-20 0.141E+00   0.379E-06 0.472E-06 -.319E-02
   -.965E-04 -.441E-04 0.559E+01   -.644E-03 -.386E-03 -.571E+01   0.186E-19 0.278E-16 0.958E-01   0.633E-07 0.241E-06 -.763E-03
   -.474E-04 -.110E-04 0.205E+03   -.148E-03 -.821E-04 -.204E+03   0.275E-16 -.139E-16 -.123E+01   0.534E-07 0.159E-07 0.431E-02
   0.399E-04 0.164E-04 -.246E+03   0.192E-03 0.106E-03 0.246E+03   0.278E-16 0.221E-19 0.383E+00   0.491E-07 0.281E-07 -.102E-01
   -.199E+02 0.910E-01 -.412E+03   0.166E+02 -.143E+00 0.416E+03   0.264E+01 -.132E-01 -.446E+01   -.112E-01 0.551E-01 -.237E-01
   0.100E+02 0.172E+02 -.412E+03   -.841E+01 -.143E+02 0.416E+03   -.133E+01 -.228E+01 -.446E+01   0.533E-01 -.178E-01 -.237E-01
   0.985E+01 -.173E+02 -.412E+03   -.817E+01 0.144E+02 0.416E+03   -.131E+01 0.230E+01 -.446E+01   -.421E-01 -.372E-01 -.237E-01
   0.265E+02 -.207E+00 0.421E+03   -.228E+02 0.145E+00 -.426E+03   -.346E+01 0.169E-01 0.467E+01   0.837E-02 0.540E-01 0.225E-01
   -.134E+02 -.228E+02 0.421E+03   0.115E+02 0.196E+02 -.426E+03   0.175E+01 0.299E+01 0.467E+01   0.426E-01 -.342E-01 0.225E-01
   -.131E+02 0.230E+02 0.421E+03   0.113E+02 -.198E+02 -.426E+03   0.172E+01 -.301E+01 0.467E+01   -.510E-01 -.198E-01 0.225E-01
 -----------------------------------------------------------------------------------------------
   0.906E-04 -.212E-05 -.132E-01   -.178E-14 -.711E-14 -.114E-12   -.222E-15 0.000E+00 0.190E-01   0.689E-06 0.847E-06 -.135E-01


 POSITION                                       TOTAL-FORCE (eV/Angst)
 -----------------------------------------------------------------------------------
      3.36739      1.94417     10.45139        -0.000000      0.000000     -0.025698
      6.73480      3.88834     10.45522        -0.000000      0.000000     -0.024020
      0.00000      0.00000      9.33216        -0.000000      0.000000      0.123709
      0.00000      0.00000     11.59681        -0.000000      0.000000      0.031809
      4.21980      0.00245     11.97253        -0.655634     -0.009542     -0.004100
      1.25962      2.17683     11.97253         0.319554      0.572566     -0.004100
      4.62278      3.65323     11.97253         0.336080     -0.563025     -0.004100
      5.88239      5.83005      8.89455         0.265092      0.009083     -0.031167
      8.84257      3.65567      8.89455        -0.124680     -0.234117     -0.031167
      5.47941      2.17927      8.89455        -0.140412      0.225035     -0.031167
 -----------------------------------------------------------------------------------
    total drift:                                0.000091     -0.000001     -0.007744


--------------------------------------------------------------------------------------------------------



  FREE ENERGIE OF THE ION-ELECTRON SYSTEM (eV)
  ---------------------------------------------------
  free  energy   TOTEN  =       -37.74832238 eV

  energy  without entropy=      -37.74832238  energy(sigma->0) =      -37.74832238

 d Force =-0.1337203E-03[-0.135E-03,-0.132E-03]  d Energy = 0.4712042E-03-0.605E-03
 d Force = 0.1024114E+00[ 0.103E+00, 0.102E+00]  d Ewald  =-0.1816304E+01 0.192E+01


--------------------------------------------------------------------------------------------------------


    POTLOK:  cpu time   51.2720: real time   51.5314


--------------------------------------------------------------------------------------------------------




--------------------------------------------------------------------------------------------------------


  
 reached required accuracy - stopping structural energy minimisation
     LOOP+:  cpu time  521.4960: real time  527.2841
    4ORBIT:  cpu time    0.0000: real time    0.0000



 total charge     

# of ion       s       p       d       tot
------------------------------------------
    1        0.370   0.421   7.422   8.213
    2        0.370   0.421   7.430   8.221
    3        0.783   0.838   0.000   1.620
    4        1.077   1.403   0.000   2.479
    5        1.411   1.904   0.053   3.367
    6        1.396   1.892   0.056   3.344
    7        1.405   1.894   0.054   3.354
    8        1.399   1.929   0.048   3.376
    9        1.390   1.956   0.049   3.395
   10        1.394   1.931   0.049   3.374
--------------------------------------------------
tot         10.994  14.589  15.161  40.744



 magnetization (x)

# of ion       s       p       d       tot
------------------------------------------
    1        0.000   0.001   0.193   0.195
    2        0.000   0.001   0.194   0.195
    3        0.003   0.004   0.000   0.007
    4        0.018   0.007   0.000   0.025
    5        0.005   0.031   0.000   0.037
    6        0.003   0.023   0.001   0.027
    7        0.004   0.029   0.001   0.034
    8        0.003   0.001   0.000   0.005
    9        0.003   0.010   0.000   0.014
   10        0.003   0.001   0.000   0.004
--------------------------------------------------
tot          0.044   0.109   0.390   0.543

 BZINTS: Fermi energy: -1.168311; 63.000000 electrons
         Band energy:-383.759502;  BLOECHL correction: -0.023729

 total amount of memory used by VASP MPI-rank0   132386. kBytes
=======================================================================

   base      :      30000. kBytes
   nonlr-proj:       9886. kBytes
   fftplans  :      11247. kBytes
   grid      :      68332. kBytes
   one-center:        311. kBytes
   wavefun   :      12610. kBytes

  
  
 General timing and accounting informations for this job:
 ========================================================
  
                  Total CPU time used (sec):    23090.188
                            User time (sec):    22561.676
                          System time (sec):      528.512
                         Elapsed time (sec):    23276.048
  
                   Maximum memory used (kb):      391188.
                   Average memory used (kb):           0.
  
                          Minor page faults:     18398081
                          Major page faults:            6
                 Voluntary context switches:         1130
