 vasp.5.4.4.18Apr17-6-g9f103f2a35 (build May  1 2020 15:48:39) complex           
 executed on             LinuxGNU date 2020.06.30  22:57:05
 running on    8 total cores
 distrk:  each k-point on    8 cores,    1 groups
 distr:  one band on NCORES_PER_BAND=   1 cores,    8 groups


--------------------------------------------------------------------------------------------------------


 INCAR:
 POTCAR:   PAW_PBE Cr 06Sep2000                   
 POTCAR:    PAW_PBE P 17Jan2003                   
 POTCAR:   PAW_PBE Te 08Apr2002                   

 ----------------------------------------------------------------------------- 
|                                                                             |
|           W    W    AA    RRRRR   N    N  II  N    N   GGGG   !!!           |
|           W    W   A  A   R    R  NN   N  II  NN   N  G    G  !!!           |
|           W    W  A    A  R    R  N N  N  II  N N  N  G       !!!           |
|           W WW W  AAAAAA  RRRRR   N  N N  II  N  N N  G  GGG   !            |
|           WW  WW  A    A  R   R   N   NN  II  N   NN  G    G                |
|           W    W  A    A  R    R  N    N  II  N    N   GGGG   !!!           |
|                                                                             |
|      For optimal performance we recommend to set                            |
|        NCORE= 4 - approx SQRT( number of cores)                             |
|      NCORE specifies how many cores store one orbital (NPAR=cpu/NCORE).     |
|      This setting can  greatly improve the performance of VASP for DFT.     |
|      The default,   NCORE=1            might be grossly inefficient         |
|      on modern multi-core architectures or massively parallel machines.     |
|      Do your own testing !!!!                                               |
|      Unfortunately you need to use the default for GW and RPA calculations. |
|      (for HF NCORE is supported but not extensively tested yet)             |
|                                                                             |
 ----------------------------------------------------------------------------- 


 ----------------------------------------------------------------------------- 
|                                                                             |
|  ADVICE TO THIS USER RUNNING 'VASP/VAMP'   (HEAR YOUR MASTER'S VOICE ...):  |
|                                                                             |
|      You have switched on vdW-DFT.                                          |
|      This routine was written and supplied by Jiri Klimes.                  |
|      We recommed that you carefully read and cite the following             |
|      publication                                                            |
|      J. Klimes, D.R. Bowler, A. Michelides                                  |
|        J. Phys.: Cond Matt. 22 022201 (2010)                                |
|      J. Klimes, D.R. Bowler, A. Michelides                                  |
|        Phys. Rev. B. 83, 195131 (2011)                                      |
|      and references therein.                                                |
|                                                                             |
 ----------------------------------------------------------------------------- 

 POTCAR:   PAW_PBE Cr 06Sep2000                   
   VRHFIN =Cr : d5 s1                                                           
   LEXCH  = PE                                                                  
   EATOM  =   276.9744 eV,   20.3570 Ry                                         
                                                                                
   TITEL  = PAW_PBE Cr 06Sep2000                                                
   LULTRA =        F    use ultrasoft PP ?                                      
   IUNSCR =        1    unscreen: 0-lin 1-nonlin 2-no                           
   RPACOR =    2.080    partial core radius                                     
   POMASS =   51.996; ZVAL   =    6.000    mass and valenz                      
   RCORE  =    2.500    outmost cutoff radius                                   
   RWIGS  =    2.500; RWIGS  =    1.323    wigner-seitz radius (au A)           
   ENMAX  =  227.082; ENMIN  =  170.311 eV                                      
   RCLOC  =    1.721    cutoff for local pot                                    
   LCOR   =        T    correct aug charges                                     
   LPAW   =        T    paw PP                                                  
   EAUG   =  402.108                                                            
   DEXC   =    -.035                                                            
   RMAX   =    3.060    core radius for proj-oper                               
   RAUG   =    1.300    factor for augmentation sphere                          
   RDEP   =    2.609    radius for radial grids                                 
   QCUT   =   -4.085; QGAM   =    8.171    optimization parameters              
                                                                                
   Description                                                                  
     l     E      TYP  RCUT    TYP  RCUT                                        
     2   .000     23  2.500                                                     
     2   .000     23  2.500                                                     
     0   .000     23  2.500                                                     
     0   .000     23  2.500                                                     
     1  -.400     23  2.500                                                     
     1  2.000     23  2.500                                                     
     3   .000      7   .000                                                     
  local pseudopotential read in
  partial core-charges read in
  atomic valenz-charges read in
  non local Contribution for L=           2  read in
    real space projection operators read in
  non local Contribution for L=           2  read in
    real space projection operators read in
  non local Contribution for L=           0  read in
    real space projection operators read in
  non local Contribution for L=           0  read in
    real space projection operators read in
  non local Contribution for L=           1  read in
    real space projection operators read in
  non local Contribution for L=           1  read in
    real space projection operators read in
    PAW grid and wavefunctions read in

   number of l-projection  operators is LMAX  =           6
   number of lm-projection operators is LMMAX =          18

 POTCAR:    PAW_PBE P 17Jan2003                   
   VRHFIN =P : s2p3                                                             
   LEXCH  = PE                                                                  
   EATOM  =   176.0430 eV,   12.9388 Ry                                         
                                                                                
   TITEL  = PAW_PBE P 17Jan2003                                                 
   LULTRA =        F    use ultrasoft PP ?                                      
   IUNSCR =        1    unscreen: 0-lin 1-nonlin 2-no                           
   RPACOR =    1.500    partial core radius                                     
   POMASS =   30.974; ZVAL   =    5.000    mass and valenz                      
   RCORE  =    1.900    outmost cutoff radius                                   
   RWIGS  =    2.330; RWIGS  =    1.233    wigner-seitz radius (au A)           
   ENMAX  =  270.000; ENMIN  =  191.280 eV                                      
   ICORE  =        2    local potential                                         
   LCOR   =        T    correct aug charges                                     
   LPAW   =        T    paw PP                                                  
   EAUG   =  342.924                                                            
   DEXC   =    -.002                                                            
   RMAX   =    2.887    core radius for proj-oper                               
   RAUG   =    1.300    factor for augmentation sphere                          
   RDEP   =    1.931    radius for radial grids                                 
   QCUT   =   -4.330; QGAM   =    8.659    optimization parameters              
                                                                                
   Description                                                                  
     l     E      TYP  RCUT    TYP  RCUT                                        
     0   .000     23  1.900                                                     
     0   .000     23  1.900                                                     
     1   .000     23  1.900                                                     
     1   .000     23  1.900                                                     
     2   .000     23  1.900                                                     
  local pseudopotential read in
  partial core-charges read in
  atomic valenz-charges read in
  non local Contribution for L=           0  read in
    real space projection operators read in
  non local Contribution for L=           0  read in
    real space projection operators read in
  non local Contribution for L=           1  read in
    real space projection operators read in
  non local Contribution for L=           1  read in
    real space projection operators read in
    PAW grid and wavefunctions read in

   number of l-projection  operators is LMAX  =           4
   number of lm-projection operators is LMMAX =           8

 POTCAR:   PAW_PBE Te 08Apr2002                   
   VRHFIN =Te: s2p4                                                             
   LEXCH  = PE                                                                  
   EATOM  =   223.2721 eV,   16.4100 Ry                                         
                                                                                
   TITEL  = PAW_PBE Te 08Apr2002                                                
   LULTRA =        F    use ultrasoft PP ?                                      
   IUNSCR =        1    unscreen: 0-lin 1-nonlin 2-no                           
   RPACOR =    2.200    partial core radius                                     
   POMASS =  127.600; ZVAL   =    6.000    mass and valenz                      
   RCORE  =    2.300    outmost cutoff radius                                   
   RWIGS  =    2.900; RWIGS  =    1.535    wigner-seitz radius (au A)           
   ENMAX  =  174.982; ENMIN  =  131.236 eV                                      
   ICORE  =        3    local potential                                         
   LCOR   =        T    correct aug charges                                     
   LPAW   =        T    paw PP                                                  
   EAUG   =  368.792                                                            
   DEXC   =    -.169                                                            
   RMAX   =    3.486    core radius for proj-oper                               
   RAUG   =    1.300    factor for augmentation sphere                          
   RDEP   =    2.397    radius for radial grids                                 
   QCUT   =   -3.586; QGAM   =    7.172    optimization parameters              
                                                                                
   Description                                                                  
     l     E      TYP  RCUT    TYP  RCUT                                        
     0   .000     23  2.300                                                     
     0   .000     23  2.300                                                     
     1   .000     23  2.300                                                     
     1   .000     23  2.300                                                     
     2   .000     23  2.300                                                     
     3  -.100     23  2.300                                                     
  local pseudopotential read in
  partial core-charges read in
  atomic valenz-charges read in
  non local Contribution for L=           0  read in
    real space projection operators read in
  non local Contribution for L=           0  read in
    real space projection operators read in
  non local Contribution for L=           1  read in
    real space projection operators read in
  non local Contribution for L=           1  read in
    real space projection operators read in
  non local Contribution for L=           2  read in
    real space projection operators read in
    PAW grid and wavefunctions read in

   number of l-projection  operators is LMAX  =           5
   number of lm-projection operators is LMMAX =          13

 Optimization of the real space projectors (new method)

 maximal supplied QI-value         = 15.12
 optimisation between [QCUT,QGAM] = [ 11.64, 23.28] = [ 37.95,151.78] Ry 
 Optimized for a Real-space Cutoff    1.49 Angstroem

   l    n(q)    QCUT    max X(q) W(low)/X(q) W(high)/X(q)  e(spline) 
   2      9    11.641     4.777    0.25E-04    0.21E-05    0.63E-07
   2      9    11.641    31.132    0.13E-03    0.22E-03    0.64E-06
   0     10    11.641    20.416    0.11E-04    0.74E-05    0.19E-07
   0     10    11.641    45.408    0.10E-03    0.85E-04    0.30E-06
   1     10    11.641     7.848    0.22E-04    0.23E-04    0.56E-07
   1     10    11.641     9.895    0.85E-04    0.54E-04    0.16E-06
 Optimization of the real space projectors (new method)

 maximal supplied QI-value         = 19.84
 optimisation between [QCUT,QGAM] = [ 11.51, 23.22] = [ 37.09,150.92] Ry 
 Optimized for a Real-space Cutoff    1.21 Angstroem

   l    n(q)    QCUT    max X(q) W(low)/X(q) W(high)/X(q)  e(spline) 
   0      8    11.508     6.651    0.19E-04    0.31E-05    0.49E-08
   0      8    11.508    90.285    0.95E-04    0.17E-03    0.51E-07
   1      8    11.508     4.328    0.14E-04    0.32E-04    0.22E-07
   1      8    11.508    54.583    0.16E-03    0.71E-04    0.89E-07
 Optimization of the real space projectors (new method)

 maximal supplied QI-value         = 16.25
 optimisation between [QCUT,QGAM] = [ 11.54, 23.24] = [ 37.28,151.24] Ry 
 Optimized for a Real-space Cutoff    1.36 Angstroem

   l    n(q)    QCUT    max X(q) W(low)/X(q) W(high)/X(q)  e(spline) 
   0      9    11.539     7.090    0.13E-04    0.25E-05    0.51E-08
   0      9    11.539   101.654    0.53E-04    0.69E-04    0.12E-06
   1      9    11.539     5.276    0.20E-04    0.98E-05    0.24E-07
   1      9    11.539    81.891    0.24E-03    0.13E-04    0.15E-06
   2      9    11.539     5.599    0.30E-04    0.97E-04    0.54E-07

 ----------------------------------------------------------------------------- 
|                                                                             |
|  ADVICE TO THIS USER RUNNING 'VASP/VAMP'   (HEAR YOUR MASTER'S VOICE ...):  |
|                                                                             |
|      You enforced a specific xc-type in the INCAR file,                     |
|      a different type was found on the POTCAR file                          |
|          I HOPE YOU KNOW, WHAT YOU ARE  DOING                               |
|                                                                             |
 ----------------------------------------------------------------------------- 

 PAW_PBE Cr 06Sep2000                   :
 energy of atom  1       EATOM= -276.9744
 kinetic energy error for atom=    0.0010 (will be added to EATOM!!)
  PAW_PBE P 17Jan2003                   :
 energy of atom  2       EATOM= -176.0430
 kinetic energy error for atom=    0.0011 (will be added to EATOM!!)
 PAW_PBE Te 08Apr2002                   :
 energy of atom  3       EATOM= -223.2721
 kinetic energy error for atom=    0.0007 (will be added to EATOM!!)


 POSCAR: Cr2 P2 Te6                              
  positions in direct lattice
  No initial velocities read in
 exchange correlation table for  LEXCH =       42
   RHO(1)=    0.500       N(1)  =     2000
   RHO(2)=  100.500       N(2)  =     4000



--------------------------------------------------------------------------------------------------------


 ion  position               nearest neighbor table
   1  0.333  0.333  0.500-   6 2.78   5 2.78   7 2.78   8 2.78  10 2.78   9 2.78
   2  0.667  0.667  0.500-   9 2.78   8 2.78  10 2.78   5 2.78   7 2.78   6 2.78
   3  0.000  0.000  0.448-   4 2.43   8 2.63  10 2.63   9 2.63
   4  0.000  0.000  0.552-   3 2.43   5 2.63   7 2.63   6 2.63
   5  0.626  0.000  0.574-   4 2.63   1 2.78   2 2.78
   6  0.000  0.373  0.574-   4 2.63   1 2.78   2 2.78
   7  0.373  0.626  0.574-   4 2.63   1 2.78   2 2.78
   8  0.374  1.000  0.426-   3 2.63   2 2.78   1 2.78
   9  1.000  0.627  0.426-   3 2.63   2 2.78   1 2.78
  10  0.627  0.374  0.426-   3 2.63   2 2.78   1 2.78

  LATTYP: Found a hexagonal cell.
 ALAT       =     6.9077769333
 C/A-ratio  =     3.3939410937
  
  Lattice vectors:
  
 A1 = (   3.4538890000,  -5.9823100000,   0.0000000000)
 A2 = (  -6.9077770000,   0.0000000000,   0.0000000000)
 A3 = (   0.0000000000,   0.0000000000, -23.4445880000)


Analysis of symmetry for initial positions (statically):
=====================================================================
 Subroutine PRICEL returns:
 Original cell was already a primitive cell.
 

 Routine SETGRP: Setting up the symmetry group for a 
 hexagonal supercell.


 Subroutine GETGRP returns: Found  6 space group operations
 (whereof  6 operations were pure point group operations)
 out of a pool of 24 trial point group operations.


The static configuration has the point symmetry S_6 .


Analysis of symmetry for dynamics (positions and initial velocities):
=====================================================================
 Subroutine PRICEL returns:
 Original cell was already a primitive cell.
 

 Routine SETGRP: Setting up the symmetry group for a 
 hexagonal supercell.


 Subroutine GETGRP returns: Found  6 space group operations
 (whereof  6 operations were pure point group operations)
 out of a pool of 24 trial point group operations.


The dynamic configuration has the point symmetry S_6 .


Analysis of constrained symmetry for selective dynamics:
=====================================================================
 Subroutine PRICEL returns:
 Original cell was already a primitive cell.
 

 Routine SETGRP: Setting up the symmetry group for a 
 hexagonal supercell.


 Subroutine GETGRP returns: Found  6 space group operations
 (whereof  6 operations were pure point group operations)
 out of a pool of 24 trial point group operations.


The constrained configuration has the point symmetry S_6 .


Analysis of structural, dynamic, and magnetic symmetry:
=====================================================================
 Subroutine PRICEL returns:
 Original cell was already a primitive cell.
 

 Routine SETGRP: Setting up the symmetry group for a 
 hexagonal supercell.


 Subroutine GETGRP returns: Found  6 space group operations
 (whereof  6 operations were pure point group operations)
 out of a pool of 24 trial point group operations.


The magnetic configuration has the point symmetry S_6 .


 Subroutine INISYM returns: Found  6 space group operations
 (whereof  6 operations are pure point group operations),
 and found     1 'primitive' translations



 KPOINTS: Kpoints from vasprun.xml                

Automatic generation of k-mesh.
Space group operators:
 irot       det(A)        alpha          n_x          n_y          n_z        tau_x        tau_y        tau_z
    1     1.000000     0.000000     1.000000     0.000000     0.000000     0.000000     0.000000     0.000000
    2    -1.000000     0.000000     1.000000     0.000000     0.000000     0.000000     0.000000     0.000000
    3     1.000000   120.000000     0.000000     0.000000     1.000000     0.000000     0.000000     0.000000
    4    -1.000000   120.000000     0.000000     0.000000     1.000000     0.000000     0.000000     0.000000
    5     1.000000   120.000000     0.000000     0.000000    -1.000000     0.000000     0.000000     0.000000
    6    -1.000000   120.000000     0.000000     0.000000    -1.000000     0.000000     0.000000     0.000000
 
 Subroutine IBZKPT returns following result:
 ===========================================
 
 Found      5 irreducible k-points:
 
 Following reciprocal coordinates:
            Coordinates               Weight
  0.000000  0.000000  0.000000      1.000000
  0.200000  0.000000  0.000000      6.000000
  0.400000  0.000000  0.000000      6.000000
  0.400000  0.200000  0.000000      6.000000
 -0.400000  0.200000  0.000000      6.000000
 
 Following cartesian coordinates:
            Coordinates               Weight
  0.000000  0.000000  0.000000      1.000000
  0.028953 -0.016716  0.000000      6.000000
  0.057906 -0.033432  0.000000      6.000000
  0.057906  0.000000  0.000000      6.000000
 -0.057906  0.066864  0.000000      6.000000
 
 TETIRR: Found     15 inequivalent tetrahedra from      150


--------------------------------------------------------------------------------------------------------




 Dimension of arrays:
   k-points           NKPTS =      5   k-points in BZ     NKDIM =      5   number of bands    NBANDS=     40
   number of dos      NEDOS =    301   number of ions     NIONS =     10
   non local maximal  LDIM  =      6   non local SUM 2l+1 LMDIM =     18
   total plane-waves  NPLWV = 524880
   max r-space proj   IRMAX =   7543   max aug-charges    IRDMAX=  31706
   dimension x,y,z NGX =    54 NGY =   54 NGZ =  180
   dimension x,y,z NGXF=   108 NGYF=  108 NGZF=  360
   support grid    NGXF=   108 NGYF=  108 NGZF=  360
   ions per type =               2   2   6
   NGX,Y,Z   is equivalent  to a cutoff of  13.00, 13.00, 12.76 a.u.
   NGXF,Y,Z  is equivalent  to a cutoff of  25.99, 25.99, 25.53 a.u.

 SYSTEM =  unknown system                          
 POSCAR =  Cr2 P2 Te6                              

 Startparameter for this run:
   NWRITE =      2    write-flag & timer
   PREC   = accura    normal or accurate (medium, high low for compatibility)
   ISTART =      0    job   : 0-new  1-cont  2-samecut
   ICHARG =      2    charge: 1-file 2-atom 10-const
   ISPIN  =      2    spin polarized calculation?
   LNONCOLLINEAR =      F non collinear calculations
   LSORBIT =      F    spin-orbit coupling
   INIWAV =      1    electr: 0-lowe 1-rand  2-diag
   LASPH  =      F    aspherical Exc in radial PAW
   METAGGA=      F    non-selfconsistent MetaGGA calc.

 Electronic Relaxation 1
   ENCUT  =  520.0 eV  38.22 Ry    6.18 a.u.  12.84 12.84 43.59*2*pi/ulx,y,z
   ENINI  =  520.0     initial cutoff
   ENAUG  =  402.1 eV  augmentation charge cutoff
   NELM   =    400;   NELMIN=  2; NELMDL=  0     # of ELM steps 
   EDIFF  = 0.1E-03   stopping-criterion for ELM
   LREAL  =      T    real-space projection
   NLSPLINE    = F    spline interpolate recip. space projectors
   LCOMPAT=      F    compatible to vasp.4.4
   GGA_COMPAT  = T    GGA compatible to vasp.4.4-vasp.4.6
   LMAXPAW     = -100 max onsite density
   LMAXMIX     =    2 max onsite mixed and CHGCAR
   VOSKOWN=      0    Vosko Wilk Nusair interpolation
   ROPT   =   -0.00025  -0.00025  -0.00025
 Ionic relaxation
   EDIFFG = 0.1E-02   stopping-criterion for IOM
   NSW    =     99    number of steps for IOM
   NBLOCK =      1;   KBLOCK =     99    inner block; outer block 
   IBRION =      2    ionic relax: 0-MD 1-quasi-New 2-CG
   NFREE  =      1    steps in history (QN), initial steepest desc. (CG)
   ISIF   =      3    stress and relaxation
   IWAVPR =     11    prediction:  0-non 1-charg 2-wave 3-comb
   ISYM   =      2    0-nonsym 1-usesym 2-fastsym
   LCORR  =      T    Harris-Foulkes like correction to forces

   POTIM  = 0.5000    time-step for ionic-motion
   TEIN   =    0.0    initial temperature
   TEBEG  =    0.0;   TEEND  =   0.0 temperature during run
   SMASS  =  -3.00    Nose mass-parameter (am)
   estimated Nose-frequenzy (Omega)   =  0.10E-29 period in steps =****** mass=  -0.109E-26a.u.
   SCALEE = 1.0000    scale energy and forces
   NPACO  =    256;   APACO  = 16.0  distance and # of slots for P.C.
   PSTRESS=    0.0 pullay stress

  Mass of Ions in am
   POMASS =  52.00 30.97127.60
  Ionic Valenz
   ZVAL   =   6.00  5.00  6.00
  Atomic Wigner-Seitz radii
   RWIGS  =  -1.00 -1.00 -1.00
  virtual crystal weights 
   VCA    =   1.00  1.00  1.00
   NELECT =      58.0000    total number of electrons
   NUPDOWN=      -1.0000    fix difference up-down

 DOS related values:
   EMIN   =  10.00;   EMAX   =-10.00  energy-range for DOS
   EFERMI =   0.00
   ISMEAR =    -5;   SIGMA  =   0.05  broadening in eV -4-tet -1-fermi 0-gaus

 Electronic relaxation 2 (details)
   IALGO  =     38    algorithm
   LDIAG  =      T    sub-space diagonalisation (order eigenvalues)
   LSUBROT=      F    optimize rotation matrix (better conditioning)
   TURBO    =      0    0=normal 1=particle mesh
   IRESTART =      0    0=no restart 2=restart with 2 vectors
   NREBOOT  =      0    no. of reboots
   NMIN     =      0    reboot dimension
   EREF     =   0.00    reference energy to select bands
   IMIX   =      4    mixing-type and parameters
     AMIX     =   0.40;   BMIX     =  1.00
     AMIX_MAG =   1.60;   BMIX_MAG =  1.00
     AMIN     =   0.01
     WC   =   100.;   INIMIX=   1;  MIXPRE=   1;  MAXMIX= -45

 Intra band minimization:
   WEIMIN = 0.0010     energy-eigenvalue tresh-hold
   EBREAK =  0.63E-06  absolut break condition
   DEPER  =   0.30     relativ break condition  

   TIME   =   0.40     timestep for ELM

  volume/ion in A,a.u.               =      96.88       653.80
  Fermi-wavevector in a.u.,A,eV,Ry     =   0.640424  1.210226  5.580332  0.410143
  Thomas-Fermi vector in A             =   1.706427

 Write flags
   LWAVE        =      F    write WAVECAR
   LDOWNSAMPLE  =      F    k-point downsampling of WAVECAR
   LCHARG       =      T    write CHGCAR
   LVTOT        =      F    write LOCPOT, total local potential
   LVHAR        =      F    write LOCPOT, Hartree potential only
   LELF         =      F    write electronic localiz. function (ELF)
   LORBIT       =     11    0 simple, 1 ext, 2 COOP (PROOUT), +10 PAW based schemes


 Dipole corrections
   LMONO  =      F    monopole corrections only (constant potential shift)
   LDIPOL =      F    correct potential (dipole corrections)
   IDIPOL =      0    1-x, 2-y, 3-z, 4-all directions 
   EPSILON=  1.0000000 bulk dielectric constant

 Exchange correlation treatment:
   GGA     =    BO    GGA type
   LEXCH   =    42    internal setting for exchange type
   VOSKOWN=      0    Vosko Wilk Nusair interpolation
   LHFCALC =     F    Hartree Fock is set to
   LHFONE  =     F    Hartree Fock one center treatment
   AEXX    =    0.0000 exact exchange contribution

 vdW DFT:
   LUSE_VDW   =     T    switch on vdW DFT
   Zab_VDW    =-.8491    correlation parameter
   PARAM1     =0.1833
   PARAM2     =0.2200
   PARAM3     =0.0000
   -- rVV10 --
   BPARAM     = 6.3000
   CPARAM     = 0.0093

 Linear response parameters
   LEPSILON=     F    determine dielectric tensor
   LRPA    =     F    only Hartree local field effects (RPA)
   LNABLA  =     F    use nabla operator in PAW spheres
   LVEL    =     F    velocity operator in full k-point grid
   LINTERFAST=   F  fast interpolation
   KINTER  =     0    interpolate to denser k-point grid
   CSHIFT  =0.1000    complex shift for real part using Kramers Kronig
   OMEGAMAX=  -1.0    maximum frequency
   DEG_THRESHOLD= 0.2000000E-02 threshold for treating states as degnerate
   RTIME   =   -0.100 relaxation time in fs
  (WPLASMAI=    0.000 imaginary part of plasma frequency in eV, 0.658/RTIME)
   DFIELD  = 0.0000000 0.0000000 0.0000000 field for delta impulse in time

 Orbital magnetization related:
   ORBITALMAG=     F  switch on orbital magnetization
   LCHIMAG   =     F  perturbation theory with respect to B field
   DQ        =  0.001000  dq finite difference perturbation B field
   LLRAUG    =     F  two centre corrections for induced B field



--------------------------------------------------------------------------------------------------------


 conjugate gradient relaxation of ions
   using selective dynamics as specified on POSCAR
 charge density and potential will be updated during run
 spin polarized calculation
 Variant of blocked Davidson
 Davidson routine will perform the subspace rotation
 perform sub-space diagonalisation
    after iterative eigenvector-optimisation
 modified Broyden-mixing scheme, WC =      100.0
 initial mixing is a Kerker type mixing with AMIX =  0.4000 and BMIX =      1.0000
 Hartree-type preconditioning will be used
 using additional bands           11
 real space projection scheme for non local part
 use partial core corrections
 calculate Harris-corrections to forces   (improved forces if not selfconsistent)
 use gradient corrections 
 use of overlap-Matrix (Vanderbilt PP)
 Fermi weights with tetrahedron method with Bloechl corrections


--------------------------------------------------------------------------------------------------------


  energy-cutoff  :      520.00
  volume of cell :      968.84
      direct lattice vectors                 reciprocal lattice vectors
     6.907777000 -0.000000000  0.000000000     0.144764372 -0.083579742  0.000000000
     3.453888000  5.982310000  0.000000000     0.000000000  0.167159509 -0.000000000
     0.000000000  0.000000000 23.444588000    -0.000000000  0.000000000  0.042653767

  length of vectors
     6.907777000  6.907776433 23.444588000     0.167159495  0.167159509  0.042653767



 k-points in units of 2pi/SCALE and weight: Kpoints from vasprun.xml                
   0.00000000  0.00000000  0.00000000       0.040
   0.02895287 -0.01671595  0.00000000       0.240
   0.05790575 -0.03343190  0.00000000       0.240
   0.05790575  0.00000000  0.00000000       0.240
  -0.05790575  0.06686380  0.00000000       0.240

 k-points in reciprocal lattice and weights: Kpoints from vasprun.xml                
   0.00000000  0.00000000  0.00000000       0.040
   0.20000000  0.00000000  0.00000000       0.240
   0.40000000  0.00000000  0.00000000       0.240
   0.40000000  0.20000000  0.00000000       0.240
  -0.40000000  0.20000000  0.00000000       0.240

 position of ions in fractional coordinates (direct lattice) 
   0.33333300  0.33333300  0.49992500
   0.66666700  0.66666700  0.50007500
   0.00000000  0.00000000  0.44821600
   0.00000000  0.00000000  0.55178400
   0.62635700  0.00042000  0.57375200
   0.00042000  0.37322400  0.57375200
   0.37322400  0.62635700  0.57375200
   0.37364300  0.99958000  0.42624800
   0.99958000  0.62677600  0.42624800
   0.62677600  0.37364300  0.42624800

 position of ions in cartesian coordinates  (Angst):
   3.45388488  1.99410134 11.72053566
   6.90778012  3.98820866 11.72405234
   0.00000000  0.00000000 10.50823946
   0.00000000  0.00000000 12.93634854
   4.32818511  0.00251257 13.45137925
   1.29197516  2.23274167 13.45137925
   4.74151509  3.74706174 13.45137925
   6.03347989  5.97979743  9.99320875
   9.06968984  3.74956833  9.99320875
   5.62014991  2.23524826  9.99320875



--------------------------------------------------------------------------------------------------------


 k-point  1 :   0.0000 0.0000 0.0000  plane waves:   26073
 k-point  2 :   0.2000 0.0000 0.0000  plane waves:   26070
 k-point  3 :   0.4000 0.0000 0.0000  plane waves:   26086
 k-point  4 :   0.4000 0.2000 0.0000  plane waves:   26085
 k-point  5 :  -0.4000 0.2000 0.0000  plane waves:   26115

 maximum and minimum number of plane-waves per node :     26115    26070

 maximum number of plane-waves:     26115
 maximum index in each direction: 
   IXMAX=   13   IYMAX=   12   IZMAX=   43
   IXMIN=  -13   IYMIN=  -13   IZMIN=  -43


 serial   3D FFT for wavefunctions
 parallel 3D FFT for charge:
    minimum data exchange during FFTs selected (reduces bandwidth)


 total amount of memory used by VASP MPI-rank0   169747. kBytes
=======================================================================

   base      :      30000. kBytes
   nonlr-proj:       7947. kBytes
   fftplans  :      20284. kBytes
   grid      :      90201. kBytes
   one-center:        311. kBytes
   wavefun   :      21004. kBytes

     INWAV:  cpu time    0.0000: real time    0.0000
 Broyden mixing: mesh for mixing (old mesh)
   NGX = 25   NGY = 25   NGZ = 87
  (NGX  =108   NGY  =108   NGZ  =360)
  gives a total of  54375 points

 initial charge density was supplied:
 charge density of overlapping atoms calculated
 number of electron      58.0000000 magnetization       6.0000000
 keeping initial charge density in first step


--------------------------------------------------------------------------------------------------------


 Maximum index for non-local projection operator         7247
 Maximum index for augmentation-charges         4376 (set IRDMAX)


--------------------------------------------------------------------------------------------------------


 First call to EWALD:  gamma=   0.179
 Maximum number of real-space cells 4x 4x 1
 Maximum number of reciprocal cells 2x 2x 6

    FEWALD:  cpu time    0.0000: real time    0.0010


--------------------------------------- Iteration      1(   1)  ---------------------------------------


vdW kernel read from vdw_kernel.bindat
  0.0000  0.2424  0.5071  0.7962  1.1119  1.4567  1.8333  2.2446  2.6937  3.1842
  3.7199  4.3049  4.9438  5.6415  6.4036  7.2358  8.1446  9.1372 10.2212 11.4050
 12.6979 14.1099 15.6519 17.3360 19.1751 21.1837 23.3773 25.7729 28.3892 31.2465
 34.3669 37.7748 41.4965 45.5611 50.0000

    POTLOK:  cpu time   69.2640: real time   69.6117
    SETDIJ:  cpu time    0.0440: real time    0.0468
     EDDAV:  cpu time   17.1800: real time   17.1955
 BZINTS: Fermi energy:  7.086062; 58.000000 electrons
         Band energy:  72.027748;  BLOECHL correction: -0.068127
       DOS:  cpu time    0.0000: real time    0.0023
    --------------------------------------------
      LOOP:  cpu time   86.4880: real time   86.8563

 eigenvalue-minimisations  :   800
 total energy-change (2. order) : 0.4330789E+03  (-0.1652207E+04)
 number of electron      58.0000000 magnetization       6.0000000
 augmentation part       58.0000000 magnetization       6.0000000

 Free energy of the ion-electron system (eV)
  ---------------------------------------------------
  alpha Z        PSCENC =        12.19922354
  Ewald energy   TEWEN  =      6462.22987265
  -Hartree energ DENC   =     -8459.86008969
  -exchange      EXHF   =         0.00000000
  -V(xc)+E(xc)   XCENC  =      -209.07303687
  PAW double counting   =      1176.45125373     -876.95302009
  entropy T*S    EENTRO =         0.00000000
  eigenvalues    EBANDS =        72.02774783
  atomic energy  EATOM  =      2256.05692028
  Solvation  Ediel_sol  =         0.00000000
  ---------------------------------------------------
  free energy    TOTEN  =       433.07887137 eV

  energy without entropy =      433.07887137  energy(sigma->0) =      433.07887137


--------------------------------------------------------------------------------------------------------




--------------------------------------- Iteration      1(   2)  ---------------------------------------


     EDDAV:  cpu time   20.6600: real time   20.7303
 BZINTS: Fermi energy:  0.495182; 58.000000 electrons
         Band energy:-330.955623;  BLOECHL correction: -0.075388
       DOS:  cpu time    0.0040: real time    0.0025
    --------------------------------------------
      LOOP:  cpu time   20.6640: real time   20.7327

 eigenvalue-minimisations  :  1016
 total energy-change (2. order) :-0.4029834E+03  (-0.3844340E+03)
 number of electron      58.0000000 magnetization       6.0000000
 augmentation part       58.0000000 magnetization       6.0000000

 Free energy of the ion-electron system (eV)
  ---------------------------------------------------
  alpha Z        PSCENC =        12.19922354
  Ewald energy   TEWEN  =      6462.22987265
  -Hartree energ DENC   =     -8459.86008969
  -exchange      EXHF   =         0.00000000
  -V(xc)+E(xc)   XCENC  =      -209.07303687
  PAW double counting   =      1176.45125373     -876.95302009
  entropy T*S    EENTRO =         0.00000000
  eigenvalues    EBANDS =      -330.95562347
  atomic energy  EATOM  =      2256.05692028
  Solvation  Ediel_sol  =         0.00000000
  ---------------------------------------------------
  free energy    TOTEN  =        30.09550008 eV

  energy without entropy =       30.09550008  energy(sigma->0) =       30.09550008


--------------------------------------------------------------------------------------------------------




--------------------------------------- Iteration      1(   3)  ---------------------------------------


     EDDAV:  cpu time   21.0680: real time   21.1115
 BZINTS: Fermi energy: -1.261040; 58.000000 electrons
         Band energy:-400.538693;  BLOECHL correction: -0.072717
       DOS:  cpu time    0.0040: real time    0.0023
    --------------------------------------------
      LOOP:  cpu time   21.0720: real time   21.1139

 eigenvalue-minimisations  :  1048
 total energy-change (2. order) :-0.6958307E+02  (-0.6713839E+02)
 number of electron      58.0000000 magnetization       6.0000000
 augmentation part       58.0000000 magnetization       6.0000000

 Free energy of the ion-electron system (eV)
  ---------------------------------------------------
  alpha Z        PSCENC =        12.19922354
  Ewald energy   TEWEN  =      6462.22987265
  -Hartree energ DENC   =     -8459.86008969
  -exchange      EXHF   =         0.00000000
  -V(xc)+E(xc)   XCENC  =      -209.07303687
  PAW double counting   =      1176.45125373     -876.95302009
  entropy T*S    EENTRO =         0.00000000
  eigenvalues    EBANDS =      -400.53869308
  atomic energy  EATOM  =      2256.05692028
  Solvation  Ediel_sol  =         0.00000000
  ---------------------------------------------------
  free energy    TOTEN  =       -39.48756954 eV

  energy without entropy =      -39.48756954  energy(sigma->0) =      -39.48756954


--------------------------------------------------------------------------------------------------------




--------------------------------------- Iteration      1(   4)  ---------------------------------------


     EDDAV:  cpu time   32.9080: real time   33.1096
 BZINTS: Fermi energy: -1.739371; 58.000000 electrons
         Band energy:-405.686254;  BLOECHL correction: -0.029274
       DOS:  cpu time    0.0040: real time    0.0043
    --------------------------------------------
      LOOP:  cpu time   32.9120: real time   33.1139

 eigenvalue-minimisations  :  1208
 total energy-change (2. order) :-0.5147561E+01  (-0.4935932E+01)
 number of electron      58.0000000 magnetization       6.0000000
 augmentation part       58.0000000 magnetization       6.0000000

 Free energy of the ion-electron system (eV)
  ---------------------------------------------------
  alpha Z        PSCENC =        12.19922354
  Ewald energy   TEWEN  =      6462.22987265
  -Hartree energ DENC   =     -8459.86008969
  -exchange      EXHF   =         0.00000000
  -V(xc)+E(xc)   XCENC  =      -209.07303687
  PAW double counting   =      1176.45125373     -876.95302009
  entropy T*S    EENTRO =         0.00000000
  eigenvalues    EBANDS =      -405.68625401
  atomic energy  EATOM  =      2256.05692028
  Solvation  Ediel_sol  =         0.00000000
  ---------------------------------------------------
  free energy    TOTEN  =       -44.63513047 eV

  energy without entropy =      -44.63513047  energy(sigma->0) =      -44.63513047


--------------------------------------------------------------------------------------------------------




--------------------------------------- Iteration      1(   5)  ---------------------------------------


     EDDAV:  cpu time   29.4880: real time   29.8932
 BZINTS: Fermi energy: -1.750894; 58.000000 electrons
         Band energy:-405.909409;  BLOECHL correction: -0.029559
       DOS:  cpu time    0.0040: real time    0.0047
    CHARGE:  cpu time    2.1040: real time    2.1603
    MIXING:  cpu time    0.0480: real time    0.0476
    --------------------------------------------
      LOOP:  cpu time   31.6440: real time   32.1058

 eigenvalue-minimisations  :  1264
 total energy-change (2. order) :-0.2231551E+00  (-0.2165558E+00)
 number of electron      57.9999999 magnetization       5.8998843
 augmentation part       -5.0498211 magnetization       3.6310926

 Broyden mixing:
  rms(total) = 0.13451E+01    rms(broyden)= 0.13451E+01
  rms(prec ) = 0.14821E+01
  weight for this iteration     100.00

 Free energy of the ion-electron system (eV)
  ---------------------------------------------------
  alpha Z        PSCENC =        12.19922354
  Ewald energy   TEWEN  =      6462.22987265
  -Hartree energ DENC   =     -8459.86008969
  -exchange      EXHF   =         0.00000000
  -V(xc)+E(xc)   XCENC  =      -209.07303687
  PAW double counting   =      1176.45125373     -876.95302009
  entropy T*S    EENTRO =         0.00000000
  eigenvalues    EBANDS =      -405.90940909
  atomic energy  EATOM  =      2256.05692028
  Solvation  Ediel_sol  =         0.00000000
  ---------------------------------------------------
  free energy    TOTEN  =       -44.85828555 eV

  energy without entropy =      -44.85828555  energy(sigma->0) =      -44.85828555


--------------------------------------------------------------------------------------------------------




--------------------------------------- Iteration      1(   6)  ---------------------------------------


    POTLOK:  cpu time  108.6440: real time  109.8242
    SETDIJ:  cpu time    0.1080: real time    0.1069
     EDDAV:  cpu time   47.4800: real time   49.3041
 BZINTS: Fermi energy: -3.810423; 58.000000 electrons
         Band energy:-458.829598;  BLOECHL correction: -0.049107
       DOS:  cpu time    0.0040: real time    0.0055
    CHARGE:  cpu time    3.4200: real time    3.4257
    MIXING:  cpu time    0.0680: real time    0.0674
    --------------------------------------------
      LOOP:  cpu time  159.7240: real time  162.7338

 eigenvalue-minimisations  :  1184
 total energy-change (2. order) :-0.1816262E+02  (-0.1069456E+02)
 number of electron      57.9999996 magnetization       5.7870709
 augmentation part        4.9326509 magnetization       5.2941629

 Broyden mixing:
  rms(total) = 0.46758E+01    rms(broyden)= 0.46758E+01
  rms(prec ) = 0.52497E+01
  weight for this iteration     100.00

 eigenvalues of (default mixing * dielectric matrix)
  average eigenvalue GAMMA=   0.1886
  0.1886

 Free energy of the ion-electron system (eV)
  ---------------------------------------------------
  alpha Z        PSCENC =        12.19922354
  Ewald energy   TEWEN  =      6462.22987265
  -Hartree energ DENC   =     -8430.08023004
  -exchange      EXHF   =         0.00000000
  -V(xc)+E(xc)   XCENC  =      -208.92474371
  PAW double counting   =      1147.18360559     -842.85595254
  entropy T*S    EENTRO =         0.00000000
  eigenvalues    EBANDS =      -458.82959788
  atomic energy  EATOM  =      2256.05692028
  Solvation  Ediel_sol  =         0.00000000
  ---------------------------------------------------
  free energy    TOTEN  =       -63.02090211 eV

  energy without entropy =      -63.02090211  energy(sigma->0) =      -63.02090211


--------------------------------------------------------------------------------------------------------




--------------------------------------- Iteration      1(   7)  ---------------------------------------


    POTLOK:  cpu time  109.4080: real time  110.5358
    SETDIJ:  cpu time    0.0600: real time    0.0607
     EDDAV:  cpu time   29.3200: real time   29.5830
 BZINTS: Fermi energy: -1.831155; 58.000000 electrons
         Band energy:-403.732302;  BLOECHL correction: -0.037095
       DOS:  cpu time    0.0040: real time    0.0047
    CHARGE:  cpu time    2.1240: real time    2.1282
    MIXING:  cpu time    0.0520: real time    0.0494
    --------------------------------------------
      LOOP:  cpu time  140.9680: real time  142.3618

 eigenvalue-minimisations  :  1264
 total energy-change (2. order) : 0.2130189E+02  (-0.7837718E+01)
 number of electron      57.9999998 magnetization       5.7683175
 augmentation part       -3.3378585 magnetization       3.4217288

 Broyden mixing:
  rms(total) = 0.87900E+00    rms(broyden)= 0.87891E+00
  rms(prec ) = 0.89483E+00
  weight for this iteration     100.00

 eigenvalues of (default mixing * dielectric matrix)
  average eigenvalue GAMMA=   0.2999
  0.4277  0.1721

 Free energy of the ion-electron system (eV)
  ---------------------------------------------------
  alpha Z        PSCENC =        12.19922354
  Ewald energy   TEWEN  =      6462.22987265
  -Hartree energ DENC   =     -8458.23890380
  -exchange      EXHF   =         0.00000000
  -V(xc)+E(xc)   XCENC  =      -209.50529037
  PAW double counting   =      1203.54016763     -904.26869931
  entropy T*S    EENTRO =         0.00000000
  eigenvalues    EBANDS =      -403.73230225
  atomic energy  EATOM  =      2256.05692028
  Solvation  Ediel_sol  =         0.00000000
  ---------------------------------------------------
  free energy    TOTEN  =       -41.71901165 eV

  energy without entropy =      -41.71901165  energy(sigma->0) =      -41.71901165


--------------------------------------------------------------------------------------------------------




--------------------------------------- Iteration      1(   8)  ---------------------------------------


    POTLOK:  cpu time  103.7560: real time  104.9363
    SETDIJ:  cpu time    0.0720: real time    0.0727
     EDDAV:  cpu time   25.4400: real time   25.6853
 BZINTS: Fermi energy: -1.833266; 58.000000 electrons
         Band energy:-404.524920;  BLOECHL correction: -0.040649
       DOS:  cpu time    0.0040: real time    0.0051
    CHARGE:  cpu time    2.1000: real time    2.0994
    MIXING:  cpu time    0.0600: real time    0.0583
    --------------------------------------------
      LOOP:  cpu time  131.4320: real time  132.8570

 eigenvalue-minimisations  :  1040
 total energy-change (2. order) :-0.1387914E+01  (-0.8908366E+00)
 number of electron      57.9999998 magnetization       5.6690867
 augmentation part       -3.8418594 magnetization       3.3567646

 Broyden mixing:
  rms(total) = 0.69023E+00    rms(broyden)= 0.69022E+00
  rms(prec ) = 0.73677E+00
  weight for this iteration     100.00

 eigenvalues of (default mixing * dielectric matrix)
  average eigenvalue GAMMA=   0.5805
  1.0296  0.2011  0.5107

 Free energy of the ion-electron system (eV)
  ---------------------------------------------------
  alpha Z        PSCENC =        12.19922354
  Ewald energy   TEWEN  =      6462.22987265
  -Hartree energ DENC   =     -8459.06496496
  -exchange      EXHF   =         0.00000000
  -V(xc)+E(xc)   XCENC  =      -208.93103409
  PAW double counting   =      1211.36455817     -912.43658182
  entropy T*S    EENTRO =         0.00000000
  eigenvalues    EBANDS =      -404.52491970
  atomic energy  EATOM  =      2256.05692028
  Solvation  Ediel_sol  =         0.00000000
  ---------------------------------------------------
  free energy    TOTEN  =       -43.10692594 eV

  energy without entropy =      -43.10692594  energy(sigma->0) =      -43.10692594


--------------------------------------------------------------------------------------------------------




--------------------------------------- Iteration      1(   9)  ---------------------------------------


    POTLOK:  cpu time  103.7200: real time  104.5084
    SETDIJ:  cpu time    0.0720: real time    0.0737
     EDDAV:  cpu time   27.8360: real time   28.0601
 BZINTS: Fermi energy: -1.815317; 58.000000 electrons
         Band energy:-401.903824;  BLOECHL correction: -0.039097
       DOS:  cpu time    0.0040: real time    0.0047
    CHARGE:  cpu time    2.1000: real time    2.1101
    MIXING:  cpu time    0.0480: real time    0.0501
    --------------------------------------------
      LOOP:  cpu time  133.7800: real time  134.8071

 eigenvalue-minimisations  :  1176
 total energy-change (2. order) : 0.2409122E+00  (-0.1106047E+00)
 number of electron      57.9999998 magnetization       5.6351337
 augmentation part       -3.3012009 magnetization       3.5914496

 Broyden mixing:
  rms(total) = 0.39672E+00    rms(broyden)= 0.39672E+00
  rms(prec ) = 0.40891E+00
  weight for this iteration     100.00

 eigenvalues of (default mixing * dielectric matrix)
  average eigenvalue GAMMA=   0.8591
  1.6326  1.1858  0.1987  0.4192

 Free energy of the ion-electron system (eV)
  ---------------------------------------------------
  alpha Z        PSCENC =        12.19922354
  Ewald energy   TEWEN  =      6462.22987265
  -Hartree energ DENC   =     -8461.92781230
  -exchange      EXHF   =         0.00000000
  -V(xc)+E(xc)   XCENC  =      -208.07587704
  PAW double counting   =      1231.94637030     -933.39088674
  entropy T*S    EENTRO =         0.00000000
  eigenvalues    EBANDS =      -401.90382444
  atomic energy  EATOM  =      2256.05692028
  Solvation  Ediel_sol  =         0.00000000
  ---------------------------------------------------
  free energy    TOTEN  =       -42.86601376 eV

  energy without entropy =      -42.86601376  energy(sigma->0) =      -42.86601376


--------------------------------------------------------------------------------------------------------




--------------------------------------- Iteration      1(  10)  ---------------------------------------


    POTLOK:  cpu time  102.9280: real time  103.5284
    SETDIJ:  cpu time    0.0720: real time    0.0713
     EDDAV:  cpu time   28.9720: real time   29.1468
 BZINTS: Fermi energy: -1.794787; 58.000000 electrons
         Band energy:-400.526296;  BLOECHL correction: -0.039976
       DOS:  cpu time    0.0000: real time    0.0043
    CHARGE:  cpu time    2.0600: real time    2.0601
    MIXING:  cpu time    0.0680: real time    0.0667
    --------------------------------------------
      LOOP:  cpu time  134.1000: real time  134.8776

 eigenvalue-minimisations  :  1248
 total energy-change (2. order) :-0.4756496E-01  (-0.3214792E-01)
 number of electron      57.9999998 magnetization       5.6472448
 augmentation part       -2.9649337 magnetization       3.8101388

 Broyden mixing:
  rms(total) = 0.20482E+00    rms(broyden)= 0.20482E+00
  rms(prec ) = 0.20590E+00
  weight for this iteration     100.00

 eigenvalues of (default mixing * dielectric matrix)
  average eigenvalue GAMMA=   0.9445
  1.7207  1.7207  0.1988  0.4626  0.6194

 Free energy of the ion-electron system (eV)
  ---------------------------------------------------
  alpha Z        PSCENC =        12.19922354
  Ewald energy   TEWEN  =      6462.22987265
  -Hartree energ DENC   =     -8463.91599601
  -exchange      EXHF   =         0.00000000
  -V(xc)+E(xc)   XCENC  =      -207.20464366
  PAW double counting   =      1237.12176813     -938.87442766
  entropy T*S    EENTRO =         0.00000000
  eigenvalues    EBANDS =      -400.52629597
  atomic energy  EATOM  =      2256.05692028
  Solvation  Ediel_sol  =         0.00000000
  ---------------------------------------------------
  free energy    TOTEN  =       -42.91357871 eV

  energy without entropy =      -42.91357871  energy(sigma->0) =      -42.91357871


--------------------------------------------------------------------------------------------------------




--------------------------------------- Iteration      1(  11)  ---------------------------------------


    POTLOK:  cpu time  104.6880: real time  105.4930
    SETDIJ:  cpu time    0.0720: real time    0.0708
     EDDAV:  cpu time   29.0800: real time   29.3841
 BZINTS: Fermi energy: -1.787876; 58.000000 electrons
         Band energy:-400.350535;  BLOECHL correction: -0.041183
       DOS:  cpu time    0.0040: real time    0.0043
    CHARGE:  cpu time    2.0640: real time    2.0657
    MIXING:  cpu time    0.0640: real time    0.0645
    --------------------------------------------
      LOOP:  cpu time  135.9720: real time  137.0825

 eigenvalue-minimisations  :  1240
 total energy-change (2. order) :-0.3404673E-01  (-0.3079738E-02)
 number of electron      57.9999998 magnetization       5.6712877
 augmentation part       -2.9600666 magnetization       3.9112280

 Broyden mixing:
  rms(total) = 0.12705E+00    rms(broyden)= 0.12705E+00
  rms(prec ) = 0.12810E+00
  weight for this iteration     100.00

 eigenvalues of (default mixing * dielectric matrix)
  average eigenvalue GAMMA=   1.1103
  2.1920  2.1920  0.1988  0.4415  0.8579  0.7797

 Free energy of the ion-electron system (eV)
  ---------------------------------------------------
  alpha Z        PSCENC =        12.19922354
  Ewald energy   TEWEN  =      6462.22987265
  -Hartree energ DENC   =     -8464.43605717
  -exchange      EXHF   =         0.00000000
  -V(xc)+E(xc)   XCENC  =      -206.79853723
  PAW double counting   =      1235.93116994     -937.77968213
  entropy T*S    EENTRO =         0.00000000
  eigenvalues    EBANDS =      -400.35053531
  atomic energy  EATOM  =      2256.05692028
  Solvation  Ediel_sol  =         0.00000000
  ---------------------------------------------------
  free energy    TOTEN  =       -42.94762544 eV

  energy without entropy =      -42.94762544  energy(sigma->0) =      -42.94762544


--------------------------------------------------------------------------------------------------------




--------------------------------------- Iteration      1(  12)  ---------------------------------------


    POTLOK:  cpu time  104.4440: real time  104.9838
    SETDIJ:  cpu time    0.0680: real time    0.0673
     EDDAV:  cpu time   28.9320: real time   29.1163
 BZINTS: Fermi energy: -1.788536; 58.000000 electrons
         Band energy:-400.455815;  BLOECHL correction: -0.042074
       DOS:  cpu time    0.0040: real time    0.0049
    CHARGE:  cpu time    2.0840: real time    2.1458
    MIXING:  cpu time    0.0560: real time    0.0529
    --------------------------------------------
      LOOP:  cpu time  135.5880: real time  136.3710

 eigenvalue-minimisations  :  1224
 total energy-change (2. order) :-0.6480295E-02  (-0.1222308E-02)
 number of electron      57.9999998 magnetization       5.6995523
 augmentation part       -2.9786456 magnetization       3.9932403

 Broyden mixing:
  rms(total) = 0.48180E-01    rms(broyden)= 0.48180E-01
  rms(prec ) = 0.49385E-01
  weight for this iteration     100.00

 eigenvalues of (default mixing * dielectric matrix)
  average eigenvalue GAMMA=   1.1733
  2.3254  2.3254  1.4053  0.1988  0.4424  0.7579  0.7579

 Free energy of the ion-electron system (eV)
  ---------------------------------------------------
  alpha Z        PSCENC =        12.19922354
  Ewald energy   TEWEN  =      6462.22987265
  -Hartree energ DENC   =     -8464.59388245
  -exchange      EXHF   =         0.00000000
  -V(xc)+E(xc)   XCENC  =      -206.42899005
  PAW double counting   =      1234.58950817     -936.55094255
  entropy T*S    EENTRO =         0.00000000
  eigenvalues    EBANDS =      -400.45581531
  atomic energy  EATOM  =      2256.05692028
  Solvation  Ediel_sol  =         0.00000000
  ---------------------------------------------------
  free energy    TOTEN  =       -42.95410574 eV

  energy without entropy =      -42.95410574  energy(sigma->0) =      -42.95410574


--------------------------------------------------------------------------------------------------------




--------------------------------------- Iteration      1(  13)  ---------------------------------------


    POTLOK:  cpu time  104.9240: real time  105.5249
    SETDIJ:  cpu time    0.0680: real time    0.0676
     EDDAV:  cpu time   27.3960: real time   27.6032
 BZINTS: Fermi energy: -1.791144; 58.000000 electrons
         Band energy:-400.765356;  BLOECHL correction: -0.042257
       DOS:  cpu time    0.0000: real time    0.0044
    CHARGE:  cpu time    2.0360: real time    2.0351
    MIXING:  cpu time    0.0680: real time    0.0700
    --------------------------------------------
      LOOP:  cpu time  134.4920: real time  135.3052

 eigenvalue-minimisations  :  1160
 total energy-change (2. order) :-0.1537698E-02  (-0.5673215E-03)
 number of electron      57.9999998 magnetization       5.7229758
 augmentation part       -2.9933752 magnetization       4.0290740

 Broyden mixing:
  rms(total) = 0.27493E-01    rms(broyden)= 0.27493E-01
  rms(prec ) = 0.28677E-01
  weight for this iteration     100.00

 eigenvalues of (default mixing * dielectric matrix)
  average eigenvalue GAMMA=   1.2222
  2.4853  2.4853  1.7704  0.1988  1.0011  0.4423  0.7353  0.6594

 Free energy of the ion-electron system (eV)
  ---------------------------------------------------
  alpha Z        PSCENC =        12.19922354
  Ewald energy   TEWEN  =      6462.22987265
  -Hartree energ DENC   =     -8464.38973705
  -exchange      EXHF   =         0.00000000
  -V(xc)+E(xc)   XCENC  =      -206.31262851
  PAW double counting   =      1234.32980930     -936.30374771
  entropy T*S    EENTRO =         0.00000000
  eigenvalues    EBANDS =      -400.76535592
  atomic energy  EATOM  =      2256.05692028
  Solvation  Ediel_sol  =         0.00000000
  ---------------------------------------------------
  free energy    TOTEN  =       -42.95564343 eV

  energy without entropy =      -42.95564343  energy(sigma->0) =      -42.95564343


--------------------------------------------------------------------------------------------------------




--------------------------------------- Iteration      1(  14)  ---------------------------------------


    POTLOK:  cpu time  103.2200: real time  103.8216
    SETDIJ:  cpu time    0.0600: real time    0.0627
     EDDAV:  cpu time   26.0640: real time   26.4591
 BZINTS: Fermi energy: -1.789897; 58.000000 electrons
         Band energy:-400.762892;  BLOECHL correction: -0.042235
       DOS:  cpu time    0.0040: real time    0.0051
    CHARGE:  cpu time    2.0040: real time    2.0784
    MIXING:  cpu time    0.0520: real time    0.0523
    --------------------------------------------
      LOOP:  cpu time  131.4040: real time  132.4792

 eigenvalue-minimisations  :  1104
 total energy-change (2. order) : 0.2297102E-03  (-0.1347494E-03)
 number of electron      57.9999998 magnetization       5.7414314
 augmentation part       -2.9906372 magnetization       4.0514246

 Broyden mixing:
  rms(total) = 0.15155E-01    rms(broyden)= 0.15155E-01
  rms(prec ) = 0.16242E-01
  weight for this iteration     100.00

 eigenvalues of (default mixing * dielectric matrix)
  average eigenvalue GAMMA=   1.2292
  2.5460  2.5460  1.9843  0.1988  0.9739  0.9739  0.4424  0.7548  0.6425

 Free energy of the ion-electron system (eV)
  ---------------------------------------------------
  alpha Z        PSCENC =        12.19922354
  Ewald energy   TEWEN  =      6462.22987265
  -Hartree energ DENC   =     -8464.42904547
  -exchange      EXHF   =         0.00000000
  -V(xc)+E(xc)   XCENC  =      -206.25255461
  PAW double counting   =      1234.02415018     -936.02108838
  entropy T*S    EENTRO =         0.00000000
  eigenvalues    EBANDS =      -400.76289190
  atomic energy  EATOM  =      2256.05692028
  Solvation  Ediel_sol  =         0.00000000
  ---------------------------------------------------
  free energy    TOTEN  =       -42.95541372 eV

  energy without entropy =      -42.95541372  energy(sigma->0) =      -42.95541372


--------------------------------------------------------------------------------------------------------




--------------------------------------- Iteration      1(  15)  ---------------------------------------


    POTLOK:  cpu time  104.9800: real time  105.5871
    SETDIJ:  cpu time    0.0720: real time    0.0714
     EDDAV:  cpu time   20.1960: real time   20.3397
 BZINTS: Fermi energy: -1.785146; 58.000000 electrons
         Band energy:-400.539074;  BLOECHL correction: -0.042259
       DOS:  cpu time    0.0040: real time    0.0049
    CHARGE:  cpu time    2.0760: real time    2.0777
    MIXING:  cpu time    0.0600: real time    0.0596
    --------------------------------------------
      LOOP:  cpu time  127.3880: real time  128.1405

 eigenvalue-minimisations  :   784
 total energy-change (2. order) :-0.2636421E-02  (-0.1112023E-03)
 number of electron      57.9999998 magnetization       5.7818351
 augmentation part       -2.9840294 magnetization       4.0973325

 Broyden mixing:
  rms(total) = 0.92198E-02    rms(broyden)= 0.92198E-02
  rms(prec ) = 0.10238E-01
  weight for this iteration     100.00

 eigenvalues of (default mixing * dielectric matrix)
  average eigenvalue GAMMA=   1.3297
  2.9639  2.9639  1.7888  1.7888  0.1988  0.4423  0.8980  0.8980  0.7112  0.6436

 Free energy of the ion-electron system (eV)
  ---------------------------------------------------
  alpha Z        PSCENC =        12.19922354
  Ewald energy   TEWEN  =      6462.22987265
  -Hartree energ DENC   =     -8464.67987634
  -exchange      EXHF   =         0.00000000
  -V(xc)+E(xc)   XCENC  =      -206.21589408
  PAW double counting   =      1234.21647384     -936.22569603
  entropy T*S    EENTRO =         0.00000000
  eigenvalues    EBANDS =      -400.53907400
  atomic energy  EATOM  =      2256.05692028
  Solvation  Ediel_sol  =         0.00000000
  ---------------------------------------------------
  free energy    TOTEN  =       -42.95805015 eV

  energy without entropy =      -42.95805015  energy(sigma->0) =      -42.95805015


--------------------------------------------------------------------------------------------------------




--------------------------------------- Iteration      1(  16)  ---------------------------------------


    POTLOK:  cpu time  103.1640: real time  103.8374
    SETDIJ:  cpu time    0.0600: real time    0.0599
     EDDAV:  cpu time   20.8960: real time   20.9387
 BZINTS: Fermi energy: -1.773841; 58.000000 electrons
         Band energy:-399.955775;  BLOECHL correction: -0.042174
       DOS:  cpu time    0.0000: real time    0.0042
    CHARGE:  cpu time    2.0560: real time    2.0630
    MIXING:  cpu time    0.0720: real time    0.0699
    --------------------------------------------
      LOOP:  cpu time  126.2480: real time  126.9732

 eigenvalue-minimisations  :   808
 total energy-change (2. order) : 0.3881142E-02  (-0.6111027E-04)
 number of electron      57.9999998 magnetization       5.8162863
 augmentation part       -2.9776823 magnetization       4.1305946

 Broyden mixing:
  rms(total) = 0.56285E-02    rms(broyden)= 0.56285E-02
  rms(prec ) = 0.67820E-02
  weight for this iteration     100.00

 eigenvalues of (default mixing * dielectric matrix)
  average eigenvalue GAMMA=   1.4434
  4.1304  2.9610  2.0158  2.0158  0.1988  1.0080  1.0080  0.4423  0.7764  0.7005
  0.6205

 Free energy of the ion-electron system (eV)
  ---------------------------------------------------
  alpha Z        PSCENC =        12.19922354
  Ewald energy   TEWEN  =      6462.22987265
  -Hartree energ DENC   =     -8465.26561538
  -exchange      EXHF   =         0.00000000
  -V(xc)+E(xc)   XCENC  =      -206.20106034
  PAW double counting   =      1234.43707960     -936.45481451
  entropy T*S    EENTRO =         0.00000000
  eigenvalues    EBANDS =      -399.95577483
  atomic energy  EATOM  =      2256.05692028
  Solvation  Ediel_sol  =         0.00000000
  ---------------------------------------------------
  free energy    TOTEN  =       -42.95416900 eV

  energy without entropy =      -42.95416900  energy(sigma->0) =      -42.95416900


--------------------------------------------------------------------------------------------------------




--------------------------------------- Iteration      1(  17)  ---------------------------------------


    POTLOK:  cpu time  103.0480: real time  103.5051
    SETDIJ:  cpu time    0.0840: real time    0.0832
     EDDAV:  cpu time   20.5160: real time   20.8429
 BZINTS: Fermi energy: -1.762776; 58.000000 electrons
         Band energy:-399.357307;  BLOECHL correction: -0.042164
       DOS:  cpu time    0.0040: real time    0.0044
    CHARGE:  cpu time    2.0560: real time    2.0559
    MIXING:  cpu time    0.0720: real time    0.0718
    --------------------------------------------
      LOOP:  cpu time  125.7800: real time  126.5633

 eigenvalue-minimisations  :   808
 total energy-change (2. order) :-0.1450923E-02  (-0.7629094E-04)
 number of electron      57.9999998 magnetization       5.8371853
 augmentation part       -2.9756928 magnetization       4.1517389

 Broyden mixing:
  rms(total) = 0.33016E-02    rms(broyden)= 0.33016E-02
  rms(prec ) = 0.47207E-02
  weight for this iteration     100.00

 eigenvalues of (default mixing * dielectric matrix)
  average eigenvalue GAMMA=   1.5741
  5.8763  2.7922  2.0204  2.0204  1.5786  0.1988  0.4423  0.9374  0.9374  0.7859
  0.6770  0.6222

 Free energy of the ion-electron system (eV)
  ---------------------------------------------------
  alpha Z        PSCENC =        12.19922354
  Ewald energy   TEWEN  =      6462.22987265
  -Hartree energ DENC   =     -8465.87360736
  -exchange      EXHF   =         0.00000000
  -V(xc)+E(xc)   XCENC  =      -206.18983462
  PAW double counting   =      1234.60382137     -936.62470912
  entropy T*S    EENTRO =         0.00000000
  eigenvalues    EBANDS =      -399.35730666
  atomic energy  EATOM  =      2256.05692028
  Solvation  Ediel_sol  =         0.00000000
  ---------------------------------------------------
  free energy    TOTEN  =       -42.95561993 eV

  energy without entropy =      -42.95561993  energy(sigma->0) =      -42.95561993


--------------------------------------------------------------------------------------------------------




--------------------------------------- Iteration      1(  18)  ---------------------------------------


    POTLOK:  cpu time  101.1280: real time  102.1435
    SETDIJ:  cpu time    0.0720: real time    0.0722
     EDDAV:  cpu time   20.9640: real time   21.3089
 BZINTS: Fermi energy: -1.754995; 58.000000 electrons
         Band energy:-398.924065;  BLOECHL correction: -0.042160
       DOS:  cpu time    0.0040: real time    0.0053
    CHARGE:  cpu time    2.0600: real time    2.0809
    MIXING:  cpu time    0.0600: real time    0.0610
    --------------------------------------------
      LOOP:  cpu time  124.2880: real time  125.6719

 eigenvalue-minimisations  :   832
 total energy-change (2. order) :-0.1015970E-02  (-0.3249717E-04)
 number of electron      57.9999998 magnetization       5.8520667
 augmentation part       -2.9754483 magnetization       4.1663847

 Broyden mixing:
  rms(total) = 0.23455E-02    rms(broyden)= 0.23455E-02
  rms(prec ) = 0.38171E-02
  weight for this iteration     100.00

 eigenvalues of (default mixing * dielectric matrix)
  average eigenvalue GAMMA=   1.7879
  8.2629  3.0631  2.4368  1.9528  1.9528  0.1988  0.4423  1.0144  0.9429  0.9429
  0.7422  0.6651  0.6258

 Free energy of the ion-electron system (eV)
  ---------------------------------------------------
  alpha Z        PSCENC =        12.19922354
  Ewald energy   TEWEN  =      6462.22987265
  -Hartree energ DENC   =     -8466.31914561
  -exchange      EXHF   =         0.00000000
  -V(xc)+E(xc)   XCENC  =      -206.18102006
  PAW double counting   =      1234.55965808     -936.57807963
  entropy T*S    EENTRO =         0.00000000
  eigenvalues    EBANDS =      -398.92406514
  atomic energy  EATOM  =      2256.05692028
  Solvation  Ediel_sol  =         0.00000000
  ---------------------------------------------------
  free energy    TOTEN  =       -42.95663590 eV

  energy without entropy =      -42.95663590  energy(sigma->0) =      -42.95663590


--------------------------------------------------------------------------------------------------------




--------------------------------------- Iteration      1(  19)  ---------------------------------------


    POTLOK:  cpu time  101.3520: real time  101.8737
    SETDIJ:  cpu time    0.0440: real time    0.0730
     EDDAV:  cpu time   18.6320: real time   18.7394
 BZINTS: Fermi energy: -1.747658; 58.000000 electrons
         Band energy:-398.500260;  BLOECHL correction: -0.042144
       DOS:  cpu time    0.0040: real time    0.0041
    CHARGE:  cpu time    2.0640: real time    2.0902
    MIXING:  cpu time    0.0640: real time    0.0661
    --------------------------------------------
      LOOP:  cpu time  122.1600: real time  122.8465

 eigenvalue-minimisations  :   688
 total energy-change (2. order) :-0.6062683E-03  (-0.1208322E-04)
 number of electron      57.9999998 magnetization       5.8546630
 augmentation part       -2.9768297 magnetization       4.1675438

 Broyden mixing:
  rms(total) = 0.12241E-02    rms(broyden)= 0.12241E-02
  rms(prec ) = 0.28325E-02
  weight for this iteration     100.00

 eigenvalues of (default mixing * dielectric matrix)
  average eigenvalue GAMMA=   1.8224
  9.4312  3.0654  2.5881  1.9984  1.9984  0.1988  0.4423  1.0262  1.0262  0.9623
  0.7807  0.7267  0.6242  0.6440

 Free energy of the ion-electron system (eV)
  ---------------------------------------------------
  alpha Z        PSCENC =        12.19922354
  Ewald energy   TEWEN  =      6462.22987265
  -Hartree energ DENC   =     -8466.74953482
  -exchange      EXHF   =         0.00000000
  -V(xc)+E(xc)   XCENC  =      -206.18010668
  PAW double counting   =      1234.40274961     -936.41610627
  entropy T*S    EENTRO =         0.00000000
  eigenvalues    EBANDS =      -398.50026046
  atomic energy  EATOM  =      2256.05692028
  Solvation  Ediel_sol  =         0.00000000
  ---------------------------------------------------
  free energy    TOTEN  =       -42.95724217 eV

  energy without entropy =      -42.95724217  energy(sigma->0) =      -42.95724217


--------------------------------------------------------------------------------------------------------




--------------------------------------- Iteration      1(  20)  ---------------------------------------


    POTLOK:  cpu time  101.9600: real time  102.2358
    SETDIJ:  cpu time    0.0600: real time    0.0616
     EDDAV:  cpu time   19.1160: real time   19.2849
 BZINTS: Fermi energy: -1.744781; 58.000000 electrons
         Band energy:-398.337635;  BLOECHL correction: -0.042144
       DOS:  cpu time    0.0040: real time    0.0054
    CHARGE:  cpu time    2.0920: real time    2.1064
    MIXING:  cpu time    0.0680: real time    0.0657
    --------------------------------------------
      LOOP:  cpu time  123.3000: real time  123.7597

 eigenvalue-minimisations  :   720
 total energy-change (2. order) :-0.1181872E-03  (-0.5282330E-05)
 number of electron      57.9999998 magnetization       5.8562343
 augmentation part       -2.9770966 magnetization       4.1691512

 Broyden mixing:
  rms(total) = 0.11796E-02    rms(broyden)= 0.11796E-02
  rms(prec ) = 0.26693E-02
  weight for this iteration     100.00

 eigenvalues of (default mixing * dielectric matrix)
  average eigenvalue GAMMA=   1.7954
  9.6163  3.1224  2.5117  2.0172  2.0172  0.1988  1.2244  1.0694  1.0694  0.4423
  0.8382  0.8382  0.6963  0.6306  0.6392

 Free energy of the ion-electron system (eV)
  ---------------------------------------------------
  alpha Z        PSCENC =        12.19922354
  Ewald energy   TEWEN  =      6462.22987265
  -Hartree energ DENC   =     -8466.91471291
  -exchange      EXHF   =         0.00000000
  -V(xc)+E(xc)   XCENC  =      -206.17800413
  PAW double counting   =      1234.36998964     -936.38301406
  entropy T*S    EENTRO =         0.00000000
  eigenvalues    EBANDS =      -398.33763535
  atomic energy  EATOM  =      2256.05692028
  Solvation  Ediel_sol  =         0.00000000
  ---------------------------------------------------
  free energy    TOTEN  =       -42.95736035 eV

  energy without entropy =      -42.95736035  energy(sigma->0) =      -42.95736035


--------------------------------------------------------------------------------------------------------




--------------------------------------- Iteration      1(  21)  ---------------------------------------


    POTLOK:  cpu time  102.3480: real time  102.8243
    SETDIJ:  cpu time    0.0680: real time    0.0687
     EDDAV:  cpu time   19.4960: real time   19.6520
 BZINTS: Fermi energy: -1.737592; 58.000000 electrons
         Band energy:-397.925887;  BLOECHL correction: -0.042143
       DOS:  cpu time    0.0000: real time    0.0045
    CHARGE:  cpu time    2.0240: real time    2.0517
    MIXING:  cpu time    0.0840: real time    0.0867
    --------------------------------------------
      LOOP:  cpu time  124.0200: real time  124.6878

 eigenvalue-minimisations  :   736
 total energy-change (2. order) :-0.1533361E-03  (-0.1158093E-04)
 number of electron      57.9999998 magnetization       5.8573197
 augmentation part       -2.9768180 magnetization       4.1705025

 Broyden mixing:
  rms(total) = 0.15448E-02    rms(broyden)= 0.15448E-02
  rms(prec ) = 0.25533E-02
  weight for this iteration     100.00

 eigenvalues of (default mixing * dielectric matrix)
  average eigenvalue GAMMA=   1.8003
  9.7656  3.0931  2.4590  2.4590  1.9073  1.9073  0.1988  1.0677  1.0677  0.4423
  0.8754  0.8754  0.7428  0.6823  0.6305  0.6305

 Free energy of the ion-electron system (eV)
  ---------------------------------------------------
  alpha Z        PSCENC =        12.19922354
  Ewald energy   TEWEN  =      6462.22987265
  -Hartree energ DENC   =     -8467.32929973
  -exchange      EXHF   =         0.00000000
  -V(xc)+E(xc)   XCENC  =      -206.17311439
  PAW double counting   =      1234.30976280     -936.32499141
  entropy T*S    EENTRO =         0.00000000
  eigenvalues    EBANDS =      -397.92588742
  atomic energy  EATOM  =      2256.05692028
  Solvation  Ediel_sol  =         0.00000000
  ---------------------------------------------------
  free energy    TOTEN  =       -42.95751369 eV

  energy without entropy =      -42.95751369  energy(sigma->0) =      -42.95751369


--------------------------------------------------------------------------------------------------------




--------------------------------------- Iteration      1(  22)  ---------------------------------------


    POTLOK:  cpu time  102.3720: real time  103.0372
    SETDIJ:  cpu time    0.0760: real time    0.0741
     EDDAV:  cpu time   19.8480: real time   20.0144
 BZINTS: Fermi energy: -1.728707; 58.000000 electrons
         Band energy:-397.410882;  BLOECHL correction: -0.042150
       DOS:  cpu time    0.0040: real time    0.0038
    --------------------------------------------
      LOOP:  cpu time  122.3000: real time  123.1295

 eigenvalue-minimisations  :   760
 total energy-change (2. order) :-0.4107419E-04  (-0.9286185E-05)
 number of electron      57.9999998 magnetization       5.8573197
 augmentation part       -2.9768180 magnetization       4.1705025

 Free energy of the ion-electron system (eV)
  ---------------------------------------------------
  alpha Z        PSCENC =        12.19922354
  Ewald energy   TEWEN  =      6462.22987265
  -Hartree energ DENC   =     -8467.84809613
  -exchange      EXHF   =         0.00000000
  -V(xc)+E(xc)   XCENC  =      -206.16754790
  PAW double counting   =      1234.25703972     -936.27408480
  entropy T*S    EENTRO =         0.00000000
  eigenvalues    EBANDS =      -397.41088211
  atomic energy  EATOM  =      2256.05692028
  Solvation  Ediel_sol  =         0.00000000
  ---------------------------------------------------
  free energy    TOTEN  =       -42.95755476 eV

  energy without entropy =      -42.95755476  energy(sigma->0) =      -42.95755476


--------------------------------------------------------------------------------------------------------




 average (electrostatic) potential at core
  the test charge radii are     1.1394  0.9587  1.1897
  (the norm of the test charge is              1.0000)
       1 -50.5821       2 -50.5821       3 -91.9224       4 -91.9224       5 -96.5487
       6 -96.5487       7 -96.5487       8 -96.5487       9 -96.5487      10 -96.5487



 E-fermi :  -1.7287     XC(G=0):  -3.6320     alpha+bet : -3.0669


 spin component 1

 k-point     1 :       0.0000    0.0000    0.0000
  band No.  band energies     occupation 
      1     -15.3068      1.00000
      2     -14.1469      1.00000
      3     -12.7768      1.00000
      4     -12.7768      1.00000
      5     -12.7310      1.00000
      6     -12.7309      1.00000
      7     -12.3423      1.00000
      8     -10.6257      1.00000
      9      -7.0247      1.00000
     10      -7.0247      1.00000
     11      -6.8939      1.00000
     12      -6.6346      1.00000
     13      -6.4893      1.00000
     14      -6.4892      1.00000
     15      -5.3893      1.00000
     16      -4.9121      1.00000
     17      -4.4977      1.00000
     18      -4.4977      1.00000
     19      -4.2200      1.00000
     20      -4.2200      1.00000
     21      -3.8035      1.00000
     22      -3.8035      1.00000
     23      -3.6659      1.00000
     24      -3.2550      1.00000
     25      -3.2550      1.00000
     26      -3.2150      1.00000
     27      -3.1794      1.00000
     28      -3.1794      1.00000
     29      -3.1500      1.00000
     30      -2.4461      1.00000
     31      -2.4460      1.00000
     32      -1.4937     -0.26585
     33      -1.2382      0.00000
     34      -1.2381      0.00000
     35      -1.2245      0.00000
     36      -0.5156      0.00000
     37      -0.5156      0.00000
     38      -0.1073      0.00000
     39      -0.1073      0.00000
     40       0.3059      0.00000

 k-point     2 :       0.2000    0.0000    0.0000
  band No.  band energies     occupation 
      1     -15.2231      1.00000
      2     -14.0639      1.00000
      3     -13.1722      1.00000
      4     -12.8980      1.00000
      5     -12.8524      1.00000
      6     -12.7847      1.00000
      7     -11.9415      1.00000
      8     -10.5746      1.00000
      9      -7.0108      1.00000
     10      -7.0040      1.00000
     11      -6.7813      1.00000
     12      -6.6448      1.00000
     13      -6.1683      1.00000
     14      -5.8181      1.00000
     15      -5.1911      1.00000
     16      -5.1292      1.00000
     17      -4.6586      1.00000
     18      -4.5397      1.00000
     19      -4.2048      1.00000
     20      -4.1166      1.00000
     21      -4.0706      1.00000
     22      -4.0560      1.00000
     23      -3.9427      1.00000
     24      -3.5217      1.00000
     25      -3.4471      1.00000
     26      -3.2463      1.00000
     27      -3.2388      1.00000
     28      -3.1411      1.00000
     29      -3.0089      1.00000
     30      -2.7337      1.00000
     31      -2.6218      1.00000
     32      -1.7914      0.89937
     33      -1.1210      0.00000
     34      -1.1038      0.00000
     35      -0.9406      0.00000
     36      -0.8154      0.00000
     37      -0.5723      0.00000
     38      -0.1446      0.00000
     39       0.1504      0.00000
     40       0.3508      0.00000

 k-point     3 :       0.4000    0.0000    0.0000
  band No.  band energies     occupation 
      1     -15.0510      1.00000
      2     -13.8818      1.00000
      3     -13.6134      1.00000
      4     -13.0699      1.00000
      5     -12.9749      1.00000
      6     -12.9484      1.00000
      7     -11.5912      1.00000
      8     -10.4729      1.00000
      9      -6.9462      1.00000
     10      -6.8711      1.00000
[...]
     18      -4.4732      1.00000
     19      -4.3227      1.00000
     20      -3.9728      1.00000
     21      -3.5507      1.00000
     22      -3.3405      1.00000
     23      -3.2695      1.00000
     24      -3.0982      1.00000
     25      -2.9352      1.00000
     26      -2.0195      1.05862
     27      -1.3377      0.11408
     28      -0.9150      0.00000
     29      -0.9026      0.00000
     30      -0.4007      0.00000
     31      -0.3779      0.00000
     32      -0.2839      0.00000
     33      -0.0764      0.00000
     34       0.1369      0.00000
     35       0.1523      0.00000
     36       0.5103      0.00000
     37       0.5448      0.00000
     38       0.6885      0.00000
     39       0.9344      0.00000
     40       1.1210      0.00000

 k-point     5 :      -0.4000    0.2000    0.0000
  band No.  band energies     occupation 
      1     -15.2608      1.00000
      2     -13.6458      1.00000
      3     -13.5786      1.00000
      4     -13.2568      1.00000
      5     -12.9796      1.00000
      6     -12.8388      1.00000
      7     -11.5784      1.00000
      8     -10.1023      1.00000
      9      -6.8789      1.00000
     10      -6.5666      1.00000
     11      -6.4972      1.00000
     12      -5.9979      1.00000
     13      -5.6132      1.00000
     14      -5.1846      1.00000
     15      -4.8052      1.00000
     16      -4.6074      1.00000
     17      -4.4361      1.00000
     18      -4.4084      1.00000
     19      -4.2633      1.00000
     20      -4.0402      1.00000
     21      -3.5935      1.00000
     22      -3.5614      1.00000
     23      -3.1730      1.00000
     24      -3.0245      1.00000
     25      -2.9746      1.00000
     26      -2.3683      1.00000
     27      -1.6882      0.98426
     28      -1.1652      0.00000
     29      -0.9281      0.00000
     30      -0.4822      0.00000
     31      -0.4084      0.00000
     32      -0.2775      0.00000
     33      -0.0685      0.00000
     34       0.0764      0.00000
     35       0.1680      0.00000
     36       0.5136      0.00000
     37       0.5972      0.00000
     38       0.6682      0.00000
     39       0.9941      0.00000
     40       1.0176      0.00000


--------------------------------------------------------------------------------------------------------


 soft charge-density along one line, spin component           1
         0         1         2         3         4         5         6         7         8         9
 total charge-density along one line

 soft charge-density along one line, spin component           2
         0         1         2         3         4         5         6         7         8         9
 total charge-density along one line

 pseudopotential strength for first ion, spin component:           1
 -8.322   0.071   0.000  -0.000   0.000   0.555  -0.019   0.000
  0.071  -8.234   0.000   0.000  -0.000  -0.019   0.531  -0.000
  0.000   0.000  -8.393   0.000   0.000   0.000  -0.000   0.574
 -0.000   0.000   0.000  -8.234  -0.071   0.000  -0.000  -0.000
  0.000  -0.000   0.000  -0.071  -8.322  -0.000   0.000  -0.000
  0.555  -0.019   0.000   0.000  -0.000   0.398   0.005  -0.000
 -0.019   0.531  -0.000  -0.000   0.000   0.005   0.404   0.000
  0.000  -0.000   0.574  -0.000  -0.000  -0.000   0.000   0.393
  0.000  -0.000  -0.000   0.531   0.019  -0.000   0.000   0.000
 -0.000   0.000  -0.000   0.019   0.555   0.000  -0.000   0.000
 -0.000  -0.000  -0.001  -0.000   0.000  -0.000   0.000   0.000
  0.000   0.000   0.000   0.000  -0.000  -0.000  -0.000  -0.000
  0.000   0.000   0.000  -0.000   0.001  -0.000  -0.000  -0.000
 -0.000  -0.000   0.000  -0.000  -0.000   0.000   0.000  -0.000
  0.001  -0.000   0.000   0.000  -0.000  -0.000   0.000  -0.000
 -0.000  -0.000  -0.000   0.000  -0.001   0.000   0.000   0.000
  0.000   0.000  -0.000   0.000   0.000  -0.000  -0.000   0.000
 -0.001   0.000  -0.000  -0.000   0.000   0.000  -0.000   0.000
 pseudopotential strength for first ion, spin component:           2
 -6.739  -0.136  -0.000   0.000  -0.000   0.108   0.035   0.000
 -0.136  -6.900   0.000   0.000   0.000   0.035   0.150  -0.000
 -0.000   0.000  -6.607   0.000   0.000   0.000  -0.000   0.074
  0.000   0.000   0.000  -6.900   0.136  -0.000  -0.000  -0.000
 -0.000   0.000   0.000   0.136  -6.739   0.000  -0.000  -0.000
  0.108   0.035   0.000  -0.000   0.000   0.520  -0.009  -0.000
  0.035   0.150  -0.000  -0.000  -0.000  -0.009   0.510   0.000
  0.000  -0.000   0.074  -0.000  -0.000  -0.000   0.000   0.529
 -0.000  -0.000  -0.000   0.150  -0.035   0.000   0.000   0.000
  0.000  -0.000  -0.000  -0.035   0.108  -0.000   0.000   0.000
 -0.000  -0.000   0.004  -0.000   0.000  -0.000   0.000  -0.000
  0.000   0.000  -0.000   0.000  -0.000  -0.000  -0.000   0.000
  0.000   0.000   0.000  -0.000   0.001  -0.000  -0.000  -0.000
 -0.000  -0.000   0.000  -0.000   0.000   0.000   0.000  -0.000
  0.001  -0.000   0.000   0.000  -0.000  -0.000   0.000  -0.000
 -0.000  -0.000  -0.000   0.000  -0.001   0.000   0.000   0.000
  0.000   0.000  -0.000   0.000  -0.000  -0.000  -0.000   0.000
 -0.001   0.000  -0.000  -0.000   0.000   0.000  -0.000   0.000
 total augmentation occupancy for first ion, spin component:           1
  0.987  -0.037   0.000   0.000  -0.000   0.065   0.173  -0.000  -0.000   0.000  -0.000  -0.000   0.000   0.000   0.011   0.000
 -0.037   0.977  -0.000  -0.000   0.000   0.173   0.263   0.000   0.000  -0.000   0.000  -0.000   0.000   0.000  -0.006   0.000
  0.000  -0.000   1.019  -0.000  -0.000  -0.000   0.000  -0.076   0.000   0.000  -0.002  -0.013  -0.000   0.000   0.000  -0.000
  0.000  -0.000  -0.000   0.977   0.037  -0.000  -0.000   0.000   0.263  -0.173  -0.000   0.000   0.006   0.000   0.000   0.000
 -0.000   0.000  -0.000   0.037   0.987  -0.000  -0.000   0.000  -0.173   0.065   0.000   0.000   0.011  -0.000  -0.000   0.000
  0.065   0.173  -0.000  -0.000  -0.000   0.136   0.078   0.000  -0.000  -0.000   0.000  -0.000  -0.000   0.000   0.018   0.000
  0.173   0.263   0.000  -0.000  -0.000   0.078   0.219   0.000  -0.000  -0.000   0.000  -0.000   0.000  -0.000  -0.002   0.000
 -0.000   0.000  -0.076   0.000   0.000   0.000   0.000   0.117   0.000  -0.000   0.042  -0.008  -0.000   0.001   0.000   0.000
 -0.000   0.000   0.000   0.263  -0.173  -0.000  -0.000   0.000   0.219  -0.078  -0.000  -0.000   0.002   0.000   0.000  -0.000
  0.000  -0.000   0.000  -0.173   0.065  -0.000  -0.000  -0.000  -0.078   0.136  -0.000   0.000   0.018  -0.000   0.000  -0.001
 -0.000   0.000  -0.002  -0.000   0.000   0.000  -0.000   0.042  -0.000  -0.000   1.061  -0.156   0.000   0.001  -0.000   0.000
 -0.000  -0.000  -0.013   0.000   0.000  -0.000   0.000  -0.008  -0.000   0.000  -0.156   0.056  -0.000  -0.000   0.000   0.000
  0.000   0.000  -0.000   0.006   0.011  -0.000   0.000  -0.000   0.002   0.018   0.000   0.000   0.211  -0.000  -0.000  -0.001
  0.000   0.000   0.000   0.000  -0.000   0.000   0.000   0.001   0.000  -0.000   0.001  -0.000   0.000   0.226   0.000   0.000
  0.011  -0.006   0.000   0.000  -0.000   0.018  -0.002   0.000   0.000   0.000  -0.000   0.000  -0.000  -0.000   0.211  -0.000
  0.000   0.000  -0.000   0.000   0.000   0.000   0.000   0.000  -0.000  -0.001  -0.000  -0.000  -0.001   0.000  -0.000   0.000
  0.000   0.000   0.000   0.000  -0.000  -0.000  -0.000  -0.000  -0.000   0.000  -0.000   0.000   0.000  -0.002  -0.000  -0.000
  0.000  -0.000   0.000   0.000  -0.000  -0.001   0.000  -0.000   0.000  -0.000   0.000   0.000   0.000  -0.000  -0.001  -0.000
 total augmentation occupancy for first ion, spin component:           2
  0.700  -0.233   0.000   0.000  -0.000  -0.127   0.031  -0.000  -0.000  -0.000  -0.000  -0.000   0.000  -0.000   0.000  -0.000
 -0.233   0.418  -0.000  -0.000   0.000   0.033  -0.094   0.000  -0.000  -0.000  -0.000   0.000  -0.000   0.000   0.005   0.000
  0.000  -0.000   0.908  -0.000  -0.000  -0.000   0.000  -0.173   0.000   0.000  -0.029  -0.005  -0.000  -0.000   0.000  -0.000
  0.000  -0.000  -0.000   0.418   0.233  -0.000   0.000   0.000  -0.094  -0.033   0.000   0.000  -0.005  -0.000  -0.000   0.000
 -0.000   0.000  -0.000   0.233   0.700   0.000  -0.000   0.000  -0.031  -0.127   0.000   0.000   0.000   0.000  -0.000   0.001
 -0.127   0.033  -0.000  -0.000   0.000  -0.012  -0.033   0.000   0.000   0.000   0.000   0.000  -0.000   0.000  -0.003  -0.000
  0.031  -0.094   0.000   0.000  -0.000  -0.033  -0.049  -0.000   0.000   0.000   0.000   0.000  -0.000  -0.000   0.003   0.000
 -0.000   0.000  -0.173   0.000   0.000   0.000  -0.000   0.028  -0.000  -0.000   0.008   0.003   0.000   0.000  -0.000  -0.000
 -0.000  -0.000   0.000  -0.094  -0.031   0.000   0.000  -0.000  -0.049   0.033  -0.000  -0.000  -0.003   0.000  -0.000  -0.000
 -0.000  -0.000   0.000  -0.033  -0.127   0.000   0.000  -0.000   0.033  -0.012  -0.000  -0.000  -0.003  -0.000   0.000   0.000
 -0.000  -0.000  -0.029   0.000   0.000   0.000   0.000   0.008  -0.000  -0.000   0.172   0.061   0.000  -0.000   0.000  -0.000
 -0.000  -0.000  -0.005   0.000   0.000   0.000   0.000   0.003  -0.000  -0.000   0.061  -0.018  -0.000   0.000   0.000  -0.000
  0.000  -0.000  -0.000  -0.005   0.000  -0.000  -0.000   0.000  -0.003  -0.003  -0.000   0.000   0.030   0.000  -0.000   0.003
 -0.000   0.000  -0.000  -0.000   0.000   0.000  -0.000   0.000   0.000  -0.000  -0.000   0.000   0.000   0.024   0.000  -0.000
  0.000   0.005   0.000  -0.000  -0.000  -0.003   0.003  -0.000  -0.000   0.000   0.000   0.000  -0.000   0.000   0.030   0.000
 -0.000   0.000  -0.000   0.000   0.001  -0.000   0.000  -0.000  -0.000   0.000   0.000  -0.000   0.003   0.000   0.000   0.000
  0.000  -0.000   0.000   0.000  -0.000   0.000  -0.000   0.000   0.000  -0.000   0.000  -0.000   0.000   0.003  -0.000   0.000
  0.001  -0.000   0.000   0.000   0.000   0.000   0.000   0.000   0.000   0.000   0.000   0.000  -0.000   0.000   0.003  -0.000


------------------------ aborting loop because EDIFF is reached ----------------------------------------





 total charge     

# of ion       s       p       d       tot
------------------------------------------
    1        0.342   0.433   4.292   5.067
    2        0.342   0.433   4.292   5.067
    3        1.116   1.306   0.000   2.422
    4        1.116   1.306   0.000   2.422
    5        1.404   1.953   0.039   3.397
    6        1.391   1.915   0.040   3.347
    7        1.401   1.941   0.040   3.381
    8        1.404   1.953   0.039   3.397
    9        1.391   1.915   0.040   3.347
   10        1.401   1.941   0.040   3.381
--------------------------------------------------
tot         11.309  15.097   8.821  35.228



 magnetization (x)

# of ion       s       p       d       tot
------------------------------------------
    1        0.041   0.048   2.877   2.966
    2        0.041   0.048   2.877   2.966
    3        0.004   0.012   0.000   0.017
    4        0.004   0.012   0.000   0.017
    5        0.002  -0.068   0.005  -0.061
    6       -0.001  -0.066   0.005  -0.062
    7        0.000  -0.071   0.005  -0.066
    8        0.002  -0.068   0.005  -0.061
    9       -0.001  -0.066   0.005  -0.062
   10        0.000  -0.071   0.005  -0.066
--------------------------------------------------
tot          0.091  -0.288   5.785   5.588

    CHARGE:  cpu time    2.0720: real time    2.0959
    FORLOC:  cpu time    0.0880: real time    0.0917
    FORNL :  cpu time    6.0480: real time    6.0947
    STRESS:  cpu time   18.0880: real time   18.1449
    FORCOR:  cpu time  106.5120: real time  106.9954
    FORHAR:  cpu time    0.4840: real time    0.4830
    MIXING:  cpu time    0.0520: real time    0.0539
    OFIELD:  cpu time    0.0000: real time    0.0001

  FORCE on cell =-STRESS in cart. coord.  units (eV):
  Direction    XX          YY          ZZ          XY          YZ          ZX
  --------------------------------------------------------------------------------------
  Alpha Z    12.74853    12.74853    12.74853
  Ewald    7911.43158  7911.42916 -9455.32775    -0.00105    -0.00044    -0.00080
  Hartree  8237.11302  8237.11341 -8095.43605     0.00003     0.00006     0.00010
  E(xc)    -230.44209  -230.44206  -230.75049     0.00001     0.00002     0.00001
  Local  -17061.86006-17061.85893 16602.09523     0.00075     0.00027     0.00050
  n-local   753.41940   753.34323   774.18036    -0.25654     0.53766     0.42811
  augment  -121.00660  -121.00649  -129.32897     0.00001     0.00002     0.00002
  Kinetic   503.01337   494.64718   521.89178    -5.69730    -0.47045    -0.47589
  Fock        0.00000     0.00000     0.00000     0.00000     0.00000     0.00000
  -------------------------------------------------------------------------------------
  Total       0.19559     0.19559     0.07265     0.00000     0.00000     0.00000
  in kB       0.33802     0.33802     0.12556     0.00000     0.00000     0.00000
  external pressure =        0.27 kB  Pullay stress =        0.00 kB


 VOLUME and BASIS-vectors are now :
 -----------------------------------------------------------------------------
  energy-cutoff  :      520.00
  volume of cell :      927.09
      direct lattice vectors                 reciprocal lattice vectors
     6.849180625  0.000000019 -0.000000000     0.146002866 -0.084294787  0.000000000
     3.424589809  5.931564069 -0.000000000    -0.000000000  0.168589598 -0.000000000
    -0.000000000 -0.000000000 22.819911787     0.000000000 -0.000000000  0.043821379

  length of vectors
     6.849180625  6.849180073 22.819911787     0.168589584  0.168589598  0.043821379


 FORCES acting on ions
    electron-ion (+dipol)            ewald-force                    non-local-force                 convergence-correction
 -----------------------------------------------------------------------------------------------
   -.420E-04 -.271E-04 0.672E+00   0.339E-03 0.200E-03 -.676E+00   0.347E-17 0.694E-17 -.140E-02   -.992E-08 -.616E-08 0.703E-04
   0.420E-04 0.271E-04 -.672E+00   -.339E-03 -.200E-03 0.676E+00   -.172E-22 -.117E-31 0.140E-02   0.992E-08 0.616E-08 -.703E-04
   -.339E-04 -.282E-04 0.213E+03   -.172E-03 -.952E-04 -.216E+03   0.829E-18 0.152E-16 0.316E+01   -.196E-08 -.477E-08 0.172E-01
   0.339E-04 0.282E-04 -.213E+03   0.172E-03 0.952E-04 0.216E+03   0.177E-17 -.147E-16 -.316E+01   0.196E-08 0.477E-08 -.172E-01
   0.136E+01 0.149E+00 -.358E+03   -.411E+01 -.146E+00 0.362E+03   0.262E+01 -.100E-01 -.403E+01   -.147E-02 0.128E-04 -.162E-01
   -.551E+00 -.125E+01 -.358E+03   0.193E+01 0.363E+01 0.362E+03   -.132E+01 -.227E+01 -.403E+01   0.748E-03 0.127E-02 -.162E-01
   -.810E+00 0.110E+01 -.358E+03   0.218E+01 -.348E+01 0.362E+03   -.130E+01 0.228E+01 -.403E+01   0.726E-03 -.128E-02 -.162E-01
   -.136E+01 -.149E+00 0.358E+03   0.411E+01 0.146E+00 -.362E+03   -.262E+01 0.100E-01 0.403E+01   0.147E-02 -.128E-04 0.162E-01
   0.551E+00 0.125E+01 0.358E+03   -.193E+01 -.363E+01 -.362E+03   0.132E+01 0.227E+01 0.403E+01   -.748E-03 -.127E-02 0.162E-01
   0.810E+00 -.110E+01 0.358E+03   -.218E+01 0.348E+01 -.362E+03   0.130E+01 -.228E+01 0.403E+01   -.726E-03 0.128E-02 0.162E-01
 -----------------------------------------------------------------------------------------------
   -.185E-09 -.199E-09 0.166E-10   0.195E-13 -.888E-15 0.114E-12   0.222E-15 0.000E+00 0.000E+00   0.377E-14 -.637E-14 0.102E-10


 POSITION                                       TOTAL-FORCE (eV/Angst)
 -----------------------------------------------------------------------------------
      3.42459      1.97719     11.40824        -0.000000      0.000000     -0.004950
      6.84918      3.95438     11.41167        -0.000000      0.000000      0.004950
     -0.00000      0.00000     10.28832        -0.000000      0.000000     -0.035298
     -0.00000     -0.00000     12.53159        -0.000000      0.000000      0.035298
      4.29147      0.00249     13.09297        -0.124600     -0.006402      0.001835
      1.28102      2.21380     13.09297         0.056756      0.111107      0.001835
      4.70129      3.71528     13.09297         0.067844     -0.104706      0.001835
      5.98230      5.92907      9.72694         0.124600      0.006402     -0.001835
      8.99275      3.71776      9.72694        -0.056756     -0.111107     -0.001835
      5.57248      2.21629      9.72694        -0.067844      0.104706     -0.001835
 -----------------------------------------------------------------------------------
    total drift:                               -0.000000     -0.000000      0.000000


--------------------------------------------------------------------------------------------------------



  FREE ENERGIE OF THE ION-ELECTRON SYSTEM (eV)
  ---------------------------------------------------
  free  energy   TOTEN  =       -43.11067525 eV

  energy  without entropy=      -43.11067525  energy(sigma->0) =      -43.11067525

 d Force = 0.3070551E-03[ 0.174E-03, 0.440E-03]  d Energy = 0.4440952E-03-0.137E-03
 d Force = 0.1066298E+01[ 0.107E+01, 0.107E+01]  d Ewald  =-0.1438568E+02 0.155E+02


--------------------------------------------------------------------------------------------------------


    POTLOK:  cpu time   96.9400: real time   97.6734


--------------------------------------------------------------------------------------------------------




--------------------------------------------------------------------------------------------------------


  
 reached required accuracy - stopping structural energy minimisation
     LOOP+:  cpu time  742.5600: real time  746.3275
    4ORBIT:  cpu time    0.0000: real time    0.0000



 total charge     

# of ion       s       p       d       tot
------------------------------------------
    1        0.342   0.433   4.292   5.067
    2        0.342   0.433   4.292   5.067
    3        1.116   1.306   0.000   2.422
    4        1.116   1.306   0.000   2.422
    5        1.404   1.953   0.039   3.397
    6        1.391   1.915   0.040   3.347
    7        1.401   1.941   0.040   3.381
    8        1.404   1.953   0.039   3.397
    9        1.391   1.915   0.040   3.347
   10        1.401   1.941   0.040   3.381
--------------------------------------------------
tot         11.309  15.097   8.821  35.228



 magnetization (x)

# of ion       s       p       d       tot
------------------------------------------
    1        0.041   0.048   2.877   2.966
    2        0.041   0.048   2.877   2.966
    3        0.004   0.012   0.000   0.017
    4        0.004   0.012   0.000   0.017
    5        0.002  -0.068   0.005  -0.061
    6       -0.001  -0.066   0.005  -0.062
    7        0.000  -0.071   0.005  -0.066
    8        0.002  -0.068   0.005  -0.061
    9       -0.001  -0.066   0.005  -0.062
   10        0.000  -0.071   0.005  -0.066
--------------------------------------------------
tot          0.091  -0.288   5.785   5.588

 BZINTS: Fermi energy: -1.466724; 58.000000 electrons
         Band energy:-391.408064;  BLOECHL correction: -0.039735

 total amount of memory used by VASP MPI-rank0   169747. kBytes
=======================================================================

   base      :      30000. kBytes
   nonlr-proj:       7947. kBytes
   fftplans  :      20284. kBytes
   grid      :      90201. kBytes
   one-center:        311. kBytes
   wavefun   :      21004. kBytes

  
  
 General timing and accounting informations for this job:
 ========================================================
  
                  Total CPU time used (sec):     8104.912
                            User time (sec):     8076.268
                          System time (sec):       28.644
                         Elapsed time (sec):     8161.503
  
                   Maximum memory used (kb):      588772.
                   Average memory used (kb):           0.
  
                          Minor page faults:      7107003
                          Major page faults:            6
                 Voluntary context switches:          819
