 vasp.5.4.4.18Apr17-6-g9f103f2a35 (build May  1 2020 15:48:39) complex           
 executed on             LinuxGNU date 2020.07.01  12:20:07
 running on    8 total cores
 distrk:  each k-point on    8 cores,    1 groups
 distr:  one band on NCORES_PER_BAND=   1 cores,    8 groups


--------------------------------------------------------------------------------------------------------


 INCAR:
 POTCAR:   PAW_PBE Cr 06Sep2000                   
 POTCAR:   PAW_PBE Ge 05Jan2001                   
 POTCAR:    PAW_PBE P 17Jan2003                   
 POTCAR:   PAW_PBE Se 06Sep2000                   

 ----------------------------------------------------------------------------- 
|                                                                             |
|           W    W    AA    RRRRR   N    N  II  N    N   GGGG   !!!           |
|           W    W   A  A   R    R  NN   N  II  NN   N  G    G  !!!           |
|           W    W  A    A  R    R  N N  N  II  N N  N  G       !!!           |
|           W WW W  AAAAAA  RRRRR   N  N N  II  N  N N  G  GGG   !            |
|           WW  WW  A    A  R   R   N   NN  II  N   NN  G    G                |
|           W    W  A    A  R    R  N    N  II  N    N   GGGG   !!!           |
|                                                                             |
|      For optimal performance we recommend to set                            |
|        NCORE= 4 - approx SQRT( number of cores)                             |
|      NCORE specifies how many cores store one orbital (NPAR=cpu/NCORE).     |
|      This setting can  greatly improve the performance of VASP for DFT.     |
|      The default,   NCORE=1            might be grossly inefficient         |
|      on modern multi-core architectures or massively parallel machines.     |
|      Do your own testing !!!!                                               |
|      Unfortunately you need to use the default for GW and RPA calculations. |
|      (for HF NCORE is supported but not extensively tested yet)             |
|                                                                             |
 ----------------------------------------------------------------------------- 


 ----------------------------------------------------------------------------- 
|                                                                             |
|  ADVICE TO THIS USER RUNNING 'VASP/VAMP'   (HEAR YOUR MASTER'S VOICE ...):  |
|                                                                             |
|      You have switched on vdW-DFT.                                          |
|      This routine was written and supplied by Jiri Klimes.                  |
|      We recommed that you carefully read and cite the following             |
|      publication                                                            |
|      J. Klimes, D.R. Bowler, A. Michelides                                  |
|        J. Phys.: Cond Matt. 22 022201 (2010)                                |
|      J. Klimes, D.R. Bowler, A. Michelides                                  |
|        Phys. Rev. B. 83, 195131 (2011)                                      |
|      and references therein.                                                |
|                                                                             |
 ----------------------------------------------------------------------------- 

 POTCAR:   PAW_PBE Cr 06Sep2000                   
   VRHFIN =Cr : d5 s1                                                           
   LEXCH  = PE                                                                  
   EATOM  =   276.9744 eV,   20.3570 Ry                                         
                                                                                
   TITEL  = PAW_PBE Cr 06Sep2000                                                
   LULTRA =        F    use ultrasoft PP ?                                      
   IUNSCR =        1    unscreen: 0-lin 1-nonlin 2-no                           
   RPACOR =    2.080    partial core radius                                     
   POMASS =   51.996; ZVAL   =    6.000    mass and valenz                      
   RCORE  =    2.500    outmost cutoff radius                                   
   RWIGS  =    2.500; RWIGS  =    1.323    wigner-seitz radius (au A)           
   ENMAX  =  227.082; ENMIN  =  170.311 eV                                      
   RCLOC  =    1.721    cutoff for local pot                                    
   LCOR   =        T    correct aug charges                                     
   LPAW   =        T    paw PP                                                  
   EAUG   =  402.108                                                            
   DEXC   =    -.035                                                            
   RMAX   =    3.060    core radius for proj-oper                               
   RAUG   =    1.300    factor for augmentation sphere                          
   RDEP   =    2.609    radius for radial grids                                 
   QCUT   =   -4.085; QGAM   =    8.171    optimization parameters              
                                                                                
   Description                                                                  
     l     E      TYP  RCUT    TYP  RCUT                                        
     2   .000     23  2.500                                                     
     2   .000     23  2.500                                                     
     0   .000     23  2.500                                                     
     0   .000     23  2.500                                                     
     1  -.400     23  2.500                                                     
     1  2.000     23  2.500                                                     
     3   .000      7   .000                                                     
  local pseudopotential read in
  partial core-charges read in
  atomic valenz-charges read in
  non local Contribution for L=           2  read in
    real space projection operators read in
  non local Contribution for L=           2  read in
    real space projection operators read in
  non local Contribution for L=           0  read in
    real space projection operators read in
  non local Contribution for L=           0  read in
    real space projection operators read in
  non local Contribution for L=           1  read in
    real space projection operators read in
  non local Contribution for L=           1  read in
    real space projection operators read in
    PAW grid and wavefunctions read in

   number of l-projection  operators is LMAX  =           6
   number of lm-projection operators is LMMAX =          18

 POTCAR:   PAW_PBE Ge 05Jan2001                   
   VRHFIN =Ge: s2p2                                                             
   LEXCH  = PE                                                                  
   EATOM  =   104.9960 eV,    7.7170 Ry                                         
                                                                                
   TITEL  = PAW_PBE Ge 05Jan2001                                                
   LULTRA =        F    use ultrasoft PP ?                                      
   IUNSCR =        1    unscreen: 0-lin 1-nonlin 2-no                           
   RPACOR =    2.170    partial core radius                                     
   POMASS =   72.610; ZVAL   =    4.000    mass and valenz                      
   RCORE  =    2.300    outmost cutoff radius                                   
   RWIGS  =    2.300; RWIGS  =    1.217    wigner-seitz radius (au A)           
   ENMAX  =  173.807; ENMIN  =  130.355 eV                                      
   ICORE  =        3    local potential                                         
   LCOR   =        T    correct aug charges                                     
   LPAW   =        T    paw PP                                                  
   EAUG   =  385.843                                                            
   DEXC   =    -.138                                                            
   RMAX   =    3.497    core radius for proj-oper                               
   RAUG   =    1.300    factor for augmentation sphere                          
   RDEP   =    2.318    radius for radial grids                                 
   QCUT   =   -3.574; QGAM   =    7.148    optimization parameters              
                                                                                
   Description                                                                  
     l     E      TYP  RCUT    TYP  RCUT                                        
     0   .000     23  2.300                                                     
     0   .000     23  2.300                                                     
     1   .000     23  2.300                                                     
     1   .000     23  2.300                                                     
     2   .000     23  2.300                                                     
     3  -.100      7  2.300                                                     
  local pseudopotential read in
  partial core-charges read in
  atomic valenz-charges read in
  non local Contribution for L=           0  read in
    real space projection operators read in
  non local Contribution for L=           0  read in
    real space projection operators read in
  non local Contribution for L=           1  read in
    real space projection operators read in
  non local Contribution for L=           1  read in
    real space projection operators read in
  non local Contribution for L=           2  read in
    real space projection operators read in
    PAW grid and wavefunctions read in

   number of l-projection  operators is LMAX  =           5
   number of lm-projection operators is LMMAX =          13

 POTCAR:    PAW_PBE P 17Jan2003                   
   VRHFIN =P : s2p3                                                             
   LEXCH  = PE                                                                  
   EATOM  =   176.0430 eV,   12.9388 Ry                                         
                                                                                
   TITEL  = PAW_PBE P 17Jan2003                                                 
   LULTRA =        F    use ultrasoft PP ?                                      
   IUNSCR =        1    unscreen: 0-lin 1-nonlin 2-no                           
   RPACOR =    1.500    partial core radius                                     
   POMASS =   30.974; ZVAL   =    5.000    mass and valenz                      
   RCORE  =    1.900    outmost cutoff radius                                   
   RWIGS  =    2.330; RWIGS  =    1.233    wigner-seitz radius (au A)           
   ENMAX  =  270.000; ENMIN  =  191.280 eV                                      
   ICORE  =        2    local potential                                         
   LCOR   =        T    correct aug charges                                     
   LPAW   =        T    paw PP                                                  
   EAUG   =  342.924                                                            
   DEXC   =    -.002                                                            
   RMAX   =    2.887    core radius for proj-oper                               
   RAUG   =    1.300    factor for augmentation sphere                          
   RDEP   =    1.931    radius for radial grids                                 
   QCUT   =   -4.330; QGAM   =    8.659    optimization parameters              
                                                                                
   Description                                                                  
     l     E      TYP  RCUT    TYP  RCUT                                        
     0   .000     23  1.900                                                     
     0   .000     23  1.900                                                     
     1   .000     23  1.900                                                     
     1   .000     23  1.900                                                     
     2   .000     23  1.900                                                     
  local pseudopotential read in
  partial core-charges read in
  atomic valenz-charges read in
  non local Contribution for L=           0  read in
    real space projection operators read in
  non local Contribution for L=           0  read in
    real space projection operators read in
  non local Contribution for L=           1  read in
    real space projection operators read in
  non local Contribution for L=           1  read in
    real space projection operators read in
    PAW grid and wavefunctions read in

   number of l-projection  operators is LMAX  =           4
   number of lm-projection operators is LMMAX =           8

 POTCAR:   PAW_PBE Se 06Sep2000                   
   VRHFIN =Se: s2p4                                                             
   LEXCH  = PE                                                                  
   EATOM  =   256.9644 eV,   18.8864 Ry                                         
                                                                                
   TITEL  = PAW_PBE Se 06Sep2000                                                
   LULTRA =        F    use ultrasoft PP ?                                      
   IUNSCR =        1    unscreen: 0-lin 1-nonlin 2-no                           
   RPACOR =    1.900    partial core radius                                     
   POMASS =   78.960; ZVAL   =    6.000    mass and valenz                      
   RCORE  =    2.100    outmost cutoff radius                                   
   RWIGS  =    2.200; RWIGS  =    1.164    wigner-seitz radius (au A)           
   ENMAX  =  211.534; ENMIN  =  158.651 eV                                      
   ICORE  =        3    local potential                                         
   LCOR   =        T    correct aug charges                                     
   LPAW   =        T    paw PP                                                  
   EAUG   =  446.842                                                            
   DEXC   =    -.031                                                            
   RMAX   =    3.170    core radius for proj-oper                               
   RAUG   =    1.300    factor for augmentation sphere                          
   RDEP   =    2.177    radius for radial grids                                 
   QCUT   =   -3.943; QGAM   =    7.886    optimization parameters              
                                                                                
   Description                                                                  
     l     E      TYP  RCUT    TYP  RCUT                                        
     0   .000     23  2.100                                                     
     0   .000     23  2.100                                                     
     1   .000     23  2.100                                                     
     1   .000     23  2.100                                                     
     2   .000     23  2.100                                                     
     3  -.100      7  2.100                                                     
  local pseudopotential read in
  partial core-charges read in
  atomic valenz-charges read in
  non local Contribution for L=           0  read in
    real space projection operators read in
  non local Contribution for L=           0  read in
    real space projection operators read in
  non local Contribution for L=           1  read in
    real space projection operators read in
  non local Contribution for L=           1  read in
    real space projection operators read in
  non local Contribution for L=           2  read in
    real space projection operators read in
    PAW grid and wavefunctions read in

   number of l-projection  operators is LMAX  =           5
   number of lm-projection operators is LMMAX =          13

 Optimization of the real space projectors (new method)

 maximal supplied QI-value         = 15.12
 optimisation between [QCUT,QGAM] = [ 11.64, 23.28] = [ 37.95,151.78] Ry 
 Optimized for a Real-space Cutoff    1.49 Angstroem

   l    n(q)    QCUT    max X(q) W(low)/X(q) W(high)/X(q)  e(spline) 
   2      9    11.641     4.777    0.25E-04    0.21E-05    0.63E-07
   2      9    11.641    31.132    0.13E-03    0.22E-03    0.64E-06
   0     10    11.641    20.416    0.11E-04    0.74E-05    0.19E-07
   0     10    11.641    45.408    0.10E-03    0.85E-04    0.30E-06
   1     10    11.641     7.848    0.22E-04    0.23E-04    0.56E-07
   1     10    11.641     9.895    0.85E-04    0.54E-04    0.16E-06
 Optimization of the real space projectors (new method)

 maximal supplied QI-value         = 16.25
 optimisation between [QCUT,QGAM] = [ 11.54, 23.24] = [ 37.28,151.24] Ry 
 Optimized for a Real-space Cutoff    1.28 Angstroem

   l    n(q)    QCUT    max X(q) W(low)/X(q) W(high)/X(q)  e(spline) 
   0      9    11.539     8.651    0.22E-04    0.16E-04    0.10E-07
   0      9    11.539    33.192    0.11E-03    0.16E-03    0.65E-07
   1      8    11.539     5.899    0.37E-04    0.28E-04    0.43E-07
   1      8    11.539    27.289    0.22E-03    0.28E-04    0.14E-06
   2      8    11.539     4.673    0.11E-03    0.18E-03    0.58E-07
 Optimization of the real space projectors (new method)

 maximal supplied QI-value         = 19.84
 optimisation between [QCUT,QGAM] = [ 11.51, 23.22] = [ 37.09,150.92] Ry 
 Optimized for a Real-space Cutoff    1.21 Angstroem

   l    n(q)    QCUT    max X(q) W(low)/X(q) W(high)/X(q)  e(spline) 
   0      8    11.508     6.651    0.19E-04    0.31E-05    0.49E-08
   0      8    11.508    90.285    0.95E-04    0.17E-03    0.51E-07
   1      8    11.508     4.328    0.14E-04    0.32E-04    0.22E-07
   1      8    11.508    54.583    0.16E-03    0.71E-04    0.89E-07
 Optimization of the real space projectors (new method)

 maximal supplied QI-value         = 17.95
 optimisation between [QCUT,QGAM] = [ 11.67, 23.34] = [ 38.13,152.52] Ry 
 Optimized for a Real-space Cutoff    1.25 Angstroem

   l    n(q)    QCUT    max X(q) W(low)/X(q) W(high)/X(q)  e(spline) 
   0      9    11.669     6.499    0.13E-04    0.81E-05    0.11E-07
   0      9    11.669    52.623    0.18E-03    0.46E-04    0.72E-07
   1      8    11.669     4.229    0.40E-04    0.45E-04    0.31E-07
   1      8    11.669    29.991    0.22E-03    0.36E-03    0.10E-06
   2      8    11.669     3.719    0.19E-03    0.46E-04    0.50E-07

 ----------------------------------------------------------------------------- 
|                                                                             |
|  ADVICE TO THIS USER RUNNING 'VASP/VAMP'   (HEAR YOUR MASTER'S VOICE ...):  |
|                                                                             |
|      You enforced a specific xc-type in the INCAR file,                     |
|      a different type was found on the POTCAR file                          |
|          I HOPE YOU KNOW, WHAT YOU ARE  DOING                               |
|                                                                             |
 ----------------------------------------------------------------------------- 

 PAW_PBE Cr 06Sep2000                   :
 energy of atom  1       EATOM= -276.9744
 kinetic energy error for atom=    0.0010 (will be added to EATOM!!)
 PAW_PBE Ge 05Jan2001                   :
 energy of atom  2       EATOM= -104.9960
 kinetic energy error for atom=    0.0002 (will be added to EATOM!!)
  PAW_PBE P 17Jan2003                   :
 energy of atom  3       EATOM= -176.0430
 kinetic energy error for atom=    0.0011 (will be added to EATOM!!)
 PAW_PBE Se 06Sep2000                   :
 energy of atom  4       EATOM= -256.9644
 kinetic energy error for atom=    0.0007 (will be added to EATOM!!)


 POSCAR: Cr2 Ge P Se6                            
  positions in direct lattice
  velocities in cartesian coordinates
  No initial velocities read in
 exchange correlation table for  LEXCH =       42
   RHO(1)=    0.500       N(1)  =     2000
   RHO(2)=  100.500       N(2)  =     4000



--------------------------------------------------------------------------------------------------------


 ion  position               nearest neighbor table
   1  0.333  0.333  0.500-   6 2.78   5 2.78   7 2.78   8 2.78  10 2.78   9 2.78
   2  0.667  0.667  0.500-   9 2.78   8 2.78  10 2.78   5 2.78   7 2.78   6 2.78
   3  0.000  0.000  0.448-   4 2.43   8 2.63  10 2.63   9 2.63
   4  0.000  0.000  0.552-   3 2.43   5 2.63   7 2.63   6 2.63
   5  0.626  0.000  0.574-   4 2.63   1 2.78   2 2.78
   6  0.000  0.373  0.574-   4 2.63   1 2.78   2 2.78
   7  0.373  0.626  0.574-   4 2.63   1 2.78   2 2.78
   8  0.374  1.000  0.426-   3 2.63   2 2.78   1 2.78
   9  1.000  0.627  0.426-   3 2.63   2 2.78   1 2.78
  10  0.627  0.374  0.426-   3 2.63   2 2.78   1 2.78

  LATTYP: Found a hexagonal cell.
 ALAT       =     6.9077769333
 C/A-ratio  =     3.3939410937
  
  Lattice vectors:
  
 A1 = (   3.4538890000,  -5.9823100000,   0.0000000000)
 A2 = (  -6.9077770000,   0.0000000000,   0.0000000000)
 A3 = (   0.0000000000,   0.0000000000, -23.4445880000)


Analysis of symmetry for initial positions (statically):
=====================================================================
 Subroutine PRICEL returns:
 Original cell was already a primitive cell.
 

 Routine SETGRP: Setting up the symmetry group for a 
 hexagonal supercell.


 Subroutine GETGRP returns: Found  3 space group operations
 (whereof  3 operations were pure point group operations)
 out of a pool of 24 trial point group operations.


The static configuration has the point symmetry C_3 .


Analysis of symmetry for dynamics (positions and initial velocities):
=====================================================================
 Subroutine PRICEL returns:
 Original cell was already a primitive cell.
 

 Routine SETGRP: Setting up the symmetry group for a 
 hexagonal supercell.


 Subroutine GETGRP returns: Found  3 space group operations
 (whereof  3 operations were pure point group operations)
 out of a pool of 24 trial point group operations.


The dynamic configuration has the point symmetry C_3 .


Analysis of constrained symmetry for selective dynamics:
=====================================================================
 Subroutine PRICEL returns:
 Original cell was already a primitive cell.
 

 Routine SETGRP: Setting up the symmetry group for a 
 hexagonal supercell.


 Subroutine GETGRP returns: Found  3 space group operations
 (whereof  3 operations were pure point group operations)
 out of a pool of 24 trial point group operations.


The constrained configuration has the point symmetry C_3 .


Analysis of structural, dynamic, and magnetic symmetry:
=====================================================================
 Subroutine PRICEL returns:
 Original cell was already a primitive cell.
 

 Routine SETGRP: Setting up the symmetry group for a 
 hexagonal supercell.


 Subroutine GETGRP returns: Found  3 space group operations
 (whereof  3 operations were pure point group operations)
 out of a pool of 24 trial point group operations.


The magnetic configuration has the point symmetry C_3 .


 Subroutine INISYM returns: Found  3 space group operations
 (whereof  3 operations are pure point group operations),
 and found     1 'primitive' translations



 KPOINTS: Kpoints from vasprun.xml                

Automatic generation of k-mesh.
Space group operators:
 irot       det(A)        alpha          n_x          n_y          n_z        tau_x        tau_y        tau_z
    1     1.000000     0.000000     1.000000     0.000000     0.000000     0.000000     0.000000     0.000000
    2     1.000000   120.000000     0.000000     0.000000     1.000000     0.000000     0.000000     0.000000
    3     1.000000   120.000000     0.000000     0.000000    -1.000000     0.000000     0.000000     0.000000
 
 Subroutine IBZKPT returns following result:
 ===========================================
 
 Found      5 irreducible k-points:
 
 Following reciprocal coordinates:
            Coordinates               Weight
  0.000000  0.000000  0.000000      1.000000
  0.200000  0.000000  0.000000      6.000000
  0.400000  0.000000  0.000000      6.000000
  0.400000  0.200000  0.000000      6.000000
 -0.400000  0.200000  0.000000      6.000000
 
 Following cartesian coordinates:
            Coordinates               Weight
  0.000000  0.000000  0.000000      1.000000
  0.028953 -0.016716  0.000000      6.000000
  0.057906 -0.033432  0.000000      6.000000
  0.057906  0.000000  0.000000      6.000000
 -0.057906  0.066864  0.000000      6.000000
 
 TETIRR: Found     15 inequivalent tetrahedra from      150


--------------------------------------------------------------------------------------------------------




 Dimension of arrays:
   k-points           NKPTS =      5   k-points in BZ     NKDIM =      5   number of bands    NBANDS=     40
   number of dos      NEDOS =    301   number of ions     NIONS =     10
   non local maximal  LDIM  =      6   non local SUM 2l+1 LMDIM =     18
   total plane-waves  NPLWV = 524880
   max r-space proj   IRMAX =   7543   max aug-charges    IRDMAX=  29641
   dimension x,y,z NGX =    54 NGY =   54 NGZ =  180
   dimension x,y,z NGXF=   108 NGYF=  108 NGZF=  360
   support grid    NGXF=   108 NGYF=  108 NGZF=  360
   ions per type =               2   1   1   6
   NGX,Y,Z   is equivalent  to a cutoff of  13.00, 13.00, 12.76 a.u.
   NGXF,Y,Z  is equivalent  to a cutoff of  25.99, 25.99, 25.53 a.u.

 SYSTEM =  unknown system                          
 POSCAR =  Cr2 Ge P Se6                            

 Startparameter for this run:
   NWRITE =      2    write-flag & timer
   PREC   = accura    normal or accurate (medium, high low for compatibility)
   ISTART =      0    job   : 0-new  1-cont  2-samecut
   ICHARG =      2    charge: 1-file 2-atom 10-const
   ISPIN  =      2    spin polarized calculation?
   LNONCOLLINEAR =      F non collinear calculations
   LSORBIT =      F    spin-orbit coupling
   INIWAV =      1    electr: 0-lowe 1-rand  2-diag
   LASPH  =      F    aspherical Exc in radial PAW
   METAGGA=      F    non-selfconsistent MetaGGA calc.

 Electronic Relaxation 1
   ENCUT  =  520.0 eV  38.22 Ry    6.18 a.u.  12.84 12.84 43.59*2*pi/ulx,y,z
   ENINI  =  520.0     initial cutoff
   ENAUG  =  446.8 eV  augmentation charge cutoff
   NELM   =    400;   NELMIN=  2; NELMDL=  0     # of ELM steps 
   EDIFF  = 0.1E-03   stopping-criterion for ELM
   LREAL  =      T    real-space projection
   NLSPLINE    = F    spline interpolate recip. space projectors
   LCOMPAT=      F    compatible to vasp.4.4
   GGA_COMPAT  = T    GGA compatible to vasp.4.4-vasp.4.6
   LMAXPAW     = -100 max onsite density
   LMAXMIX     =    2 max onsite mixed and CHGCAR
   VOSKOWN=      0    Vosko Wilk Nusair interpolation
   ROPT   =   -0.00025  -0.00025  -0.00025  -0.00025
 Ionic relaxation
   EDIFFG = 0.1E-02   stopping-criterion for IOM
   NSW    =     99    number of steps for IOM
   NBLOCK =      1;   KBLOCK =     99    inner block; outer block 
   IBRION =      2    ionic relax: 0-MD 1-quasi-New 2-CG
   NFREE  =      1    steps in history (QN), initial steepest desc. (CG)
   ISIF   =      3    stress and relaxation
   IWAVPR =     11    prediction:  0-non 1-charg 2-wave 3-comb
   ISYM   =      2    0-nonsym 1-usesym 2-fastsym
   LCORR  =      T    Harris-Foulkes like correction to forces

   POTIM  = 0.5000    time-step for ionic-motion
   TEIN   =    0.0    initial temperature
   TEBEG  =    0.0;   TEEND  =   0.0 temperature during run
   SMASS  =  -3.00    Nose mass-parameter (am)
   estimated Nose-frequenzy (Omega)   =  0.10E-29 period in steps =****** mass=  -0.109E-26a.u.
   SCALEE = 1.0000    scale energy and forces
   NPACO  =    256;   APACO  = 16.0  distance and # of slots for P.C.
   PSTRESS=    0.0 pullay stress

  Mass of Ions in am
   POMASS =  52.00 72.61 30.97 78.96
  Ionic Valenz
   ZVAL   =   6.00  4.00  5.00  6.00
  Atomic Wigner-Seitz radii
   RWIGS  =  -1.00 -1.00 -1.00 -1.00
  virtual crystal weights 
   VCA    =   1.00  1.00  1.00  1.00
   NELECT =      57.0000    total number of electrons
   NUPDOWN=      -1.0000    fix difference up-down

 DOS related values:
   EMIN   =  10.00;   EMAX   =-10.00  energy-range for DOS
   EFERMI =   0.00
   ISMEAR =    -5;   SIGMA  =   0.05  broadening in eV -4-tet -1-fermi 0-gaus

 Electronic relaxation 2 (details)
   IALGO  =     38    algorithm
   LDIAG  =      T    sub-space diagonalisation (order eigenvalues)
   LSUBROT=      F    optimize rotation matrix (better conditioning)
   TURBO    =      0    0=normal 1=particle mesh
   IRESTART =      0    0=no restart 2=restart with 2 vectors
   NREBOOT  =      0    no. of reboots
   NMIN     =      0    reboot dimension
   EREF     =   0.00    reference energy to select bands
   IMIX   =      4    mixing-type and parameters
     AMIX     =   0.40;   BMIX     =  1.00
     AMIX_MAG =   1.60;   BMIX_MAG =  1.00
     AMIN     =   0.01
     WC   =   100.;   INIMIX=   1;  MIXPRE=   1;  MAXMIX= -45

 Intra band minimization:
   WEIMIN = 0.0010     energy-eigenvalue tresh-hold
   EBREAK =  0.63E-06  absolut break condition
   DEPER  =   0.30     relativ break condition  

   TIME   =   0.40     timestep for ELM

  volume/ion in A,a.u.               =      96.88       653.80
  Fermi-wavevector in a.u.,A,eV,Ry     =   0.636722  1.203230  5.516004  0.405415
  Thomas-Fermi vector in A             =   1.701488

 Write flags
   LWAVE        =      F    write WAVECAR
   LDOWNSAMPLE  =      F    k-point downsampling of WAVECAR
   LCHARG       =      T    write CHGCAR
   LVTOT        =      F    write LOCPOT, total local potential
   LVHAR        =      F    write LOCPOT, Hartree potential only
   LELF         =      F    write electronic localiz. function (ELF)
   LORBIT       =     11    0 simple, 1 ext, 2 COOP (PROOUT), +10 PAW based schemes


 Dipole corrections
   LMONO  =      F    monopole corrections only (constant potential shift)
   LDIPOL =      F    correct potential (dipole corrections)
   IDIPOL =      0    1-x, 2-y, 3-z, 4-all directions 
   EPSILON=  1.0000000 bulk dielectric constant

 Exchange correlation treatment:
   GGA     =    BO    GGA type
   LEXCH   =    42    internal setting for exchange type
   VOSKOWN=      0    Vosko Wilk Nusair interpolation
   LHFCALC =     F    Hartree Fock is set to
   LHFONE  =     F    Hartree Fock one center treatment
   AEXX    =    0.0000 exact exchange contribution

 vdW DFT:
   LUSE_VDW   =     T    switch on vdW DFT
   Zab_VDW    =-.8491    correlation parameter
   PARAM1     =0.1833
   PARAM2     =0.2200
   PARAM3     =0.0000
   -- rVV10 --
   BPARAM     = 6.3000
   CPARAM     = 0.0093

 Linear response parameters
   LEPSILON=     F    determine dielectric tensor
   LRPA    =     F    only Hartree local field effects (RPA)
   LNABLA  =     F    use nabla operator in PAW spheres
   LVEL    =     F    velocity operator in full k-point grid
   LINTERFAST=   F  fast interpolation
   KINTER  =     0    interpolate to denser k-point grid
   CSHIFT  =0.1000    complex shift for real part using Kramers Kronig
   OMEGAMAX=  -1.0    maximum frequency
   DEG_THRESHOLD= 0.2000000E-02 threshold for treating states as degnerate
   RTIME   =   -0.100 relaxation time in fs
  (WPLASMAI=    0.000 imaginary part of plasma frequency in eV, 0.658/RTIME)
   DFIELD  = 0.0000000 0.0000000 0.0000000 field for delta impulse in time

 Orbital magnetization related:
   ORBITALMAG=     F  switch on orbital magnetization
   LCHIMAG   =     F  perturbation theory with respect to B field
   DQ        =  0.001000  dq finite difference perturbation B field
   LLRAUG    =     F  two centre corrections for induced B field



--------------------------------------------------------------------------------------------------------


 conjugate gradient relaxation of ions
   using selective dynamics as specified on POSCAR
 charge density and potential will be updated during run
 spin polarized calculation
 Variant of blocked Davidson
 Davidson routine will perform the subspace rotation
 perform sub-space diagonalisation
    after iterative eigenvector-optimisation
 modified Broyden-mixing scheme, WC =      100.0
 initial mixing is a Kerker type mixing with AMIX =  0.4000 and BMIX =      1.0000
 Hartree-type preconditioning will be used
 using additional bands           11
 real space projection scheme for non local part
 use partial core corrections
 calculate Harris-corrections to forces   (improved forces if not selfconsistent)
 use gradient corrections 
 use of overlap-Matrix (Vanderbilt PP)
 Fermi weights with tetrahedron method with Bloechl corrections


--------------------------------------------------------------------------------------------------------


  energy-cutoff  :      520.00
  volume of cell :      968.84
      direct lattice vectors                 reciprocal lattice vectors
     6.907777000 -0.000000000  0.000000000     0.144764372 -0.083579742  0.000000000
     3.453888000  5.982310000  0.000000000     0.000000000  0.167159509 -0.000000000
     0.000000000  0.000000000 23.444588000    -0.000000000  0.000000000  0.042653767

  length of vectors
     6.907777000  6.907776433 23.444588000     0.167159495  0.167159509  0.042653767



 k-points in units of 2pi/SCALE and weight: Kpoints from vasprun.xml                
   0.00000000  0.00000000  0.00000000       0.040
   0.02895287 -0.01671595  0.00000000       0.240
   0.05790575 -0.03343190  0.00000000       0.240
   0.05790575  0.00000000  0.00000000       0.240
  -0.05790575  0.06686380  0.00000000       0.240

 k-points in reciprocal lattice and weights: Kpoints from vasprun.xml                
   0.00000000  0.00000000  0.00000000       0.040
   0.20000000  0.00000000  0.00000000       0.240
   0.40000000  0.00000000  0.00000000       0.240
   0.40000000  0.20000000  0.00000000       0.240
  -0.40000000  0.20000000  0.00000000       0.240

 position of ions in fractional coordinates (direct lattice) 
   0.33333300  0.33333300  0.49992500
   0.66666700  0.66666700  0.50007500
   0.00000000  0.00000000  0.44821600
   0.00000000  0.00000000  0.55178400
   0.62635700  0.00042000  0.57375200
   0.00042000  0.37322400  0.57375200
   0.37322400  0.62635700  0.57375200
   0.37364300  0.99958000  0.42624800
   0.99958000  0.62677600  0.42624800
   0.62677600  0.37364300  0.42624800

 position of ions in cartesian coordinates  (Angst):
   3.45388488  1.99410134 11.72053566
   6.90778012  3.98820866 11.72405234
   0.00000000  0.00000000 10.50823946
   0.00000000  0.00000000 12.93634854
   4.32818511  0.00251257 13.45137925
   1.29197516  2.23274167 13.45137925
   4.74151509  3.74706174 13.45137925
   6.03347989  5.97979743  9.99320875
   9.06968984  3.74956833  9.99320875
   5.62014991  2.23524826  9.99320875



--------------------------------------------------------------------------------------------------------


 k-point  1 :   0.0000 0.0000 0.0000  plane waves:   26073
 k-point  2 :   0.2000 0.0000 0.0000  plane waves:   26070
 k-point  3 :   0.4000 0.0000 0.0000  plane waves:   26086
 k-point  4 :   0.4000 0.2000 0.0000  plane waves:   26085
 k-point  5 :  -0.4000 0.2000 0.0000  plane waves:   26115

 maximum and minimum number of plane-waves per node :     26115    26070

 maximum number of plane-waves:     26115
 maximum index in each direction: 
   IXMAX=   13   IYMAX=   12   IZMAX=   43
   IXMIN=  -13   IYMIN=  -13   IZMIN=  -43


 serial   3D FFT for wavefunctions
 parallel 3D FFT for charge:
    minimum data exchange during FFTs selected (reduces bandwidth)


 total amount of memory used by VASP MPI-rank0   173497. kBytes
=======================================================================

   base      :      30000. kBytes
   nonlr-proj:       7318. kBytes
   fftplans  :      20284. kBytes
   grid      :      94580. kBytes
   one-center:        311. kBytes
   wavefun   :      21004. kBytes

     INWAV:  cpu time    0.0000: real time    0.0012
 Broyden mixing: mesh for mixing (old mesh)
   NGX = 25   NGY = 25   NGZ = 87
  (NGX  =108   NGY  =108   NGZ  =360)
  gives a total of  54375 points

 initial charge density was supplied:
 charge density of overlapping atoms calculated
 number of electron      57.0000000 magnetization       6.0000000
 keeping initial charge density in first step


--------------------------------------------------------------------------------------------------------


 Maximum index for non-local projection operator         7247
 Maximum index for augmentation-charges         4076 (set IRDMAX)


--------------------------------------------------------------------------------------------------------


 First call to EWALD:  gamma=   0.179
 Maximum number of real-space cells 4x 4x 1
 Maximum number of reciprocal cells 2x 2x 6

    FEWALD:  cpu time    0.0000: real time    0.0027


--------------------------------------- Iteration      1(   1)  ---------------------------------------


vdW kernel read from vdw_kernel.bindat
  0.0000  0.2424  0.5071  0.7962  1.1119  1.4567  1.8333  2.2446  2.6937  3.1842
  3.7199  4.3049  4.9438  5.6415  6.4036  7.2358  8.1446  9.1372 10.2212 11.4050
 12.6979 14.1099 15.6519 17.3360 19.1751 21.1837 23.3773 25.7729 28.3892 31.2465
 34.3669 37.7748 41.4965 45.5611 50.0000

    POTLOK:  cpu time  107.6480: real time  108.6035
    SETDIJ:  cpu time    0.0800: real time    0.0784
     EDDAV:  cpu time   20.3760: real time   20.5274
 BZINTS: Fermi energy:  6.111259; 57.000000 electrons
         Band energy:  16.003307;  BLOECHL correction: -0.056246
       DOS:  cpu time    0.0040: real time    0.0041
    --------------------------------------------
      LOOP:  cpu time  128.1080: real time  129.2134

 eigenvalue-minimisations  :   800
 total energy-change (2. order) : 0.4408660E+03  (-0.1601574E+04)
 number of electron      57.0000000 magnetization       6.0000000
 augmentation part       57.0000000 magnetization       6.0000000

 Free energy of the ion-electron system (eV)
  ---------------------------------------------------
  alpha Z        PSCENC =        32.59752184
  Ewald energy   TEWEN  =      6221.61188061
  -Hartree energ DENC   =     -8315.35165852
  -exchange      EXHF   =         0.00000000
  -V(xc)+E(xc)   XCENC  =       -55.60585636
  PAW double counting   =      1176.88079122    -1024.24342369
  entropy T*S    EENTRO =         0.00000000
  eigenvalues    EBANDS =        16.00330730
  atomic energy  EATOM  =      2388.97348331
  Solvation  Ediel_sol  =         0.00000000
  ---------------------------------------------------
  free energy    TOTEN  =       440.86604571 eV

  energy without entropy =      440.86604571  energy(sigma->0) =      440.86604571


--------------------------------------------------------------------------------------------------------




--------------------------------------- Iteration      1(   2)  ---------------------------------------


     EDDAV:  cpu time   26.9520: real time   27.1028
 BZINTS: Fermi energy: -0.147034; 57.000000 electrons
         Band energy:-376.807456;  BLOECHL correction: -0.050314
       DOS:  cpu time    0.0040: real time    0.0037
    --------------------------------------------
      LOOP:  cpu time   26.9560: real time   27.1065

 eigenvalue-minimisations  :  1040
 total energy-change (2. order) :-0.3928108E+03  (-0.3752340E+03)
 number of electron      57.0000000 magnetization       6.0000000
 augmentation part       57.0000000 magnetization       6.0000000

 Free energy of the ion-electron system (eV)
  ---------------------------------------------------
  alpha Z        PSCENC =        32.59752184
  Ewald energy   TEWEN  =      6221.61188061
  -Hartree energ DENC   =     -8315.35165852
  -exchange      EXHF   =         0.00000000
  -V(xc)+E(xc)   XCENC  =       -55.60585636
  PAW double counting   =      1176.88079122    -1024.24342369
  entropy T*S    EENTRO =         0.00000000
  eigenvalues    EBANDS =      -376.80745561
  atomic energy  EATOM  =      2388.97348331
  Solvation  Ediel_sol  =         0.00000000
  ---------------------------------------------------
  free energy    TOTEN  =        48.05528280 eV

  energy without entropy =       48.05528280  energy(sigma->0) =       48.05528280


--------------------------------------------------------------------------------------------------------




--------------------------------------- Iteration      1(   3)  ---------------------------------------


     EDDAV:  cpu time   29.2360: real time   29.4759
 BZINTS: Fermi energy: -2.252363; 57.000000 electrons
         Band energy:-469.111121;  BLOECHL correction: -0.005953
       DOS:  cpu time    0.0040: real time    0.0040
    --------------------------------------------
      LOOP:  cpu time   29.2400: real time   29.4799

 eigenvalue-minimisations  :  1152
 total energy-change (2. order) :-0.9230367E+02  (-0.8944812E+02)
 number of electron      57.0000000 magnetization       6.0000000
 augmentation part       57.0000000 magnetization       6.0000000

 Free energy of the ion-electron system (eV)
  ---------------------------------------------------
  alpha Z        PSCENC =        32.59752184
  Ewald energy   TEWEN  =      6221.61188061
  -Hartree energ DENC   =     -8315.35165852
  -exchange      EXHF   =         0.00000000
  -V(xc)+E(xc)   XCENC  =       -55.60585636
  PAW double counting   =      1176.88079122    -1024.24342369
  entropy T*S    EENTRO =         0.00000000
  eigenvalues    EBANDS =      -469.11112139
  atomic energy  EATOM  =      2388.97348331
  Solvation  Ediel_sol  =         0.00000000
  ---------------------------------------------------
  free energy    TOTEN  =       -44.24838298 eV

  energy without entropy =      -44.24838298  energy(sigma->0) =      -44.24838298


--------------------------------------------------------------------------------------------------------




--------------------------------------- Iteration      1(   4)  ---------------------------------------


     EDDAV:  cpu time   26.6200: real time   26.8397
 BZINTS: Fermi energy: -2.347860; 57.000000 electrons
         Band energy:-476.369808;  BLOECHL correction: -0.009387
       DOS:  cpu time    0.0040: real time    0.0039
    --------------------------------------------
      LOOP:  cpu time   26.6240: real time   26.8436

 eigenvalue-minimisations  :  1136
 total energy-change (2. order) :-0.7258687E+01  (-0.6842256E+01)
 number of electron      57.0000000 magnetization       6.0000000
 augmentation part       57.0000000 magnetization       6.0000000

 Free energy of the ion-electron system (eV)
  ---------------------------------------------------
  alpha Z        PSCENC =        32.59752184
  Ewald energy   TEWEN  =      6221.61188061
  -Hartree energ DENC   =     -8315.35165852
  -exchange      EXHF   =         0.00000000
  -V(xc)+E(xc)   XCENC  =       -55.60585636
  PAW double counting   =      1176.88079122    -1024.24342369
  entropy T*S    EENTRO =         0.00000000
  eigenvalues    EBANDS =      -476.36980835
  atomic energy  EATOM  =      2388.97348331
  Solvation  Ediel_sol  =         0.00000000
  ---------------------------------------------------
  free energy    TOTEN  =       -51.50706994 eV

  energy without entropy =      -51.50706994  energy(sigma->0) =      -51.50706994


--------------------------------------------------------------------------------------------------------




--------------------------------------- Iteration      1(   5)  ---------------------------------------


     EDDAV:  cpu time   27.2040: real time   27.4715
 BZINTS: Fermi energy: -2.356905; 57.000000 electrons
         Band energy:-476.692019;  BLOECHL correction: -0.010057
       DOS:  cpu time    0.0040: real time    0.0044
    CHARGE:  cpu time    2.1240: real time    2.1243
    MIXING:  cpu time    0.0520: real time    0.0507
    --------------------------------------------
      LOOP:  cpu time   29.3840: real time   29.6508

 eigenvalue-minimisations  :  1152
 total energy-change (2. order) :-0.3222102E+00  (-0.3116371E+00)
 number of electron      56.9999994 magnetization       5.6783438
 augmentation part       -6.4714128 magnetization       4.5166683

 Broyden mixing:
  rms(total) = 0.22992E+01    rms(broyden)= 0.22992E+01
  rms(prec ) = 0.25791E+01
  weight for this iteration     100.00

 Free energy of the ion-electron system (eV)
  ---------------------------------------------------
  alpha Z        PSCENC =        32.59752184
  Ewald energy   TEWEN  =      6221.61188061
  -Hartree energ DENC   =     -8315.35165852
  -exchange      EXHF   =         0.00000000
  -V(xc)+E(xc)   XCENC  =       -55.60585636
  PAW double counting   =      1176.88079122    -1024.24342369
  entropy T*S    EENTRO =         0.00000000
  eigenvalues    EBANDS =      -476.69201859
  atomic energy  EATOM  =      2388.97348331
  Solvation  Ediel_sol  =         0.00000000
  ---------------------------------------------------
  free energy    TOTEN  =       -51.82928018 eV

  energy without entropy =      -51.82928018  energy(sigma->0) =      -51.82928018


--------------------------------------------------------------------------------------------------------




--------------------------------------- Iteration      1(   6)  ---------------------------------------


    POTLOK:  cpu time   97.0840: real time   97.5365
    SETDIJ:  cpu time    0.0720: real time    0.0687
     EDDAV:  cpu time   27.3880: real time   27.5508
 BZINTS: Fermi energy: -4.992747; 57.000000 electrons
         Band energy:-597.180556;  BLOECHL correction: -0.038792
       DOS:  cpu time    0.0040: real time    0.0050
    CHARGE:  cpu time    2.0960: real time    2.1084
    MIXING:  cpu time    0.0600: real time    0.0601
    --------------------------------------------
      LOOP:  cpu time  126.7040: real time  127.3295

 eigenvalue-minimisations  :  1160
 total energy-change (2. order) :-0.6747466E+02  (-0.4268136E+02)
 number of electron      56.9999992 magnetization       5.5564064
 augmentation part        7.5460603 magnetization       4.1066382

 Broyden mixing:
  rms(total) = 0.61184E+01    rms(broyden)= 0.61184E+01
  rms(prec ) = 0.68904E+01
  weight for this iteration     100.00

 eigenvalues of (default mixing * dielectric matrix)
  average eigenvalue GAMMA=   0.2569
  0.2569

 Free energy of the ion-electron system (eV)
  ---------------------------------------------------
  alpha Z        PSCENC =        32.59752184
  Ewald energy   TEWEN  =      6221.61188061
  -Hartree energ DENC   =     -8270.92790223
  -exchange      EXHF   =         0.00000000
  -V(xc)+E(xc)   XCENC  =       -55.93757318
  PAW double counting   =      1115.41690992     -953.85770639
  entropy T*S    EENTRO =         0.00000000
  eigenvalues    EBANDS =      -597.18055573
  atomic energy  EATOM  =      2388.97348331
  Solvation  Ediel_sol  =         0.00000000
  ---------------------------------------------------
  free energy    TOTEN  =      -119.30394186 eV

  energy without entropy =     -119.30394186  energy(sigma->0) =     -119.30394186


--------------------------------------------------------------------------------------------------------




--------------------------------------- Iteration      1(   7)  ---------------------------------------


    POTLOK:  cpu time  102.2120: real time  103.1019
    SETDIJ:  cpu time    0.0560: real time    0.0565
     EDDAV:  cpu time   24.2200: real time   24.3947
 BZINTS: Fermi energy: -3.512716; 57.000000 electrons
         Band energy:-475.472084;  BLOECHL correction: -0.026793
       DOS:  cpu time    0.0040: real time    0.0047
    CHARGE:  cpu time    2.0600: real time    2.0646
    MIXING:  cpu time    0.0520: real time    0.0527
    --------------------------------------------
      LOOP:  cpu time  128.6040: real time  129.6751

 eigenvalue-minimisations  :  1000
 total energy-change (2. order) : 0.7678767E+02  (-0.1044489E+02)
 number of electron      56.9999994 magnetization       5.5655238
 augmentation part       -2.3482979 magnetization       3.1942287

 Broyden mixing:
  rms(total) = 0.15255E+01    rms(broyden)= 0.15254E+01
  rms(prec ) = 0.15358E+01
  weight for this iteration     100.00

 eigenvalues of (default mixing * dielectric matrix)
  average eigenvalue GAMMA=   0.2879
  0.3092  0.2666

 Free energy of the ion-electron system (eV)
  ---------------------------------------------------
  alpha Z        PSCENC =        32.59752184
  Ewald energy   TEWEN  =      6221.61188061
  -Hartree energ DENC   =     -8306.46894489
  -exchange      EXHF   =         0.00000000
  -V(xc)+E(xc)   XCENC  =       -56.38305221
  PAW double counting   =      1182.78038981    -1030.15547153
  entropy T*S    EENTRO =         0.00000000
  eigenvalues    EBANDS =      -475.47208366
  atomic energy  EATOM  =      2388.97348331
  Solvation  Ediel_sol  =         0.00000000
  ---------------------------------------------------
  free energy    TOTEN  =       -42.51627671 eV

  energy without entropy =      -42.51627671  energy(sigma->0) =      -42.51627671


--------------------------------------------------------------------------------------------------------




--------------------------------------- Iteration      1(   8)  ---------------------------------------


    POTLOK:  cpu time  103.5960: real time  104.4477
    SETDIJ:  cpu time    0.0680: real time    0.0667
     EDDAV:  cpu time   23.1080: real time   23.2239
 BZINTS: Fermi energy: -3.547121; 57.000000 electrons
         Band energy:-478.044928;  BLOECHL correction: -0.012479
       DOS:  cpu time    0.0040: real time    0.0042
    CHARGE:  cpu time    2.0160: real time    2.0271
    MIXING:  cpu time    0.0640: real time    0.0662
    --------------------------------------------
      LOOP:  cpu time  128.8560: real time  129.8357

 eigenvalue-minimisations  :   928
 total energy-change (2. order) :-0.2186264E+01  (-0.1112359E+01)
 number of electron      56.9999993 magnetization       5.5522334
 augmentation part       -2.7564887 magnetization       3.5893357

 Broyden mixing:
  rms(total) = 0.97863E+00    rms(broyden)= 0.97863E+00
  rms(prec ) = 0.98621E+00
  weight for this iteration     100.00

 eigenvalues of (default mixing * dielectric matrix)
  average eigenvalue GAMMA=   0.4745
  0.5747  0.5747  0.2741

 Free energy of the ion-electron system (eV)
  ---------------------------------------------------
  alpha Z        PSCENC =        32.59752184
  Ewald energy   TEWEN  =      6221.61188061
  -Hartree energ DENC   =     -8306.55434819
  -exchange      EXHF   =         0.00000000
  -V(xc)+E(xc)   XCENC  =       -55.87029906
  PAW double counting   =      1184.24668272    -1031.66253438
  entropy T*S    EENTRO =         0.00000000
  eigenvalues    EBANDS =      -478.04492762
  atomic energy  EATOM  =      2388.97348331
  Solvation  Ediel_sol  =         0.00000000
  ---------------------------------------------------
  free energy    TOTEN  =       -44.70254077 eV

  energy without entropy =      -44.70254077  energy(sigma->0) =      -44.70254077


--------------------------------------------------------------------------------------------------------




--------------------------------------- Iteration      1(   9)  ---------------------------------------


    POTLOK:  cpu time  103.6480: real time  104.6007
    SETDIJ:  cpu time    0.0600: real time    0.0623
     EDDAV:  cpu time   28.9160: real time   29.4493
 BZINTS: Fermi energy: -3.510212; 57.000000 electrons
         Band energy:-476.551850;  BLOECHL correction: -0.011894
       DOS:  cpu time    0.0040: real time    0.0046
    CHARGE:  cpu time    2.0120: real time    2.0572
    MIXING:  cpu time    0.0560: real time    0.0570
    --------------------------------------------
      LOOP:  cpu time  134.6960: real time  136.2310

 eigenvalue-minimisations  :  1248
 total energy-change (2. order) :-0.5840164E+00  (-0.7966294E-01)
 number of electron      56.9999993 magnetization       5.5427499
 augmentation part       -2.7399050 magnetization       3.9300359

 Broyden mixing:
  rms(total) = 0.66663E+00    rms(broyden)= 0.66663E+00
  rms(prec ) = 0.67148E+00
  weight for this iteration     100.00

 eigenvalues of (default mixing * dielectric matrix)
  average eigenvalue GAMMA=   0.6778
  0.9715  0.9715  0.2731  0.4952

 Free energy of the ion-electron system (eV)
  ---------------------------------------------------
  alpha Z        PSCENC =        32.59752184
  Ewald energy   TEWEN  =      6221.61188061
  -Hartree energ DENC   =     -8309.52405278
  -exchange      EXHF   =         0.00000000
  -V(xc)+E(xc)   XCENC  =       -54.78951576
  PAW double counting   =      1193.71315388    -1041.31717825
  entropy T*S    EENTRO =         0.00000000
  eigenvalues    EBANDS =      -476.55185005
  atomic energy  EATOM  =      2388.97348331
  Solvation  Ediel_sol  =         0.00000000
  ---------------------------------------------------
  free energy    TOTEN  =       -45.28655720 eV

  energy without entropy =      -45.28655720  energy(sigma->0) =      -45.28655720


--------------------------------------------------------------------------------------------------------




--------------------------------------- Iteration      1(  10)  ---------------------------------------


    POTLOK:  cpu time  104.5280: real time  105.1250
    SETDIJ:  cpu time    0.0600: real time    0.0625
     EDDAV:  cpu time   28.0600: real time   28.2663
 BZINTS: Fermi energy: -3.488869; 57.000000 electrons
         Band energy:-475.478447;  BLOECHL correction: -0.014428
       DOS:  cpu time    0.0040: real time    0.0046
    CHARGE:  cpu time    2.0800: real time    2.0883
    MIXING:  cpu time    0.0520: real time    0.0526
    --------------------------------------------
      LOOP:  cpu time  134.7840: real time  135.5993

 eigenvalue-minimisations  :  1200
 total energy-change (2. order) :-0.3233703E+00  (-0.4691213E-01)
 number of electron      56.9999993 magnetization       5.5425110
 augmentation part       -2.5892047 magnetization       4.3138943

 Broyden mixing:
  rms(total) = 0.36047E+00    rms(broyden)= 0.36047E+00
  rms(prec ) = 0.37823E+00
  weight for this iteration     100.00

 eigenvalues of (default mixing * dielectric matrix)
  average eigenvalue GAMMA=   0.6877
  1.1628  1.1628  0.2721  0.4573  0.3836

 Free energy of the ion-electron system (eV)
  ---------------------------------------------------
  alpha Z        PSCENC =        32.59752184
  Ewald energy   TEWEN  =      6221.61188061
  -Hartree energ DENC   =     -8312.05252528
  -exchange      EXHF   =         0.00000000
  -V(xc)+E(xc)   XCENC  =       -53.25028253
  PAW double counting   =      1199.55024865    -1047.56180665
  entropy T*S    EENTRO =         0.00000000
  eigenvalues    EBANDS =      -475.47844748
  atomic energy  EATOM  =      2388.97348331
  Solvation  Ediel_sol  =         0.00000000
  ---------------------------------------------------
  free energy    TOTEN  =       -45.60992753 eV

  energy without entropy =      -45.60992753  energy(sigma->0) =      -45.60992753


--------------------------------------------------------------------------------------------------------




--------------------------------------- Iteration      1(  11)  ---------------------------------------


    POTLOK:  cpu time  104.4480: real time  105.0526
    SETDIJ:  cpu time    0.0640: real time    0.0653
     EDDAV:  cpu time   28.2720: real time   28.4434
 BZINTS: Fermi energy: -3.481929; 57.000000 electrons
         Band energy:-475.133899;  BLOECHL correction: -0.015083
       DOS:  cpu time    0.0040: real time    0.0050
    CHARGE:  cpu time    2.0680: real time    2.0890
    MIXING:  cpu time    0.0520: real time    0.0519
    --------------------------------------------
      LOOP:  cpu time  134.9080: real time  135.7071

 eigenvalue-minimisations  :  1192
 total energy-change (2. order) :-0.1082450E-01  (-0.2501605E-01)
 number of electron      56.9999993 magnetization       5.5457128
 augmentation part       -2.5908712 magnetization       4.4807316

 Broyden mixing:
  rms(total) = 0.17805E+00    rms(broyden)= 0.17805E+00
  rms(prec ) = 0.18439E+00
  weight for this iteration     100.00

 eigenvalues of (default mixing * dielectric matrix)
  average eigenvalue GAMMA=   0.7843
  1.4605  1.4605  0.6191  0.6191  0.2733  0.2733

 Free energy of the ion-electron system (eV)
  ---------------------------------------------------
  alpha Z        PSCENC =        32.59752184
  Ewald energy   TEWEN  =      6221.61188061
  -Hartree energ DENC   =     -8312.90819492
  -exchange      EXHF   =         0.00000000
  -V(xc)+E(xc)   XCENC  =       -52.56414667
  PAW double counting   =      1201.15028847    -1049.34768544
  entropy T*S    EENTRO =         0.00000000
  eigenvalues    EBANDS =      -475.13389923
  atomic energy  EATOM  =      2388.97348331
  Solvation  Ediel_sol  =         0.00000000
  ---------------------------------------------------
  free energy    TOTEN  =       -45.62075204 eV

  energy without entropy =      -45.62075204  energy(sigma->0) =      -45.62075204


--------------------------------------------------------------------------------------------------------




--------------------------------------- Iteration      1(  12)  ---------------------------------------


    POTLOK:  cpu time  106.5200: real time  107.4625
    SETDIJ:  cpu time    0.0640: real time    0.0653
     EDDAV:  cpu time   28.7800: real time   29.3152
 BZINTS: Fermi energy: -3.480991; 57.000000 electrons
         Band energy:-475.052255;  BLOECHL correction: -0.014657
       DOS:  cpu time    0.0040: real time    0.0040
    CHARGE:  cpu time    2.0040: real time    2.0127
    MIXING:  cpu time    0.0560: real time    0.0561
    --------------------------------------------
      LOOP:  cpu time  137.4280: real time  138.9159

 eigenvalue-minimisations  :  1232
 total energy-change (2. order) :-0.1767216E-01  (-0.7803969E-02)
 number of electron      56.9999993 magnetization       5.5387055
 augmentation part       -2.6633248 magnetization       4.6565792

 Broyden mixing:
  rms(total) = 0.43061E-01    rms(broyden)= 0.43060E-01
  rms(prec ) = 0.45633E-01
  weight for this iteration     100.00

 eigenvalues of (default mixing * dielectric matrix)
  average eigenvalue GAMMA=   0.8891
  2.0333  1.1939  1.1939  0.6254  0.6254  0.2724  0.2796

 Free energy of the ion-electron system (eV)
  ---------------------------------------------------
  alpha Z        PSCENC =        32.59752184
  Ewald energy   TEWEN  =      6221.61188061
  -Hartree energ DENC   =     -8313.60358612
  -exchange      EXHF   =         0.00000000
  -V(xc)+E(xc)   XCENC  =       -51.81997142
  PAW double counting   =      1202.24710955    -1050.59260690
  entropy T*S    EENTRO =         0.00000000
  eigenvalues    EBANDS =      -475.05225507
  atomic energy  EATOM  =      2388.97348331
  Solvation  Ediel_sol  =         0.00000000
  ---------------------------------------------------
  free energy    TOTEN  =       -45.63842420 eV

  energy without entropy =      -45.63842420  energy(sigma->0) =      -45.63842420


--------------------------------------------------------------------------------------------------------




--------------------------------------- Iteration      1(  13)  ---------------------------------------


    POTLOK:  cpu time   97.3000: real time   97.4286
    SETDIJ:  cpu time    0.0680: real time    0.0676
     EDDAV:  cpu time   27.2800: real time   27.3879
 BZINTS: Fermi energy: -3.476154; 57.000000 electrons
         Band energy:-475.129098;  BLOECHL correction: -0.013728
       DOS:  cpu time    0.0000: real time    0.0045
    CHARGE:  cpu time    2.1520: real time    2.1494
    MIXING:  cpu time    0.0520: real time    0.0539
    --------------------------------------------
      LOOP:  cpu time  126.8520: real time  127.0920

 eigenvalue-minimisations  :  1152
 total energy-change (2. order) :-0.2047214E-02  (-0.2009206E-02)
 number of electron      56.9999993 magnetization       5.5174797
 augmentation part       -2.7189254 magnetization       4.7443339

 Broyden mixing:
  rms(total) = 0.43581E-01    rms(broyden)= 0.43580E-01
  rms(prec ) = 0.45157E-01
  weight for this iteration     100.00

 eigenvalues of (default mixing * dielectric matrix)
  average eigenvalue GAMMA=   0.9810
  2.5462  1.3695  1.3695  0.7077  0.7077  0.5945  0.2722  0.2807

 Free energy of the ion-electron system (eV)
  ---------------------------------------------------
  alpha Z        PSCENC =        32.59752184
  Ewald energy   TEWEN  =      6221.61188061
  -Hartree energ DENC   =     -8313.60539240
  -exchange      EXHF   =         0.00000000
  -V(xc)+E(xc)   XCENC  =       -51.64005717
  PAW double counting   =      1201.57862914    -1050.02743826
  entropy T*S    EENTRO =         0.00000000
  eigenvalues    EBANDS =      -475.12909848
  atomic energy  EATOM  =      2388.97348331
  Solvation  Ediel_sol  =         0.00000000
  ---------------------------------------------------
  free energy    TOTEN  =       -45.64047141 eV

  energy without entropy =      -45.64047141  energy(sigma->0) =      -45.64047141


--------------------------------------------------------------------------------------------------------




--------------------------------------- Iteration      1(  14)  ---------------------------------------


    POTLOK:  cpu time   97.7320: real time   97.9589
    SETDIJ:  cpu time    0.0600: real time    0.0606
     EDDAV:  cpu time   34.7080: real time   34.8862
 BZINTS: Fermi energy: -3.470043; 57.000000 electrons
         Band energy:-475.046918;  BLOECHL correction: -0.013832
       DOS:  cpu time    0.0040: real time    0.0062
    CHARGE:  cpu time    3.2040: real time    3.2078
    MIXING:  cpu time    0.0720: real time    0.0712
    --------------------------------------------
      LOOP:  cpu time  135.7800: real time  136.1909

 eigenvalue-minimisations  :  1192
 total energy-change (2. order) : 0.6600573E-03  (-0.3563066E-03)
 number of electron      56.9999993 magnetization       5.5037181
 augmentation part       -2.7104436 magnetization       4.7378447

 Broyden mixing:
  rms(total) = 0.18023E-01    rms(broyden)= 0.18023E-01
  rms(prec ) = 0.19156E-01
  weight for this iteration     100.00

 eigenvalues of (default mixing * dielectric matrix)
  average eigenvalue GAMMA=   0.9778
  2.5289  1.4311  1.4311  0.8086  0.8086  0.6195  0.6195  0.2723  0.2806

 Free energy of the ion-electron system (eV)
  ---------------------------------------------------
  alpha Z        PSCENC =        32.59752184
  Ewald energy   TEWEN  =      6221.61188061
  -Hartree energ DENC   =     -8313.68180884
  -exchange      EXHF   =         0.00000000
  -V(xc)+E(xc)   XCENC  =       -51.68431853
  PAW double counting   =      1201.54114360    -1049.95079526
  entropy T*S    EENTRO =         0.00000000
  eigenvalues    EBANDS =      -475.04691807
  atomic energy  EATOM  =      2388.97348331
  Solvation  Ediel_sol  =         0.00000000
  ---------------------------------------------------
  free energy    TOTEN  =       -45.63981135 eV

  energy without entropy =      -45.63981135  energy(sigma->0) =      -45.63981135


--------------------------------------------------------------------------------------------------------




--------------------------------------- Iteration      1(  15)  ---------------------------------------


    POTLOK:  cpu time  102.1680: real time  102.4296
    SETDIJ:  cpu time    0.0560: real time    0.0548
     EDDAV:  cpu time   35.4160: real time   35.6323
 BZINTS: Fermi energy: -3.467823; 57.000000 electrons
         Band energy:-474.858043;  BLOECHL correction: -0.013940
       DOS:  cpu time    0.0040: real time    0.0058
    CHARGE:  cpu time    3.3120: real time    3.4086
    MIXING:  cpu time    0.0920: real time    0.0936
    --------------------------------------------
      LOOP:  cpu time  141.0480: real time  141.6248

 eigenvalue-minimisations  :  1128
 total energy-change (2. order) :-0.8835964E-03  (-0.1066297E-03)
 number of electron      56.9999993 magnetization       5.4868207
 augmentation part       -2.6986933 magnetization       4.7114707

 Broyden mixing:
  rms(total) = 0.92044E-02    rms(broyden)= 0.92043E-02
  rms(prec ) = 0.98675E-02
  weight for this iteration     100.00

 eigenvalues of (default mixing * dielectric matrix)
  average eigenvalue GAMMA=   1.0051
  2.5512  1.4935  1.4935  0.9789  0.9789  0.6895  0.6895  0.6226  0.2723  0.2806

 Free energy of the ion-electron system (eV)
  ---------------------------------------------------
  alpha Z        PSCENC =        32.59752184
  Ewald energy   TEWEN  =      6221.61188061
  -Hartree energ DENC   =     -8313.84175212
  -exchange      EXHF   =         0.00000000
  -V(xc)+E(xc)   XCENC  =       -51.70377249
  PAW double counting   =      1201.41725838    -1049.83727107
  entropy T*S    EENTRO =         0.00000000
  eigenvalues    EBANDS =      -474.85804341
  atomic energy  EATOM  =      2388.97348331
  Solvation  Ediel_sol  =         0.00000000
  ---------------------------------------------------
  free energy    TOTEN  =       -45.64069495 eV

  energy without entropy =      -45.64069495  energy(sigma->0) =      -45.64069495


--------------------------------------------------------------------------------------------------------




--------------------------------------- Iteration      1(  16)  ---------------------------------------


    POTLOK:  cpu time  101.3320: real time  101.5921
    SETDIJ:  cpu time    0.0640: real time    0.0615
     EDDAV:  cpu time   24.2880: real time   24.5533
 BZINTS: Fermi energy: -3.464224; 57.000000 electrons
         Band energy:-474.606158;  BLOECHL correction: -0.014009
       DOS:  cpu time    0.0040: real time    0.0300
    CHARGE:  cpu time    3.2320: real time    3.2846
    MIXING:  cpu time    0.0720: real time    0.0699
    --------------------------------------------
      LOOP:  cpu time  128.9920: real time  129.5913

 eigenvalue-minimisations  :   856
 total energy-change (2. order) :-0.5945013E-03  (-0.3799443E-04)
 number of electron      56.9999993 magnetization       5.4690790
 augmentation part       -2.6928463 magnetization       4.6905432

 Broyden mixing:
  rms(total) = 0.61923E-02    rms(broyden)= 0.61923E-02
  rms(prec ) = 0.69832E-02
  weight for this iteration     100.00

 eigenvalues of (default mixing * dielectric matrix)
  average eigenvalue GAMMA=   1.0485
  2.5299  1.9049  1.4149  1.4149  0.8857  0.8857  0.2723  0.2806  0.6710  0.6710
  0.6027

 Free energy of the ion-electron system (eV)
  ---------------------------------------------------
  alpha Z        PSCENC =        32.59752184
  Ewald energy   TEWEN  =      6221.61188061
  -Hartree energ DENC   =     -8314.09130958
  -exchange      EXHF   =         0.00000000
  -V(xc)+E(xc)   XCENC  =       -51.71271810
  PAW double counting   =      1201.38981395    -1049.80380367
  entropy T*S    EENTRO =         0.00000000
  eigenvalues    EBANDS =      -474.60615781
  atomic energy  EATOM  =      2388.97348331
  Solvation  Ediel_sol  =         0.00000000
  ---------------------------------------------------
  free energy    TOTEN  =       -45.64128945 eV

  energy without entropy =      -45.64128945  energy(sigma->0) =      -45.64128945


--------------------------------------------------------------------------------------------------------




--------------------------------------- Iteration      1(  17)  ---------------------------------------


    POTLOK:  cpu time  107.6400: real time  109.4305
    SETDIJ:  cpu time    0.0720: real time    0.0691
     EDDAV:  cpu time   19.8880: real time   20.3150
 BZINTS: Fermi energy: -3.459184; 57.000000 electrons
         Band energy:-474.336437;  BLOECHL correction: -0.014017
       DOS:  cpu time    0.0040: real time    0.0043
    CHARGE:  cpu time    2.0760: real time    2.1137
    MIXING:  cpu time    0.0640: real time    0.0649
    --------------------------------------------
      LOOP:  cpu time  129.7440: real time  131.9976

 eigenvalue-minimisations  :   776
 total energy-change (2. order) : 0.1119601E-02  (-0.3082972E-04)
 number of electron      56.9999993 magnetization       5.4445386
 augmentation part       -2.6927637 magnetization       4.6634863

 Broyden mixing:
  rms(total) = 0.48069E-02    rms(broyden)= 0.48069E-02
  rms(prec ) = 0.56271E-02
  weight for this iteration     100.00

 eigenvalues of (default mixing * dielectric matrix)
  average eigenvalue GAMMA=   1.1055
  2.7904  2.4014  1.4543  1.4543  0.9640  0.9640  0.2723  0.2806  0.7177  0.7177
  0.6245  0.6245

 Free energy of the ion-electron system (eV)
  ---------------------------------------------------
  alpha Z        PSCENC =        32.59752184
  Ewald energy   TEWEN  =      6221.61188061
  -Hartree energ DENC   =     -8314.35492738
  -exchange      EXHF   =         0.00000000
  -V(xc)+E(xc)   XCENC  =       -51.71474121
  PAW double counting   =      1201.25187074    -1049.66882091
  entropy T*S    EENTRO =         0.00000000
  eigenvalues    EBANDS =      -474.33643685
  atomic energy  EATOM  =      2388.97348331
  Solvation  Ediel_sol  =         0.00000000
  ---------------------------------------------------
  free energy    TOTEN  =       -45.64016985 eV

  energy without entropy =      -45.64016985  energy(sigma->0) =      -45.64016985


--------------------------------------------------------------------------------------------------------




--------------------------------------- Iteration      1(  18)  ---------------------------------------


    POTLOK:  cpu time   96.9000: real time   97.5232
    SETDIJ:  cpu time    0.0680: real time    0.0698
     EDDAV:  cpu time   20.7960: real time   20.9664
 BZINTS: Fermi energy: -3.451885; 57.000000 electrons
         Band energy:-473.947489;  BLOECHL correction: -0.014011
       DOS:  cpu time    0.0040: real time    0.0046
    CHARGE:  cpu time    2.0960: real time    2.1118
    MIXING:  cpu time    0.0760: real time    0.0761
    --------------------------------------------
      LOOP:  cpu time  119.9400: real time  120.7519

 eigenvalue-minimisations  :   808
 total energy-change (2. order) : 0.2082278E-02  (-0.2617576E-04)
 number of electron      56.9999993 magnetization       5.4227041
 augmentation part       -2.6940449 magnetization       4.6425949

 Broyden mixing:
  rms(total) = 0.34011E-02    rms(broyden)= 0.34011E-02
  rms(prec ) = 0.41345E-02
  weight for this iteration     100.00

 eigenvalues of (default mixing * dielectric matrix)
  average eigenvalue GAMMA=   1.1906
  3.8439  2.4028  1.4411  1.4411  1.1943  0.9659  0.9659  0.2723  0.2806  0.7066
  0.7066  0.6282  0.6282

 Free energy of the ion-electron system (eV)
  ---------------------------------------------------
  alpha Z        PSCENC =        32.59752184
  Ewald energy   TEWEN  =      6221.61188061
  -Hartree energ DENC   =     -8314.75176238
  -exchange      EXHF   =         0.00000000
  -V(xc)+E(xc)   XCENC  =       -51.70416390
  PAW double counting   =      1201.16249774    -1049.58005548
  entropy T*S    EENTRO =         0.00000000
  eigenvalues    EBANDS =      -473.94748931
  atomic energy  EATOM  =      2388.97348331
  Solvation  Ediel_sol  =         0.00000000
  ---------------------------------------------------
  free energy    TOTEN  =       -45.63808757 eV

  energy without entropy =      -45.63808757  energy(sigma->0) =      -45.63808757


--------------------------------------------------------------------------------------------------------




--------------------------------------- Iteration      1(  19)  ---------------------------------------


    POTLOK:  cpu time   96.8200: real time   97.5446
    SETDIJ:  cpu time    0.0720: real time    0.0698
     EDDAV:  cpu time   27.2560: real time   27.5461
 BZINTS: Fermi energy: -3.445501; 57.000000 electrons
         Band energy:-473.585991;  BLOECHL correction: -0.013977
       DOS:  cpu time    0.0040: real time    0.0055
    CHARGE:  cpu time    3.1920: real time    3.3127
    MIXING:  cpu time    0.1200: real time    0.1206
    --------------------------------------------
      LOOP:  cpu time  127.4640: real time  128.5994

 eigenvalue-minimisations  :   792
 total energy-change (2. order) :-0.7526542E-03  (-0.2560605E-04)
 number of electron      56.9999993 magnetization       5.4008954
 augmentation part       -2.6953926 magnetization       4.6256941

 Broyden mixing:
  rms(total) = 0.30248E-02    rms(broyden)= 0.30248E-02
  rms(prec ) = 0.36325E-02
  weight for this iteration     100.00

 eigenvalues of (default mixing * dielectric matrix)
  average eigenvalue GAMMA=   1.3364
  5.6654  2.4137  1.8816  1.4463  1.4463  0.9380  0.9380  0.2723  0.2806  0.7676
  0.7676  0.6474  0.6474  0.5979

 Free energy of the ion-electron system (eV)
  ---------------------------------------------------
  alpha Z        PSCENC =        32.59752184
  Ewald energy   TEWEN  =      6221.61188061
  -Hartree energ DENC   =     -8315.12147430
  -exchange      EXHF   =         0.00000000
  -V(xc)+E(xc)   XCENC  =       -51.69803534
  PAW double counting   =      1201.13287241    -1049.54909768
  entropy T*S    EENTRO =         0.00000000
  eigenvalues    EBANDS =      -473.58599109
  atomic energy  EATOM  =      2388.97348331
  Solvation  Ediel_sol  =         0.00000000
  ---------------------------------------------------
  free energy    TOTEN  =       -45.63884023 eV

  energy without entropy =      -45.63884023  energy(sigma->0) =      -45.63884023


--------------------------------------------------------------------------------------------------------




--------------------------------------- Iteration      1(  20)  ---------------------------------------


    POTLOK:  cpu time  102.4000: real time  102.9155
    SETDIJ:  cpu time    0.0680: real time    0.0698
     EDDAV:  cpu time   25.0000: real time   25.1796
 BZINTS: Fermi energy: -3.438742; 57.000000 electrons
         Band energy:-473.212058;  BLOECHL correction: -0.013937
       DOS:  cpu time    0.0040: real time    0.0051
    CHARGE:  cpu time    3.2600: real time    3.2739
    MIXING:  cpu time    0.1360: real time    0.1334
    --------------------------------------------
      LOOP:  cpu time  130.8680: real time  131.5773

 eigenvalue-minimisations  :   872
 total energy-change (2. order) :-0.1790305E-02  (-0.2711470E-04)
 number of electron      56.9999993 magnetization       5.3900208
 augmentation part       -2.6957436 magnetization       4.6200002

 Broyden mixing:
  rms(total) = 0.17193E-02    rms(broyden)= 0.17193E-02
  rms(prec ) = 0.24628E-02
  weight for this iteration     100.00

 eigenvalues of (default mixing * dielectric matrix)
  average eigenvalue GAMMA=   1.5271
  8.2706  2.5413  2.2653  1.4856  1.4856  0.2723  0.2806  0.9475  0.9475  0.8977
  0.8977  0.6890  0.6890  0.6185  0.6185

 Free energy of the ion-electron system (eV)
  ---------------------------------------------------
  alpha Z        PSCENC =        32.59752184
  Ewald energy   TEWEN  =      6221.61188061
  -Hartree energ DENC   =     -8315.49556671
  -exchange      EXHF   =         0.00000000
  -V(xc)+E(xc)   XCENC  =       -51.70199940
  PAW double counting   =      1201.08812079    -1049.50201264
  entropy T*S    EENTRO =         0.00000000
  eigenvalues    EBANDS =      -473.21205833
  atomic energy  EATOM  =      2388.97348331
  Solvation  Ediel_sol  =         0.00000000
  ---------------------------------------------------
  free energy    TOTEN  =       -45.64063053 eV

  energy without entropy =      -45.64063053  energy(sigma->0) =      -45.64063053


--------------------------------------------------------------------------------------------------------




--------------------------------------- Iteration      1(  21)  ---------------------------------------


    POTLOK:  cpu time  103.4960: real time  104.1550
    SETDIJ:  cpu time    0.0720: real time    0.0695
     EDDAV:  cpu time   19.3360: real time   19.6039
 BZINTS: Fermi energy: -3.434754; 57.000000 electrons
         Band energy:-472.998372;  BLOECHL correction: -0.013939
       DOS:  cpu time    0.0040: real time    0.0048
    CHARGE:  cpu time    2.0320: real time    2.1301
    MIXING:  cpu time    0.0760: real time    0.0742
    --------------------------------------------
      LOOP:  cpu time  125.0160: real time  126.0374

 eigenvalue-minimisations  :   736
 total energy-change (2. order) :-0.6652870E-03  (-0.8944060E-05)
 number of electron      56.9999993 magnetization       5.3862537
 augmentation part       -2.6946949 magnetization       4.6181585

 Broyden mixing:
  rms(total) = 0.91855E-03    rms(broyden)= 0.91855E-03
  rms(prec ) = 0.17990E-02
  weight for this iteration     100.00

 eigenvalues of (default mixing * dielectric matrix)
  average eigenvalue GAMMA=   1.5850
  9.4714  2.7009  2.2869  1.4996  1.4996  0.2723  0.2806  1.0648  1.0648  0.9342
  0.9342  0.7033  0.7033  0.7084  0.6176  0.6176

 Free energy of the ion-electron system (eV)
  ---------------------------------------------------
  alpha Z        PSCENC =        32.59752184
  Ewald energy   TEWEN  =      6221.61188061
  -Hartree energ DENC   =     -8315.71103479
  -exchange      EXHF   =         0.00000000
  -V(xc)+E(xc)   XCENC  =       -51.70278031
  PAW double counting   =      1201.08906699    -1049.50106117
  entropy T*S    EENTRO =         0.00000000
  eigenvalues    EBANDS =      -472.99837230
  atomic energy  EATOM  =      2388.97348331
  Solvation  Ediel_sol  =         0.00000000
  ---------------------------------------------------
  free energy    TOTEN  =       -45.64129582 eV

  energy without entropy =      -45.64129582  energy(sigma->0) =      -45.64129582


--------------------------------------------------------------------------------------------------------




--------------------------------------- Iteration      1(  22)  ---------------------------------------


    POTLOK:  cpu time  102.6520: real time  103.7177
    SETDIJ:  cpu time    0.0720: real time    0.0696
     EDDAV:  cpu time   18.4000: real time   18.6085
 BZINTS: Fermi energy: -3.432490; 57.000000 electrons
         Band energy:-472.872621;  BLOECHL correction: -0.013941
       DOS:  cpu time    0.0040: real time    0.0040
    --------------------------------------------
      LOOP:  cpu time  121.1280: real time  122.3997

 eigenvalue-minimisations  :   680
 total energy-change (2. order) : 0.6619157E-04  (-0.2917744E-05)
 number of electron      56.9999993 magnetization       5.3862537
 augmentation part       -2.6946949 magnetization       4.6181585

 Free energy of the ion-electron system (eV)
  ---------------------------------------------------
  alpha Z        PSCENC =        32.59752184
  Ewald energy   TEWEN  =      6221.61188061
  -Hartree energ DENC   =     -8315.83722738
  -exchange      EXHF   =         0.00000000
  -V(xc)+E(xc)   XCENC  =       -51.70128118
  PAW double counting   =      1201.09802628    -1049.51101192
  entropy T*S    EENTRO =         0.00000000
  eigenvalues    EBANDS =      -472.87262119
  atomic energy  EATOM  =      2388.97348331
  Solvation  Ediel_sol  =         0.00000000
  ---------------------------------------------------
  free energy    TOTEN  =       -45.64122963 eV

  energy without entropy =      -45.64122963  energy(sigma->0) =      -45.64122963


[...]
     18      -5.3966      1.00000
     19      -5.3405      1.00000
     20      -4.9511      1.00000
     21      -4.7960      1.00000
     22      -4.3962      1.00000
     23      -4.2297      1.00000
     24      -3.9825      1.00000
     25      -3.9005      1.00000
     26      -2.6746      1.07008
     27      -1.6115      0.00000
     28      -1.4901      0.00000
     29      -1.3655      0.00000
     30      -0.9551      0.00000
     31      -0.8159      0.00000
     32      -0.8143      0.00000
     33      -0.5593      0.00000
     34      -0.3154      0.00000
     35      -0.2646      0.00000
     36       0.0181      0.00000
     37       0.1666      0.00000
     38       0.4856      0.00000
     39       0.5827      0.00000
     40       1.3193      0.00000

 k-point     5 :      -0.4000    0.2000    0.0000
  band No.  band energies     occupation 
      1     -16.8300      1.00000
      2     -16.1610      1.00000
      3     -15.9026      1.00000
      4     -15.8263      1.00000
      5     -15.5823      1.00000
      6     -15.4288      1.00000
      7     -12.5851      1.00000
      8     -10.4411      1.00000
      9      -7.9233      1.00000
     10      -7.4498      1.00000
     11      -7.2573      1.00000
     12      -6.7412      1.00000
     13      -6.6278      1.00000
     14      -6.1196      1.00000
     15      -5.8606      1.00000
     16      -5.7255      1.00000
     17      -5.6634      1.00000
     18      -5.2421      1.00000
     19      -5.1282      1.00000
     20      -5.0323      1.00000
     21      -4.8095      1.00000
     22      -4.3029      1.00000
     23      -4.1420      1.00000
     24      -4.1087      1.00000
     25      -4.0482      1.00000
     26      -3.0253      1.00000
     27      -1.8196      0.00000
     28      -1.6032      0.00000
     29      -1.5750      0.00000
     30      -0.9408      0.00000
     31      -0.8524      0.00000
     32      -0.8278      0.00000
     33      -0.5816      0.00000
     34      -0.4796      0.00000
     35      -0.0302      0.00000
     36       0.0500      0.00000
     37       0.0560      0.00000
     38       0.3306      0.00000
     39       0.6350      0.00000
     40       1.3140      0.00000


--------------------------------------------------------------------------------------------------------


 soft charge-density along one line, spin component           1
         0         1         2         3         4         5         6         7         8         9
 total charge-density along one line

 soft charge-density along one line, spin component           2
         0         1         2         3         4         5         6         7         8         9
 total charge-density along one line

 pseudopotential strength for first ion, spin component:           1
 -8.816   0.086  -0.000   0.004   0.000   0.691  -0.023   0.000
  0.086  -8.725   0.000   0.000   0.004  -0.023   0.666  -0.000
 -0.000   0.000  -8.898   0.000   0.000   0.000  -0.000   0.713
  0.004   0.000   0.000  -8.725  -0.086  -0.001  -0.000  -0.000
  0.000   0.004   0.000  -0.086  -8.816  -0.000  -0.001  -0.000
  0.691  -0.023   0.000  -0.001  -0.000   0.361   0.006  -0.000
 -0.023   0.666  -0.000  -0.000  -0.001   0.006   0.367   0.000
  0.000  -0.000   0.713  -0.000  -0.000  -0.000   0.000   0.356
 -0.001  -0.000  -0.000   0.666   0.023   0.000   0.000   0.000
 -0.000  -0.001  -0.000   0.023   0.691   0.000   0.000   0.000
 -0.000  -0.000  -0.001  -0.000   0.000  -0.000   0.000   0.000
  0.000   0.000   0.000   0.000  -0.000  -0.000  -0.000  -0.000
  0.001   0.006   0.000  -0.000   0.002  -0.000  -0.001  -0.000
 -0.000  -0.000   0.005  -0.000  -0.000   0.000   0.000  -0.001
  0.002  -0.000   0.000   0.006  -0.001  -0.000   0.000  -0.000
 -0.001  -0.004  -0.000   0.000  -0.001   0.000   0.001   0.000
  0.000   0.000  -0.003   0.000   0.000  -0.000  -0.000   0.001
 -0.001   0.000  -0.000  -0.004   0.001   0.000  -0.000   0.000
 pseudopotential strength for first ion, spin component:           2
 -7.256  -0.166  -0.000  -0.003   0.000   0.250   0.043   0.000
 -0.166  -7.437   0.000   0.000  -0.003   0.043   0.297  -0.000
 -0.000   0.000  -7.115   0.000   0.000   0.000  -0.000   0.213
 -0.003   0.000   0.000  -7.437   0.166   0.001  -0.000  -0.000
  0.000  -0.003   0.000   0.166  -7.256  -0.000   0.001  -0.000
  0.250   0.043   0.000   0.001  -0.000   0.482  -0.011  -0.000
  0.043   0.297  -0.000  -0.000   0.001  -0.011   0.470   0.000
  0.000  -0.000   0.213  -0.000  -0.000  -0.000   0.000   0.491
  0.001  -0.000  -0.000   0.297  -0.043  -0.000   0.000   0.000
 -0.000   0.001  -0.000  -0.043   0.250   0.000  -0.000   0.000
 -0.000  -0.000   0.004  -0.000   0.000  -0.000   0.000  -0.000
  0.000   0.000  -0.001   0.000  -0.000  -0.000  -0.000   0.000
 -0.000   0.006   0.000  -0.000   0.001   0.000  -0.001  -0.000
 -0.000  -0.000   0.008  -0.000   0.000   0.000   0.000  -0.002
  0.001  -0.000   0.000   0.006   0.000   0.000   0.000  -0.000
 -0.000  -0.004  -0.000   0.000  -0.001  -0.000   0.001   0.000
  0.000   0.000  -0.004   0.000  -0.000  -0.000  -0.000   0.001
 -0.001   0.000  -0.000  -0.004   0.000   0.000  -0.000   0.000
 total augmentation occupancy for first ion, spin component:           1
  0.988  -0.074   0.000   0.021  -0.000   0.062   0.220  -0.000   0.003   0.000  -0.000  -0.000   0.003   0.000   0.014  -0.000
 -0.074   0.944  -0.000  -0.000   0.021   0.219   0.290   0.000   0.000   0.003  -0.000  -0.000   0.012   0.000  -0.003   0.001
  0.000  -0.000   1.042  -0.000  -0.000  -0.000   0.000  -0.110   0.000   0.000  -0.003  -0.013  -0.000   0.003   0.000  -0.000
  0.021  -0.000  -0.000   0.944   0.074   0.003  -0.000   0.000   0.290  -0.219  -0.000   0.000   0.003  -0.000   0.012  -0.000
 -0.000   0.021  -0.000   0.074   0.988  -0.000   0.003   0.000  -0.220   0.062   0.000   0.000   0.014  -0.000  -0.003  -0.000
  0.062   0.219  -0.000   0.003  -0.000   0.182   0.087   0.000   0.000  -0.000   0.000  -0.000   0.011  -0.000   0.023   0.000
  0.220   0.290   0.000  -0.000   0.003   0.087   0.271   0.000  -0.000   0.000   0.000   0.000   0.013   0.000  -0.005  -0.000
 -0.000   0.000  -0.110   0.000   0.000   0.000   0.000   0.171   0.000  -0.000   0.044  -0.009  -0.000  -0.006   0.000   0.000
  0.003   0.000   0.000   0.290  -0.220   0.000  -0.000   0.000   0.271  -0.087   0.000   0.000   0.005   0.000   0.013  -0.000
  0.000   0.003   0.000  -0.219   0.062  -0.000   0.000  -0.000  -0.087   0.182  -0.000   0.000   0.023   0.000  -0.011  -0.001
 -0.000  -0.000  -0.003  -0.000   0.000   0.000   0.000   0.044   0.000  -0.000   1.071  -0.176   0.000   0.014  -0.000   0.000
 -0.000  -0.000  -0.013   0.000   0.000  -0.000   0.000  -0.009  -0.000   0.000  -0.176   0.069   0.000  -0.005  -0.000   0.000
  0.003   0.012  -0.000   0.003   0.014   0.011   0.013  -0.000   0.005   0.023   0.000  -0.000   0.225   0.000  -0.000  -0.002
  0.000   0.000   0.003  -0.000  -0.000  -0.000   0.000  -0.006   0.000   0.000   0.014  -0.005   0.000   0.240  -0.000   0.000
  0.014  -0.003   0.000   0.012  -0.003   0.023  -0.005   0.000   0.013  -0.011  -0.000  -0.000  -0.000  -0.000   0.225  -0.000
 -0.000   0.001  -0.000  -0.000  -0.000   0.000  -0.000   0.000  -0.000  -0.001   0.000   0.000  -0.002  -0.000  -0.000   0.000
  0.000  -0.000   0.002  -0.000  -0.000  -0.000   0.000  -0.000   0.000   0.000   0.000   0.000   0.000  -0.004  -0.000   0.000
 -0.000   0.000  -0.000   0.001   0.000  -0.001   0.000  -0.000  -0.000  -0.000  -0.000  -0.000   0.000   0.000  -0.002  -0.000
 total augmentation occupancy for first ion, spin component:           2
  0.679  -0.277   0.000  -0.006  -0.000  -0.159   0.061  -0.000  -0.002  -0.002  -0.000  -0.000  -0.004   0.000  -0.005  -0.000
 -0.277   0.379  -0.000  -0.000  -0.006   0.063  -0.096   0.000  -0.001  -0.004  -0.000  -0.000   0.001   0.000   0.010   0.001
  0.000  -0.000   0.904  -0.000  -0.000  -0.000   0.000  -0.233   0.000   0.000  -0.023  -0.005  -0.000   0.011  -0.000  -0.000
 -0.006  -0.000  -0.000   0.379   0.277  -0.004   0.001   0.000  -0.096  -0.063   0.000  -0.000  -0.010  -0.000   0.001  -0.000
 -0.000  -0.006  -0.000   0.277   0.679   0.002  -0.002   0.000  -0.061  -0.159   0.000   0.000  -0.005  -0.000   0.004   0.001
 -0.159   0.063  -0.000  -0.004   0.002  -0.001  -0.047   0.000  -0.001  -0.000   0.000   0.000   0.002  -0.000  -0.004   0.000
  0.061  -0.096   0.000   0.001  -0.002  -0.047  -0.048  -0.000   0.000  -0.001   0.000   0.000  -0.001   0.000   0.000  -0.000
 -0.000   0.000  -0.233   0.000   0.000   0.000  -0.000   0.056  -0.000  -0.000   0.011   0.004   0.000  -0.002  -0.000   0.000
 -0.002  -0.001   0.000  -0.096  -0.061  -0.001   0.000  -0.000  -0.048   0.047   0.000   0.000  -0.000   0.000  -0.001  -0.000
 -0.002  -0.004   0.000  -0.063  -0.159  -0.000  -0.001  -0.000   0.047  -0.001  -0.000  -0.000  -0.004   0.000  -0.002  -0.000
 -0.000  -0.000  -0.023   0.000   0.000   0.000   0.000   0.011   0.000  -0.000   0.155   0.062   0.000   0.002   0.000  -0.000
 -0.000  -0.000  -0.005   0.000   0.000   0.000   0.000   0.004  -0.000  -0.000   0.062  -0.020   0.000   0.001  -0.000  -0.000
 -0.004   0.001  -0.000  -0.010  -0.005   0.002  -0.001   0.000  -0.000  -0.004   0.000  -0.000   0.025   0.000  -0.000   0.003
  0.000  -0.000   0.011  -0.000  -0.000  -0.000   0.000  -0.002   0.000   0.000   0.002   0.001   0.000   0.020  -0.000   0.000
 -0.005   0.010  -0.000   0.001   0.004  -0.004   0.000  -0.000  -0.001  -0.002   0.000  -0.000  -0.000  -0.000   0.025   0.000
 -0.000   0.001  -0.000  -0.000   0.001   0.000  -0.000   0.000  -0.000  -0.000   0.000   0.000   0.003   0.000   0.000  -0.000
  0.000  -0.000   0.002  -0.000  -0.000  -0.000   0.000  -0.001   0.000   0.000   0.000  -0.000   0.000   0.002  -0.000   0.000
  0.001   0.000   0.000   0.001   0.000  -0.000   0.000   0.000  -0.000  -0.000  -0.000  -0.000  -0.000  -0.000   0.003   0.000


------------------------ aborting loop because EDIFF is reached ----------------------------------------





 total charge     

# of ion       s       p       d       tot
------------------------------------------
    1        0.349   0.466   4.270   5.084
    2        0.348   0.465   4.270   5.083
    3        1.144   1.122   0.111   2.377
    4        1.092   1.319   0.000   2.411
    5        1.491   2.299   0.044   3.834
    6        1.479   2.284   0.045   3.808
    7        1.488   2.292   0.044   3.825
    8        1.484   2.318   0.035   3.837
    9        1.478   2.310   0.035   3.823
   10        1.482   2.312   0.035   3.829
--------------------------------------------------
tot         11.836  17.189   8.888  37.912



 magnetization (x)

# of ion       s       p       d       tot
------------------------------------------
    1        0.035   0.040   2.797   2.872
    2        0.035   0.040   2.796   2.872
    3        0.005   0.028  -0.001   0.032
    4       -0.036   0.003   0.000  -0.032
    5       -0.004  -0.114   0.005  -0.113
    6       -0.003  -0.109   0.006  -0.106
    7       -0.005  -0.119   0.005  -0.118
    8        0.000  -0.081   0.005  -0.076
    9       -0.001  -0.062   0.005  -0.058
   10       -0.001  -0.076   0.005  -0.072
--------------------------------------------------
tot          0.027  -0.450   5.622   5.199

    CHARGE:  cpu time    1.7720: real time    1.7733
    FORLOC:  cpu time    0.0680: real time    0.0704
    FORNL :  cpu time    5.2200: real time    5.2290
    STRESS:  cpu time   15.7560: real time   15.7704
    FORCOR:  cpu time   68.9280: real time   68.9950
    FORHAR:  cpu time    0.3880: real time    0.3860
    MIXING:  cpu time    0.0480: real time    0.0533
    OFIELD:  cpu time    0.0000: real time    0.0000

  FORCE on cell =-STRESS in cart. coord.  units (eV):
  Direction    XX          YY          ZZ          XY          YZ          ZX
  --------------------------------------------------------------------------------------
  Alpha Z    41.31023    41.31023    41.31023
  Ewald    8596.98385  8596.98143-10216.23031    -0.00118    -0.00042    -0.00076
  Hartree  8937.53723  8937.53762 -8776.63755    -0.00003     0.00005     0.00008
  E(xc)    -220.50209  -220.50209  -220.52982     0.00002     0.00001     0.00001
  Local  -18275.15136-18275.15061 18213.28979     0.00082     0.00019     0.00036
  n-local   305.22657   306.36757   312.45190     0.53903     0.35830     0.37244
  augment    24.97969    24.97975    21.32284    -0.00004     0.00002     0.00002
  Kinetic   592.43009   585.69268   624.90783    -4.32940     0.03082    -0.25436
  Fock        0.00000     0.00000     0.00000     0.00000     0.00000     0.00000
  -------------------------------------------------------------------------------------
  Total       0.01540     0.01540    -0.11510     0.00000    -0.00000    -0.00000
  in kB       0.03227     0.03227    -0.24122     0.00000    -0.00000    -0.00000
  external pressure =       -0.06 kB  Pullay stress =        0.00 kB


 VOLUME and BASIS-vectors are now :
 -----------------------------------------------------------------------------
  energy-cutoff  :      520.00
  volume of cell :      764.50
      direct lattice vectors                 reciprocal lattice vectors
     6.350525570 -0.000000199 -0.000000000     0.157467279 -0.090913776  0.000000000
     3.175262579  5.499716095 -0.000000000     0.000000006  0.181827564  0.000000000
    -0.000000000 -0.000000000 21.889047628     0.000000000 -0.000000000  0.045684948

  length of vectors
     6.350525570  6.350525141 21.889047628     0.181827552  0.181827564  0.045684948


 FORCES acting on ions
    electron-ion (+dipol)            ewald-force                    non-local-force                 convergence-correction
 -----------------------------------------------------------------------------------------------
   -.128E-03 -.655E-04 0.584E+01   0.386E-03 0.228E-03 -.618E+01   -.696E-17 -.280E-20 0.758E-01   -.886E-07 -.503E-07 0.150E-02
   0.126E-03 0.922E-04 0.544E+01   -.361E-03 -.214E-03 -.578E+01   -.140E-19 -.161E-20 0.437E-01   -.626E-07 -.367E-07 0.182E-02
   -.347E-04 -.218E-04 0.197E+03   -.166E-03 -.923E-04 -.196E+03   0.108E-16 0.477E-19 -.129E+01   0.811E-07 0.470E-07 0.921E-02
   0.474E-04 0.312E-04 -.252E+03   0.230E-03 0.128E-03 0.253E+03   0.158E-16 -.260E-16 -.617E+00   0.153E-06 0.899E-07 -.131E-01
   0.388E+01 -.977E-01 -.402E+03   -.603E+01 0.101E+00 0.404E+03   0.213E+01 -.184E-03 -.218E+01   -.408E-02 -.391E-03 -.207E-01
   -.203E+01 -.331E+01 -.402E+03   0.310E+01 0.517E+01 0.404E+03   -.107E+01 -.185E+01 -.218E+01   0.170E-02 0.373E-02 -.207E-01
   -.186E+01 0.341E+01 -.402E+03   0.293E+01 -.527E+01 0.404E+03   -.107E+01 0.185E+01 -.218E+01   0.238E-02 -.334E-02 -.207E-01
   0.561E+01 0.206E+00 0.417E+03   -.359E+01 -.210E+00 -.419E+03   -.206E+01 -.341E-02 0.230E+01   0.947E-03 -.166E-03 0.228E-01
   -.263E+01 -.496E+01 0.417E+03   0.161E+01 0.321E+01 -.419E+03   0.103E+01 0.179E+01 0.230E+01   -.618E-03 -.737E-03 0.228E-01
   -.298E+01 0.476E+01 0.417E+03   0.198E+01 -.300E+01 -.419E+03   0.103E+01 -.178E+01 0.230E+01   -.330E-03 0.904E-03 0.228E-01
 -----------------------------------------------------------------------------------------------
   0.116E-03 0.742E-04 0.141E+01   0.444E-14 -.888E-15 0.114E-12   0.444E-15 0.000E+00 -.141E+01   -.725E-08 -.312E-08 0.564E-02


 POSITION                                       TOTAL-FORCE (eV/Angst)
 -----------------------------------------------------------------------------------
      3.17526      1.83324     10.94288        -0.000000     -0.000000     -0.265911
      6.35053      3.66648     10.94617        -0.000000     -0.000000     -0.297034
     -0.00000     -0.00000      9.81102        -0.000000     -0.000000      0.244733
     -0.00000     -0.00000     12.16840        -0.000000     -0.000000      0.018825
      3.99257      0.00009     12.48357        -0.023248      0.003540      0.079218
      1.17906      2.04201     12.48357         0.014689      0.018364      0.079218
      4.35416      3.45762     12.48357         0.008559     -0.021903      0.079218
      2.36897      0.00063      9.31760        -0.040544     -0.008258      0.020578
      1.99132      3.44781      9.31760         0.013120      0.039241      0.020578
      5.16549      2.05127      9.31760         0.027424     -0.030983      0.020578
 -----------------------------------------------------------------------------------
    total drift:                                0.000116      0.000074      0.004742


--------------------------------------------------------------------------------------------------------



  FREE ENERGIE OF THE ION-ELECTRON SYSTEM (eV)
  ---------------------------------------------------
  free  energy   TOTEN  =       -48.12599688 eV

  energy  without entropy=      -48.12599688  energy(sigma->0) =      -48.12599688

 d Force = 0.4935560E-04[ 0.165E-03,-0.662E-04]  d Energy = 0.4745189E-03-0.425E-03
 d Force = 0.1638596E+02[ 0.164E+02, 0.164E+02]  d Ewald  = 0.7169149E+02-0.553E+02


--------------------------------------------------------------------------------------------------------


    POTLOK:  cpu time   68.8920: real time   68.9605


--------------------------------------------------------------------------------------------------------




--------------------------------------------------------------------------------------------------------


  
 reached required accuracy - stopping structural energy minimisation
     LOOP+:  cpu time 1149.8000: real time 1151.1889
    4ORBIT:  cpu time    0.0000: real time    0.0000



 total charge     

# of ion       s       p       d       tot
------------------------------------------
    1        0.349   0.466   4.270   5.084
    2        0.348   0.465   4.270   5.083
    3        1.144   1.122   0.111   2.377
    4        1.092   1.319   0.000   2.411
    5        1.491   2.299   0.044   3.834
    6        1.479   2.284   0.045   3.808
    7        1.488   2.292   0.044   3.825
    8        1.484   2.318   0.035   3.837
    9        1.478   2.310   0.035   3.823
   10        1.482   2.312   0.035   3.829
--------------------------------------------------
tot         11.836  17.189   8.888  37.912



 magnetization (x)

# of ion       s       p       d       tot
------------------------------------------
    1        0.035   0.040   2.797   2.872
    2        0.035   0.040   2.796   2.872
    3        0.005   0.028  -0.001   0.032
    4       -0.036   0.003   0.000  -0.032
    5       -0.004  -0.114   0.005  -0.113
    6       -0.003  -0.109   0.006  -0.106
    7       -0.005  -0.119   0.005  -0.118
    8        0.000  -0.081   0.005  -0.076
    9       -0.001  -0.062   0.005  -0.058
   10       -0.001  -0.076   0.005  -0.072
--------------------------------------------------
tot          0.027  -0.450   5.622   5.199

 BZINTS: Fermi energy: -2.203379; 57.000000 electrons
         Band energy:-457.470428;  BLOECHL correction: -0.021902

 total amount of memory used by VASP MPI-rank0   175606. kBytes
=======================================================================

   base      :      30000. kBytes
   nonlr-proj:       9427. kBytes
   fftplans  :      20284. kBytes
   grid      :      94580. kBytes
   one-center:        311. kBytes
   wavefun   :      21004. kBytes

  
  
 General timing and accounting informations for this job:
 ========================================================
  
                  Total CPU time used (sec):    15543.872
                            User time (sec):    15469.248
                          System time (sec):       74.624
                         Elapsed time (sec):    15625.274
  
                   Maximum memory used (kb):      594484.
                   Average memory used (kb):           0.
  
                          Minor page faults:     18943096
                          Major page faults:            6
                 Voluntary context switches:          872
