 vasp.5.4.4.18Apr17-6-g9f103f2a35 (build May  1 2020 15:48:39) complex           
 executed on             LinuxGNU date 2020.06.26  00:40:31
 running on   16 total cores
 distrk:  each k-point on   16 cores,    1 groups
 distr:  one band on NCORES_PER_BAND=   1 cores,   16 groups


--------------------------------------------------------------------------------------------------------


 INCAR:
 POTCAR:   PAW_PBE Ni 06Sep2000                   
 POTCAR:   PAW_PBE Ge 05Jan2001                   
 POTCAR:   PAW_PBE Si 05Jan2001                   
 POTCAR:   PAW_PBE Te 08Apr2002                   

 ----------------------------------------------------------------------------- 
|                                                                             |
|           W    W    AA    RRRRR   N    N  II  N    N   GGGG   !!!           |
|           W    W   A  A   R    R  NN   N  II  NN   N  G    G  !!!           |
|           W    W  A    A  R    R  N N  N  II  N N  N  G       !!!           |
|           W WW W  AAAAAA  RRRRR   N  N N  II  N  N N  G  GGG   !            |
|           WW  WW  A    A  R   R   N   NN  II  N   NN  G    G                |
|           W    W  A    A  R    R  N    N  II  N    N   GGGG   !!!           |
|                                                                             |
|      For optimal performance we recommend to set                            |
|        NCORE= 4 - approx SQRT( number of cores)                             |
|      NCORE specifies how many cores store one orbital (NPAR=cpu/NCORE).     |
|      This setting can  greatly improve the performance of VASP for DFT.     |
|      The default,   NCORE=1            might be grossly inefficient         |
|      on modern multi-core architectures or massively parallel machines.     |
|      Do your own testing !!!!                                               |
|      Unfortunately you need to use the default for GW and RPA calculations. |
|      (for HF NCORE is supported but not extensively tested yet)             |
|                                                                             |
 ----------------------------------------------------------------------------- 


 ----------------------------------------------------------------------------- 
|                                                                             |
|  ADVICE TO THIS USER RUNNING 'VASP/VAMP'   (HEAR YOUR MASTER'S VOICE ...):  |
|                                                                             |
|      You have switched on vdW-DFT.                                          |
|      This routine was written and supplied by Jiri Klimes.                  |
|      We recommed that you carefully read and cite the following             |
|      publication                                                            |
|      J. Klimes, D.R. Bowler, A. Michelides                                  |
|        J. Phys.: Cond Matt. 22 022201 (2010)                                |
|      J. Klimes, D.R. Bowler, A. Michelides                                  |
|        Phys. Rev. B. 83, 195131 (2011)                                      |
|      and references therein.                                                |
|                                                                             |
 ----------------------------------------------------------------------------- 

 POTCAR:   PAW_PBE Ni 06Sep2000                   
   VRHFIN =Ni:                                                                  
   LEXCH  = PE                                                                  
   EATOM  =  1077.9025 eV,   79.2236 Ry                                         
                                                                                
   TITEL  = PAW_PBE Ni 06Sep2000                                                
   LULTRA =        F    use ultrasoft PP ?                                      
   IUNSCR =        1    unscreen: 0-lin 1-nonlin 2-no                           
   RPACOR =    2.000    partial core radius                                     
   POMASS =   58.690; ZVAL   =   10.000    mass and valenz                      
   RCORE  =    2.300    outmost cutoff radius                                   
   RWIGS  =    2.430; RWIGS  =    1.286    wigner-seitz radius (au A)           
   ENMAX  =  269.533; ENMIN  =  202.150 eV                                      
   RCLOC  =    1.681    cutoff for local pot                                    
   LCOR   =        T    correct aug charges                                     
   LPAW   =        T    paw PP                                                  
   EAUG   =  544.565                                                            
   DEXC   =    -.009                                                            
   RMAX   =    2.808    core radius for proj-oper                               
   RAUG   =    1.300    factor for augmentation sphere                          
   RDEP   =    2.390    radius for radial grids                                 
   QCUT   =   -4.451; QGAM   =    8.902    optimization parameters              
                                                                                
   Description                                                                  
     l     E      TYP  RCUT    TYP  RCUT                                        
     2   .000     23  2.300                                                     
     2   .000     23  2.300                                                     
     0   .000     23  2.300                                                     
     0   .000     23  2.300                                                     
     1  -.200     23  2.300                                                     
     1   .000     23  2.300                                                     
     3   .000      7   .000                                                     
  local pseudopotential read in
  partial core-charges read in
  atomic valenz-charges read in
  non local Contribution for L=           2  read in
    real space projection operators read in
  non local Contribution for L=           2  read in
    real space projection operators read in
  non local Contribution for L=           0  read in
    real space projection operators read in
  non local Contribution for L=           0  read in
    real space projection operators read in
  non local Contribution for L=           1  read in
    real space projection operators read in
  non local Contribution for L=           1  read in
    real space projection operators read in
    PAW grid and wavefunctions read in

   number of l-projection  operators is LMAX  =           6
   number of lm-projection operators is LMMAX =          18

 POTCAR:   PAW_PBE Ge 05Jan2001                   
   VRHFIN =Ge: s2p2                                                             
   LEXCH  = PE                                                                  
   EATOM  =   104.9960 eV,    7.7170 Ry                                         
                                                                                
   TITEL  = PAW_PBE Ge 05Jan2001                                                
   LULTRA =        F    use ultrasoft PP ?                                      
   IUNSCR =        1    unscreen: 0-lin 1-nonlin 2-no                           
   RPACOR =    2.170    partial core radius                                     
   POMASS =   72.610; ZVAL   =    4.000    mass and valenz                      
   RCORE  =    2.300    outmost cutoff radius                                   
   RWIGS  =    2.300; RWIGS  =    1.217    wigner-seitz radius (au A)           
   ENMAX  =  173.807; ENMIN  =  130.355 eV                                      
   ICORE  =        3    local potential                                         
   LCOR   =        T    correct aug charges                                     
   LPAW   =        T    paw PP                                                  
   EAUG   =  385.843                                                            
   DEXC   =    -.138                                                            
   RMAX   =    3.497    core radius for proj-oper                               
   RAUG   =    1.300    factor for augmentation sphere                          
   RDEP   =    2.318    radius for radial grids                                 
   QCUT   =   -3.574; QGAM   =    7.148    optimization parameters              
                                                                                
   Description                                                                  
     l     E      TYP  RCUT    TYP  RCUT                                        
     0   .000     23  2.300                                                     
     0   .000     23  2.300                                                     
     1   .000     23  2.300                                                     
     1   .000     23  2.300                                                     
     2   .000     23  2.300                                                     
     3  -.100      7  2.300                                                     
  local pseudopotential read in
  partial core-charges read in
  atomic valenz-charges read in
  non local Contribution for L=           0  read in
    real space projection operators read in
  non local Contribution for L=           0  read in
    real space projection operators read in
  non local Contribution for L=           1  read in
    real space projection operators read in
  non local Contribution for L=           1  read in
    real space projection operators read in
  non local Contribution for L=           2  read in
    real space projection operators read in
    PAW grid and wavefunctions read in

   number of l-projection  operators is LMAX  =           5
   number of lm-projection operators is LMMAX =          13

 POTCAR:   PAW_PBE Si 05Jan2001                   
   VRHFIN =Si: s2p2                                                             
   LEXCH  = PE                                                                  
   EATOM  =   103.0669 eV,    7.5752 Ry                                         
                                                                                
   TITEL  = PAW_PBE Si 05Jan2001                                                
   LULTRA =        F    use ultrasoft PP ?                                      
   IUNSCR =        1    unscreen: 0-lin 1-nonlin 2-no                           
   RPACOR =    1.500    partial core radius                                     
   POMASS =   28.085; ZVAL   =    4.000    mass and valenz                      
   RCORE  =    1.900    outmost cutoff radius                                   
   RWIGS  =    2.480; RWIGS  =    1.312    wigner-seitz radius (au A)           
   ENMAX  =  245.345; ENMIN  =  184.009 eV                                      
   ICORE  =        2    local potential                                         
   LCOR   =        T    correct aug charges                                     
   LPAW   =        T    paw PP                                                  
   EAUG   =  322.069                                                            
   DEXC   =    -.007                                                            
   RMAX   =    2.944    core radius for proj-oper                               
   RAUG   =    1.300    factor for augmentation sphere                          
   RDEP   =    1.993    radius for radial grids                                 
   QCUT   =   -4.246; QGAM   =    8.493    optimization parameters              
                                                                                
   Description                                                                  
     l     E      TYP  RCUT    TYP  RCUT                                        
     0   .000     23  1.900                                                     
     0   .000     23  1.900                                                     
     1   .000     23  1.900                                                     
     1   .000     23  1.900                                                     
     2   .000      7  1.900                                                     
  local pseudopotential read in
  partial core-charges read in
  atomic valenz-charges read in
  non local Contribution for L=           0  read in
    real space projection operators read in
  non local Contribution for L=           0  read in
    real space projection operators read in
  non local Contribution for L=           1  read in
    real space projection operators read in
  non local Contribution for L=           1  read in
    real space projection operators read in
    PAW grid and wavefunctions read in

   number of l-projection  operators is LMAX  =           4
   number of lm-projection operators is LMMAX =           8

 POTCAR:   PAW_PBE Te 08Apr2002                   
   VRHFIN =Te: s2p4                                                             
   LEXCH  = PE                                                                  
   EATOM  =   223.2721 eV,   16.4100 Ry                                         
                                                                                
   TITEL  = PAW_PBE Te 08Apr2002                                                
   LULTRA =        F    use ultrasoft PP ?                                      
   IUNSCR =        1    unscreen: 0-lin 1-nonlin 2-no                           
   RPACOR =    2.200    partial core radius                                     
   POMASS =  127.600; ZVAL   =    6.000    mass and valenz                      
   RCORE  =    2.300    outmost cutoff radius                                   
   RWIGS  =    2.900; RWIGS  =    1.535    wigner-seitz radius (au A)           
   ENMAX  =  174.982; ENMIN  =  131.236 eV                                      
   ICORE  =        3    local potential                                         
   LCOR   =        T    correct aug charges                                     
   LPAW   =        T    paw PP                                                  
   EAUG   =  368.792                                                            
   DEXC   =    -.169                                                            
   RMAX   =    3.486    core radius for proj-oper                               
   RAUG   =    1.300    factor for augmentation sphere                          
   RDEP   =    2.397    radius for radial grids                                 
   QCUT   =   -3.586; QGAM   =    7.172    optimization parameters              
                                                                                
   Description                                                                  
     l     E      TYP  RCUT    TYP  RCUT                                        
     0   .000     23  2.300                                                     
     0   .000     23  2.300                                                     
     1   .000     23  2.300                                                     
     1   .000     23  2.300                                                     
     2   .000     23  2.300                                                     
     3  -.100     23  2.300                                                     
  local pseudopotential read in
  partial core-charges read in
  atomic valenz-charges read in
  non local Contribution for L=           0  read in
    real space projection operators read in
  non local Contribution for L=           0  read in
    real space projection operators read in
  non local Contribution for L=           1  read in
    real space projection operators read in
  non local Contribution for L=           1  read in
    real space projection operators read in
  non local Contribution for L=           2  read in
    real space projection operators read in
    PAW grid and wavefunctions read in

   number of l-projection  operators is LMAX  =           5
   number of lm-projection operators is LMMAX =          13

 Optimization of the real space projectors (new method)

 maximal supplied QI-value         = 16.25
 optimisation between [QCUT,QGAM] = [ 11.54, 23.24] = [ 37.28,151.24] Ry 
 Optimized for a Real-space Cutoff    1.49 Angstroem

   l    n(q)    QCUT    max X(q) W(low)/X(q) W(high)/X(q)  e(spline) 
   2      9    11.539     4.811    0.20E-04    0.14E-04    0.45E-07
   2      9    11.539    15.146    0.24E-03    0.12E-03    0.20E-06
   0     10    11.539    14.357    0.18E-04    0.12E-05    0.14E-07
   0     10    11.539    43.282    0.39E-04    0.17E-04    0.23E-06
   1     10    11.539     5.514    0.99E-05    0.13E-04    0.19E-07
   1     10    11.539     7.697    0.38E-04    0.79E-04    0.91E-07
 Optimization of the real space projectors (new method)

 maximal supplied QI-value         = 16.25
 optimisation between [QCUT,QGAM] = [ 11.54, 23.24] = [ 37.28,151.24] Ry 
 Optimized for a Real-space Cutoff    1.28 Angstroem

   l    n(q)    QCUT    max X(q) W(low)/X(q) W(high)/X(q)  e(spline) 
   0      9    11.539     8.651    0.22E-04    0.16E-04    0.10E-07
   0      9    11.539    33.192    0.11E-03    0.16E-03    0.65E-07
   1      8    11.539     5.899    0.37E-04    0.28E-04    0.43E-07
   1      8    11.539    27.289    0.22E-03    0.28E-04    0.14E-06
   2      8    11.539     4.673    0.11E-03    0.18E-03    0.58E-07
 Optimization of the real space projectors (new method)

 maximal supplied QI-value         = 19.84
 optimisation between [QCUT,QGAM] = [ 11.51, 23.22] = [ 37.09,150.92] Ry 
 Optimized for a Real-space Cutoff    1.21 Angstroem

   l    n(q)    QCUT    max X(q) W(low)/X(q) W(high)/X(q)  e(spline) 
   0      8    11.508     8.708    0.18E-04    0.44E-05    0.47E-08
   0      8    11.508   106.241    0.70E-04    0.15E-03    0.51E-07
   1      8    11.508     5.901    0.63E-05    0.23E-04    0.21E-07
   1      8    11.508    73.241    0.15E-03    0.36E-04    0.79E-07
 Optimization of the real space projectors (new method)

 maximal supplied QI-value         = 16.25
 optimisation between [QCUT,QGAM] = [ 11.54, 23.24] = [ 37.28,151.24] Ry 
 Optimized for a Real-space Cutoff    1.36 Angstroem

   l    n(q)    QCUT    max X(q) W(low)/X(q) W(high)/X(q)  e(spline) 
   0      9    11.539     7.090    0.13E-04    0.25E-05    0.51E-08
   0      9    11.539   101.654    0.53E-04    0.69E-04    0.12E-06
   1      9    11.539     5.276    0.20E-04    0.98E-05    0.24E-07
   1      9    11.539    81.891    0.24E-03    0.13E-04    0.15E-06
   2      9    11.539     5.599    0.30E-04    0.97E-04    0.54E-07

 ----------------------------------------------------------------------------- 
|                                                                             |
|  ADVICE TO THIS USER RUNNING 'VASP/VAMP'   (HEAR YOUR MASTER'S VOICE ...):  |
|                                                                             |
|      You enforced a specific xc-type in the INCAR file,                     |
|      a different type was found on the POTCAR file                          |
|          I HOPE YOU KNOW, WHAT YOU ARE  DOING                               |
|                                                                             |
 ----------------------------------------------------------------------------- 

 PAW_PBE Ni 06Sep2000                   :
 energy of atom  1       EATOM=-1077.9025
 kinetic energy error for atom=    0.0030 (will be added to EATOM!!)
 PAW_PBE Ge 05Jan2001                   :
 energy of atom  2       EATOM= -104.9960
 kinetic energy error for atom=    0.0002 (will be added to EATOM!!)
 PAW_PBE Si 05Jan2001                   :
 energy of atom  3       EATOM= -103.0669
 kinetic energy error for atom=    0.0005 (will be added to EATOM!!)
 PAW_PBE Te 08Apr2002                   :
 energy of atom  4       EATOM= -223.2721
 kinetic energy error for atom=    0.0007 (will be added to EATOM!!)


 POSCAR: Ni2 Ge Si Te6                           
  positions in direct lattice
  velocities in cartesian coordinates
  No initial velocities read in
 exchange correlation table for  LEXCH =       42
   RHO(1)=    0.500       N(1)  =     2000
   RHO(2)=  100.500       N(2)  =     4000



--------------------------------------------------------------------------------------------------------


 ion  position               nearest neighbor table
   1  0.333  0.333  0.500-   6 2.78   5 2.78   7 2.78   8 2.78  10 2.78   9 2.78
   2  0.667  0.667  0.500-   9 2.78   8 2.78  10 2.78   5 2.78   7 2.78   6 2.78
   3  0.000  0.000  0.448-   4 2.43   8 2.63  10 2.63   9 2.63
   4  0.000  0.000  0.552-   3 2.43   5 2.63   7 2.63   6 2.63
   5  0.626  0.000  0.574-   4 2.63   1 2.78   2 2.78
   6  0.000  0.373  0.574-   4 2.63   1 2.78   2 2.78
   7  0.373  0.626  0.574-   4 2.63   1 2.78   2 2.78
   8  0.374  1.000  0.426-   3 2.63   2 2.78   1 2.78
   9  1.000  0.627  0.426-   3 2.63   2 2.78   1 2.78
  10  0.627  0.374  0.426-   3 2.63   2 2.78   1 2.78

  LATTYP: Found a hexagonal cell.
 ALAT       =     6.9077769333
 C/A-ratio  =     3.3939410937
  
  Lattice vectors:
  
 A1 = (   3.4538890000,  -5.9823100000,   0.0000000000)
 A2 = (  -6.9077770000,   0.0000000000,   0.0000000000)
 A3 = (   0.0000000000,   0.0000000000, -23.4445880000)


Analysis of symmetry for initial positions (statically):
=====================================================================
 Subroutine PRICEL returns:
 Original cell was already a primitive cell.
 

 Routine SETGRP: Setting up the symmetry group for a 
 hexagonal supercell.


 Subroutine GETGRP returns: Found  3 space group operations
 (whereof  3 operations were pure point group operations)
 out of a pool of 24 trial point group operations.


The static configuration has the point symmetry C_3 .


Analysis of symmetry for dynamics (positions and initial velocities):
=====================================================================
 Subroutine PRICEL returns:
 Original cell was already a primitive cell.
 

 Routine SETGRP: Setting up the symmetry group for a 
 hexagonal supercell.


 Subroutine GETGRP returns: Found  3 space group operations
 (whereof  3 operations were pure point group operations)
 out of a pool of 24 trial point group operations.


The dynamic configuration has the point symmetry C_3 .


Analysis of constrained symmetry for selective dynamics:
=====================================================================
 Subroutine PRICEL returns:
 Original cell was already a primitive cell.
 

 Routine SETGRP: Setting up the symmetry group for a 
 hexagonal supercell.


 Subroutine GETGRP returns: Found  3 space group operations
 (whereof  3 operations were pure point group operations)
 out of a pool of 24 trial point group operations.


The constrained configuration has the point symmetry C_3 .


Analysis of structural, dynamic, and magnetic symmetry:
=====================================================================
 Subroutine PRICEL returns:
 Original cell was already a primitive cell.
 

 Routine SETGRP: Setting up the symmetry group for a 
 hexagonal supercell.


 Subroutine GETGRP returns: Found  3 space group operations
 (whereof  3 operations were pure point group operations)
 out of a pool of 24 trial point group operations.


The magnetic configuration has the point symmetry C_3 .


 Subroutine INISYM returns: Found  3 space group operations
 (whereof  3 operations are pure point group operations),
 and found     1 'primitive' translations



 KPOINTS: Kpoints from vasprun.xml                

Automatic generation of k-mesh.
Space group operators:
 irot       det(A)        alpha          n_x          n_y          n_z        tau_x        tau_y        tau_z
    1     1.000000     0.000000     1.000000     0.000000     0.000000     0.000000     0.000000     0.000000
    2     1.000000   120.000000     0.000000     0.000000     1.000000     0.000000     0.000000     0.000000
    3     1.000000   120.000000     0.000000     0.000000    -1.000000     0.000000     0.000000     0.000000
 
 Subroutine IBZKPT returns following result:
 ===========================================
 
 Found      5 irreducible k-points:
 
 Following reciprocal coordinates:
            Coordinates               Weight
  0.000000  0.000000  0.000000      1.000000
  0.200000  0.000000  0.000000      6.000000
  0.400000  0.000000  0.000000      6.000000
  0.400000  0.200000  0.000000      6.000000
 -0.400000  0.200000  0.000000      6.000000
 
 Following cartesian coordinates:
            Coordinates               Weight
  0.000000  0.000000  0.000000      1.000000
  0.028953 -0.016716  0.000000      6.000000
  0.057906 -0.033432  0.000000      6.000000
  0.057906  0.000000  0.000000      6.000000
 -0.057906  0.066864  0.000000      6.000000
 
 TETIRR: Found     15 inequivalent tetrahedra from      150


--------------------------------------------------------------------------------------------------------




 Dimension of arrays:
   k-points           NKPTS =      5   k-points in BZ     NKDIM =      5   number of bands    NBANDS=     48
   number of dos      NEDOS =    301   number of ions     NIONS =     10
   non local maximal  LDIM  =      6   non local SUM 2l+1 LMDIM =     18
   total plane-waves  NPLWV = 524880
   max r-space proj   IRMAX =   7543   max aug-charges    IRDMAX=  31706
   dimension x,y,z NGX =    54 NGY =   54 NGZ =  180
   dimension x,y,z NGXF=   108 NGYF=  108 NGZF=  360
   support grid    NGXF=   108 NGYF=  108 NGZF=  360
   ions per type =               2   1   1   6
   NGX,Y,Z   is equivalent  to a cutoff of  13.00, 13.00, 12.76 a.u.
   NGXF,Y,Z  is equivalent  to a cutoff of  25.99, 25.99, 25.53 a.u.

 SYSTEM =  unknown system                          
 POSCAR =  Ni2 Ge Si Te6                           

 Startparameter for this run:
   NWRITE =      2    write-flag & timer
   PREC   = accura    normal or accurate (medium, high low for compatibility)
   ISTART =      0    job   : 0-new  1-cont  2-samecut
   ICHARG =      2    charge: 1-file 2-atom 10-const
   ISPIN  =      2    spin polarized calculation?
   LNONCOLLINEAR =      F non collinear calculations
   LSORBIT =      F    spin-orbit coupling
   INIWAV =      1    electr: 0-lowe 1-rand  2-diag
   LASPH  =      F    aspherical Exc in radial PAW
   METAGGA=      F    non-selfconsistent MetaGGA calc.

 Electronic Relaxation 1
   ENCUT  =  520.0 eV  38.22 Ry    6.18 a.u.  12.84 12.84 43.59*2*pi/ulx,y,z
   ENINI  =  520.0     initial cutoff
   ENAUG  =  544.6 eV  augmentation charge cutoff
   NELM   =    400;   NELMIN=  2; NELMDL=  0     # of ELM steps 
   EDIFF  = 0.1E-03   stopping-criterion for ELM
   LREAL  =      T    real-space projection
   NLSPLINE    = F    spline interpolate recip. space projectors
   LCOMPAT=      F    compatible to vasp.4.4
   GGA_COMPAT  = T    GGA compatible to vasp.4.4-vasp.4.6
   LMAXPAW     = -100 max onsite density
   LMAXMIX     =    2 max onsite mixed and CHGCAR
   VOSKOWN=      0    Vosko Wilk Nusair interpolation
   ROPT   =   -0.00025  -0.00025  -0.00025  -0.00025
 Ionic relaxation
   EDIFFG = 0.1E-02   stopping-criterion for IOM
   NSW    =     99    number of steps for IOM
   NBLOCK =      1;   KBLOCK =     99    inner block; outer block 
   IBRION =      2    ionic relax: 0-MD 1-quasi-New 2-CG
   NFREE  =      1    steps in history (QN), initial steepest desc. (CG)
   ISIF   =      3    stress and relaxation
   IWAVPR =     11    prediction:  0-non 1-charg 2-wave 3-comb
   ISYM   =      2    0-nonsym 1-usesym 2-fastsym
   LCORR  =      T    Harris-Foulkes like correction to forces

   POTIM  = 0.5000    time-step for ionic-motion
   TEIN   =    0.0    initial temperature
   TEBEG  =    0.0;   TEEND  =   0.0 temperature during run
   SMASS  =  -3.00    Nose mass-parameter (am)
   estimated Nose-frequenzy (Omega)   =  0.10E-29 period in steps =****** mass=  -0.109E-26a.u.
   SCALEE = 1.0000    scale energy and forces
   NPACO  =    256;   APACO  = 16.0  distance and # of slots for P.C.
   PSTRESS=    0.0 pullay stress

  Mass of Ions in am
   POMASS =  58.69 72.61 28.09127.60
  Ionic Valenz
   ZVAL   =  10.00  4.00  4.00  6.00
  Atomic Wigner-Seitz radii
   RWIGS  =  -1.00 -1.00 -1.00 -1.00
  virtual crystal weights 
   VCA    =   1.00  1.00  1.00  1.00
   NELECT =      64.0000    total number of electrons
   NUPDOWN=      -1.0000    fix difference up-down

 DOS related values:
   EMIN   =  10.00;   EMAX   =-10.00  energy-range for DOS
   EFERMI =   0.00
   ISMEAR =    -5;   SIGMA  =   0.05  broadening in eV -4-tet -1-fermi 0-gaus

 Electronic relaxation 2 (details)
   IALGO  =     38    algorithm
   LDIAG  =      T    sub-space diagonalisation (order eigenvalues)
   LSUBROT=      F    optimize rotation matrix (better conditioning)
   TURBO    =      0    0=normal 1=particle mesh
   IRESTART =      0    0=no restart 2=restart with 2 vectors
   NREBOOT  =      0    no. of reboots
   NMIN     =      0    reboot dimension
   EREF     =   0.00    reference energy to select bands
   IMIX   =      4    mixing-type and parameters
     AMIX     =   0.40;   BMIX     =  1.00
     AMIX_MAG =   1.60;   BMIX_MAG =  1.00
     AMIN     =   0.01
     WC   =   100.;   INIMIX=   1;  MIXPRE=   1;  MAXMIX= -45

 Intra band minimization:
   WEIMIN = 0.0010     energy-eigenvalue tresh-hold
   EBREAK =  0.52E-06  absolut break condition
   DEPER  =   0.30     relativ break condition  

   TIME   =   0.40     timestep for ELM

  volume/ion in A,a.u.               =      96.88       653.80
  Fermi-wavevector in a.u.,A,eV,Ry     =   0.661787  1.250596  5.958835  0.437962
  Thomas-Fermi vector in A             =   1.734655

 Write flags
   LWAVE        =      F    write WAVECAR
   LDOWNSAMPLE  =      F    k-point downsampling of WAVECAR
   LCHARG       =      T    write CHGCAR
   LVTOT        =      F    write LOCPOT, total local potential
   LVHAR        =      F    write LOCPOT, Hartree potential only
   LELF         =      F    write electronic localiz. function (ELF)
   LORBIT       =     11    0 simple, 1 ext, 2 COOP (PROOUT), +10 PAW based schemes


 Dipole corrections
   LMONO  =      F    monopole corrections only (constant potential shift)
   LDIPOL =      F    correct potential (dipole corrections)
   IDIPOL =      0    1-x, 2-y, 3-z, 4-all directions 
   EPSILON=  1.0000000 bulk dielectric constant

 Exchange correlation treatment:
   GGA     =    BO    GGA type
   LEXCH   =    42    internal setting for exchange type
   VOSKOWN=      0    Vosko Wilk Nusair interpolation
   LHFCALC =     F    Hartree Fock is set to
   LHFONE  =     F    Hartree Fock one center treatment
   AEXX    =    0.0000 exact exchange contribution

 vdW DFT:
   LUSE_VDW   =     T    switch on vdW DFT
   Zab_VDW    =-.8491    correlation parameter
   PARAM1     =0.1833
   PARAM2     =0.2200
   PARAM3     =0.0000
   -- rVV10 --
   BPARAM     = 6.3000
   CPARAM     = 0.0093

 Linear response parameters
   LEPSILON=     F    determine dielectric tensor
   LRPA    =     F    only Hartree local field effects (RPA)
   LNABLA  =     F    use nabla operator in PAW spheres
   LVEL    =     F    velocity operator in full k-point grid
   LINTERFAST=   F  fast interpolation
   KINTER  =     0    interpolate to denser k-point grid
   CSHIFT  =0.1000    complex shift for real part using Kramers Kronig
   OMEGAMAX=  -1.0    maximum frequency
   DEG_THRESHOLD= 0.2000000E-02 threshold for treating states as degnerate
   RTIME   =   -0.100 relaxation time in fs
  (WPLASMAI=    0.000 imaginary part of plasma frequency in eV, 0.658/RTIME)
   DFIELD  = 0.0000000 0.0000000 0.0000000 field for delta impulse in time

 Orbital magnetization related:
   ORBITALMAG=     F  switch on orbital magnetization
   LCHIMAG   =     F  perturbation theory with respect to B field
   DQ        =  0.001000  dq finite difference perturbation B field
   LLRAUG    =     F  two centre corrections for induced B field



--------------------------------------------------------------------------------------------------------


 conjugate gradient relaxation of ions
   using selective dynamics as specified on POSCAR
 charge density and potential will be updated during run
 spin polarized calculation
 Variant of blocked Davidson
 Davidson routine will perform the subspace rotation
 perform sub-space diagonalisation
    after iterative eigenvector-optimisation
 modified Broyden-mixing scheme, WC =      100.0
 initial mixing is a Kerker type mixing with AMIX =  0.4000 and BMIX =      1.0000
 Hartree-type preconditioning will be used
 using additional bands           16
 real space projection scheme for non local part
 use partial core corrections
 calculate Harris-corrections to forces   (improved forces if not selfconsistent)
 use gradient corrections 
 use of overlap-Matrix (Vanderbilt PP)
 Fermi weights with tetrahedron method with Bloechl corrections


--------------------------------------------------------------------------------------------------------


  energy-cutoff  :      520.00
  volume of cell :      968.84
      direct lattice vectors                 reciprocal lattice vectors
     6.907777000 -0.000000000  0.000000000     0.144764372 -0.083579742  0.000000000
     3.453888000  5.982310000  0.000000000     0.000000000  0.167159509 -0.000000000
     0.000000000  0.000000000 23.444588000    -0.000000000  0.000000000  0.042653767

  length of vectors
     6.907777000  6.907776433 23.444588000     0.167159495  0.167159509  0.042653767



 k-points in units of 2pi/SCALE and weight: Kpoints from vasprun.xml                
   0.00000000  0.00000000  0.00000000       0.040
   0.02895287 -0.01671595  0.00000000       0.240
   0.05790575 -0.03343190  0.00000000       0.240
   0.05790575  0.00000000  0.00000000       0.240
  -0.05790575  0.06686380  0.00000000       0.240

 k-points in reciprocal lattice and weights: Kpoints from vasprun.xml                
   0.00000000  0.00000000  0.00000000       0.040
   0.20000000  0.00000000  0.00000000       0.240
   0.40000000  0.00000000  0.00000000       0.240
   0.40000000  0.20000000  0.00000000       0.240
  -0.40000000  0.20000000  0.00000000       0.240

 position of ions in fractional coordinates (direct lattice) 
   0.33333300  0.33333300  0.49992500
   0.66666700  0.66666700  0.50007500
   0.00000000  0.00000000  0.44821600
   0.00000000  0.00000000  0.55178400
   0.62635700  0.00042000  0.57375200
   0.00042000  0.37322400  0.57375200
   0.37322400  0.62635700  0.57375200
   0.37364300  0.99958000  0.42624800
   0.99958000  0.62677600  0.42624800
   0.62677600  0.37364300  0.42624800

 position of ions in cartesian coordinates  (Angst):
   3.45388488  1.99410134 11.72053566
   6.90778012  3.98820866 11.72405234
   0.00000000  0.00000000 10.50823946
   0.00000000  0.00000000 12.93634854
   4.32818511  0.00251257 13.45137925
   1.29197516  2.23274167 13.45137925
   4.74151509  3.74706174 13.45137925
   6.03347989  5.97979743  9.99320875
   9.06968984  3.74956833  9.99320875
   5.62014991  2.23524826  9.99320875



--------------------------------------------------------------------------------------------------------


 k-point  1 :   0.0000 0.0000 0.0000  plane waves:   26073
 k-point  2 :   0.2000 0.0000 0.0000  plane waves:   26070
 k-point  3 :   0.4000 0.0000 0.0000  plane waves:   26086
 k-point  4 :   0.4000 0.2000 0.0000  plane waves:   26085
 k-point  5 :  -0.4000 0.2000 0.0000  plane waves:   26115

 maximum and minimum number of plane-waves per node :     26115    26070

 maximum number of plane-waves:     26115
 maximum index in each direction: 
   IXMAX=   13   IYMAX=   12   IZMAX=   43
   IXMIN=  -13   IYMIN=  -13   IZMIN=  -43


 serial   3D FFT for wavefunctions
 parallel 3D FFT for charge:
    minimum data exchange during FFTs selected (reduces bandwidth)


 total amount of memory used by VASP MPI-rank0   130713. kBytes
=======================================================================

   base      :      30000. kBytes
   nonlr-proj:       8213. kBytes
   fftplans  :      11247. kBytes
   grid      :      68332. kBytes
   one-center:        311. kBytes
   wavefun   :      12610. kBytes

     INWAV:  cpu time    0.0000: real time    0.0004
 Broyden mixing: mesh for mixing (old mesh)
   NGX = 25   NGY = 25   NGZ = 87
  (NGX  =108   NGY  =108   NGZ  =360)
  gives a total of  54375 points

 initial charge density was supplied:
 charge density of overlapping atoms calculated
 number of electron      64.0000000 magnetization       7.3200000
 keeping initial charge density in first step


--------------------------------------------------------------------------------------------------------


 Maximum index for non-local projection operator         7247
 Maximum index for augmentation-charges         2278 (set IRDMAX)


--------------------------------------------------------------------------------------------------------


 First call to EWALD:  gamma=   0.179
 Maximum number of real-space cells 4x 4x 1
 Maximum number of reciprocal cells 2x 2x 6

    FEWALD:  cpu time    0.0040: real time    0.0014


--------------------------------------- Iteration      1(   1)  ---------------------------------------


vdW kernel read from vdw_kernel.bindat
  0.0000  0.2424  0.5071  0.7962  1.1119  1.4567  1.8333  2.2446  2.6937  3.1842
  3.7199  4.3049  4.9438  5.6415  6.4036  7.2358  8.1446  9.1372 10.2212 11.4050
 12.6979 14.1099 15.6519 17.3360 19.1751 21.1837 23.3773 25.7729 28.3892 31.2465
 34.3669 37.7748 41.4965 45.5611 50.0000

    POTLOK:  cpu time   52.3800: real time   52.5346
    SETDIJ:  cpu time    0.0720: real time    0.0723
     EDDAV:  cpu time   22.8880: real time   22.9425
 BZINTS: Fermi energy:  5.324877; 64.000000 electrons
         Band energy:   8.333793;  BLOECHL correction: -0.044785
       DOS:  cpu time    0.0040: real time    0.0050
    --------------------------------------------
      LOOP:  cpu time   75.3440: real time   75.5544

 eigenvalue-minimisations  :   960
 total energy-change (2. order) : 0.3875299E+03  (-0.1937796E+04)
 number of electron      64.0000000 magnetization       7.3200000
 augmentation part       64.0000000 magnetization       7.3200000

 Free energy of the ion-electron system (eV)
  ---------------------------------------------------
  alpha Z        PSCENC =        18.74779820
  Ewald energy   TEWEN  =      8065.03639907
  -Hartree energ DENC   =    -11433.89828022
  -exchange      EXHF   =         0.00000000
  -V(xc)+E(xc)   XCENC  =      -131.69314055
  PAW double counting   =      2444.04415745    -2302.88780480
  entropy T*S    EENTRO =         0.00000000
  eigenvalues    EBANDS =         8.33379301
  atomic energy  EATOM  =      3719.84694474
  Solvation  Ediel_sol  =         0.00000000
  ---------------------------------------------------
  free energy    TOTEN  =       387.52986690 eV

  energy without entropy =      387.52986690  energy(sigma->0) =      387.52986690


--------------------------------------------------------------------------------------------------------




--------------------------------------- Iteration      1(   2)  ---------------------------------------


     EDDAV:  cpu time   33.0400: real time   33.2593
 BZINTS: Fermi energy: -1.207904; 64.000000 electrons
         Band energy:-370.957722;  BLOECHL correction: -0.002019
       DOS:  cpu time    0.0040: real time    0.0046
    --------------------------------------------
      LOOP:  cpu time   33.0440: real time   33.2639

 eigenvalue-minimisations  :  1440
 total energy-change (2. order) :-0.3792915E+03  (-0.3641950E+03)
 number of electron      64.0000000 magnetization       7.3200000
 augmentation part       64.0000000 magnetization       7.3200000

 Free energy of the ion-electron system (eV)
  ---------------------------------------------------
  alpha Z        PSCENC =        18.74779820
  Ewald energy   TEWEN  =      8065.03639907
  -Hartree energ DENC   =    -11433.89828022
  -exchange      EXHF   =         0.00000000
  -V(xc)+E(xc)   XCENC  =      -131.69314055
  PAW double counting   =      2444.04415745    -2302.88780480
  entropy T*S    EENTRO =         0.00000000
  eigenvalues    EBANDS =      -370.95772174
  atomic energy  EATOM  =      3719.84694474
  Solvation  Ediel_sol  =         0.00000000
  ---------------------------------------------------
  free energy    TOTEN  =         8.23835214 eV

  energy without entropy =        8.23835214  energy(sigma->0) =        8.23835214


--------------------------------------------------------------------------------------------------------




--------------------------------------- Iteration      1(   3)  ---------------------------------------


     EDDAV:  cpu time   29.3600: real time   29.9675
 BZINTS: Fermi energy: -1.945474; 64.000000 electrons
         Band energy:-411.533408;  BLOECHL correction: -0.013344
       DOS:  cpu time    0.0040: real time    0.0055
    --------------------------------------------
      LOOP:  cpu time   29.3640: real time   29.9729

 eigenvalue-minimisations  :  1280
 total energy-change (2. order) :-0.4057569E+02  (-0.4013752E+02)
 number of electron      64.0000000 magnetization       7.3200000
 augmentation part       64.0000000 magnetization       7.3200000

 Free energy of the ion-electron system (eV)
  ---------------------------------------------------
  alpha Z        PSCENC =        18.74779820
  Ewald energy   TEWEN  =      8065.03639907
  -Hartree energ DENC   =    -11433.89828022
  -exchange      EXHF   =         0.00000000
  -V(xc)+E(xc)   XCENC  =      -131.69314055
  PAW double counting   =      2444.04415745    -2302.88780480
  entropy T*S    EENTRO =         0.00000000
  eigenvalues    EBANDS =      -411.53340797
  atomic energy  EATOM  =      3719.84694474
  Solvation  Ediel_sol  =         0.00000000
  ---------------------------------------------------
  free energy    TOTEN  =       -32.33733408 eV

  energy without entropy =      -32.33733408  energy(sigma->0) =      -32.33733408


--------------------------------------------------------------------------------------------------------




--------------------------------------- Iteration      1(   4)  ---------------------------------------


     EDDAV:  cpu time   30.3800: real time   30.6780
 BZINTS: Fermi energy: -1.953926; 64.000000 electrons
         Band energy:-413.059558;  BLOECHL correction: -0.013184
       DOS:  cpu time    0.0080: real time    0.0069
    --------------------------------------------
      LOOP:  cpu time   30.3880: real time   30.6848

 eigenvalue-minimisations  :  1328
 total energy-change (2. order) :-0.1526150E+01  (-0.1525108E+01)
 number of electron      64.0000000 magnetization       7.3200000
 augmentation part       64.0000000 magnetization       7.3200000

 Free energy of the ion-electron system (eV)
  ---------------------------------------------------
  alpha Z        PSCENC =        18.74779820
  Ewald energy   TEWEN  =      8065.03639907
  -Hartree energ DENC   =    -11433.89828022
  -exchange      EXHF   =         0.00000000
  -V(xc)+E(xc)   XCENC  =      -131.69314055
  PAW double counting   =      2444.04415745    -2302.88780480
  entropy T*S    EENTRO =         0.00000000
  eigenvalues    EBANDS =      -413.05955816
  atomic energy  EATOM  =      3719.84694474
  Solvation  Ediel_sol  =         0.00000000
  ---------------------------------------------------
  free energy    TOTEN  =       -33.86348427 eV

  energy without entropy =      -33.86348427  energy(sigma->0) =      -33.86348427


--------------------------------------------------------------------------------------------------------




--------------------------------------- Iteration      1(   5)  ---------------------------------------


     EDDAV:  cpu time   32.3480: real time   32.9331
 BZINTS: Fermi energy: -1.953948; 64.000000 electrons
         Band energy:-413.086972;  BLOECHL correction: -0.013181
       DOS:  cpu time    0.0040: real time    0.0050
    CHARGE:  cpu time    2.1720: real time    2.1705
    MIXING:  cpu time    0.0440: real time    0.0443
    --------------------------------------------
      LOOP:  cpu time   34.5680: real time   35.1529

 eigenvalue-minimisations  :  1424
 total energy-change (2. order) :-0.2741364E-01  (-0.2741316E-01)
 number of electron      63.9999998 magnetization       6.7495963
 augmentation part        2.5161202 magnetization       5.9378986

 Broyden mixing:
  rms(total) = 0.15963E+01    rms(broyden)= 0.15954E+01
  rms(prec ) = 0.17032E+01
  weight for this iteration     100.00

 Free energy of the ion-electron system (eV)
  ---------------------------------------------------
  alpha Z        PSCENC =        18.74779820
  Ewald energy   TEWEN  =      8065.03639907
  -Hartree energ DENC   =    -11433.89828022
  -exchange      EXHF   =         0.00000000
  -V(xc)+E(xc)   XCENC  =      -131.69314055
  PAW double counting   =      2444.04415745    -2302.88780480
  entropy T*S    EENTRO =         0.00000000
  eigenvalues    EBANDS =      -413.08697180
  atomic energy  EATOM  =      3719.84694474
  Solvation  Ediel_sol  =         0.00000000
  ---------------------------------------------------
  free energy    TOTEN  =       -33.89089791 eV

  energy without entropy =      -33.89089791  energy(sigma->0) =      -33.89089791


--------------------------------------------------------------------------------------------------------




--------------------------------------- Iteration      1(   6)  ---------------------------------------


    POTLOK:  cpu time   52.2680: real time   52.4679
    SETDIJ:  cpu time    0.0880: real time    0.0914
     EDDAV:  cpu time   26.0120: real time   26.1092
 BZINTS: Fermi energy: -2.989323; 64.000000 electrons
         Band energy:-526.541588;  BLOECHL correction: -0.062614
       DOS:  cpu time    0.0040: real time    0.0072
    CHARGE:  cpu time    2.1520: real time    2.1508
    MIXING:  cpu time    0.0440: real time    0.0455
    --------------------------------------------
      LOOP:  cpu time   80.5680: real time   80.8722

 eigenvalue-minimisations  :  1104
 total energy-change (2. order) :-0.1187584E+02  (-0.7551518E+01)
 number of electron      63.9999998 magnetization       6.5382349
 augmentation part        7.4410261 magnetization       5.0378236

 Broyden mixing:
  rms(total) = 0.24971E+01    rms(broyden)= 0.24967E+01
  rms(prec ) = 0.26938E+01
  weight for this iteration     100.00

 eigenvalues of (default mixing * dielectric matrix)
  average eigenvalue GAMMA=   0.3497
  0.3497

 Free energy of the ion-electron system (eV)
  ---------------------------------------------------
  alpha Z        PSCENC =        18.74779820
  Ewald energy   TEWEN  =      8065.03639907
  -Hartree energ DENC   =    -11344.70645230
  -exchange      EXHF   =         0.00000000
  -V(xc)+E(xc)   XCENC  =      -134.70086609
  PAW double counting   =      2330.65282062    -2174.10179852
  entropy T*S    EENTRO =         0.00000000
  eigenvalues    EBANDS =      -526.54158820
  atomic energy  EATOM  =      3719.84694474
  Solvation  Ediel_sol  =         0.00000000
  ---------------------------------------------------
  free energy    TOTEN  =       -45.76674248 eV

  energy without entropy =      -45.76674248  energy(sigma->0) =      -45.76674248


--------------------------------------------------------------------------------------------------------




--------------------------------------- Iteration      1(   7)  ---------------------------------------


    POTLOK:  cpu time   51.9640: real time   52.1090
    SETDIJ:  cpu time    0.0640: real time    0.0635
     EDDAV:  cpu time   25.2200: real time   25.2767
 BZINTS: Fermi energy: -2.588317; 64.000000 electrons
         Band energy:-439.177625;  BLOECHL correction: -0.023661
       DOS:  cpu time    0.0040: real time    0.0052
    CHARGE:  cpu time    2.2120: real time    2.2095
    MIXING:  cpu time    0.0400: real time    0.0411
    --------------------------------------------
      LOOP:  cpu time   79.5040: real time   79.7049

 eigenvalue-minimisations  :  1072
 total energy-change (2. order) : 0.1359479E+02  (-0.2439946E+01)
 number of electron      63.9999998 magnetization       6.0834871
 augmentation part        5.3853179 magnetization       4.5499001

 Broyden mixing:
  rms(total) = 0.69551E+00    rms(broyden)= 0.69541E+00
  rms(prec ) = 0.76416E+00
  weight for this iteration     100.00

 eigenvalues of (default mixing * dielectric matrix)
  average eigenvalue GAMMA=   0.6264
  0.7044  0.5484

 Free energy of the ion-electron system (eV)
  ---------------------------------------------------
  alpha Z        PSCENC =        18.74779820
  Ewald energy   TEWEN  =      8065.03639907
  -Hartree energ DENC   =    -11405.61212058
  -exchange      EXHF   =         0.00000000
  -V(xc)+E(xc)   XCENC  =      -132.77605525
  PAW double counting   =      2439.49540482    -2297.73269754
  entropy T*S    EENTRO =         0.00000000
  eigenvalues    EBANDS =      -439.17762463
  atomic energy  EATOM  =      3719.84694474
  Solvation  Ediel_sol  =         0.00000000
  ---------------------------------------------------
  free energy    TOTEN  =       -32.17195118 eV

  energy without entropy =      -32.17195118  energy(sigma->0) =      -32.17195118


--------------------------------------------------------------------------------------------------------




--------------------------------------- Iteration      1(   8)  ---------------------------------------


    POTLOK:  cpu time   50.7440: real time   52.4439
    SETDIJ:  cpu time    0.0520: real time    0.0513
     EDDAV:  cpu time   32.8680: real time   33.1688
 BZINTS: Fermi energy: -2.001496; 64.000000 electrons
         Band energy:-410.401915;  BLOECHL correction: -0.008700
       DOS:  cpu time    0.0040: real time    0.0045
    CHARGE:  cpu time    2.1240: real time    2.1409
    MIXING:  cpu time    0.0440: real time    0.0436
    --------------------------------------------
      LOOP:  cpu time   85.8360: real time   87.8531

 eigenvalue-minimisations  :  1456
 total energy-change (2. order) :-0.2725496E+00  (-0.6965360E+00)
 number of electron      63.9999998 magnetization       5.5438273
 augmentation part        3.3750845 magnetization       4.4303399

 Broyden mixing:
  rms(total) = 0.87617E+00    rms(broyden)= 0.87572E+00
  rms(prec ) = 0.94022E+00
  weight for this iteration     100.00

 eigenvalues of (default mixing * dielectric matrix)
  average eigenvalue GAMMA=   0.7237
  1.1412  0.5149  0.5149

 Free energy of the ion-electron system (eV)
  ---------------------------------------------------
  alpha Z        PSCENC =        18.74779820
  Ewald energy   TEWEN  =      8065.03639907
  -Hartree energ DENC   =    -11432.12968148
  -exchange      EXHF   =         0.00000000
  -V(xc)+E(xc)   XCENC  =      -132.02714529
  PAW double counting   =      2502.27162377    -2363.78852457
  entropy T*S    EENTRO =         0.00000000
  eigenvalues    EBANDS =      -410.40191522
  atomic energy  EATOM  =      3719.84694474
  Solvation  Ediel_sol  =         0.00000000
  ---------------------------------------------------
  free energy    TOTEN  =       -32.44450078 eV

  energy without entropy =      -32.44450078  energy(sigma->0) =      -32.44450078


--------------------------------------------------------------------------------------------------------




--------------------------------------- Iteration      1(   9)  ---------------------------------------


    POTLOK:  cpu time   51.6280: real time   51.8004
    SETDIJ:  cpu time    0.0520: real time    0.0513
     EDDAV:  cpu time   26.9440: real time   27.0508
 BZINTS: Fermi energy: -2.516904; 64.000000 electrons
         Band energy:-431.392185;  BLOECHL correction: -0.015638
       DOS:  cpu time    0.0080: real time    0.0070
    CHARGE:  cpu time    2.0680: real time    2.1563
    MIXING:  cpu time    0.0440: real time    0.0428
    --------------------------------------------
      LOOP:  cpu time   80.7440: real time   81.1085

 eigenvalue-minimisations  :  1168
 total energy-change (2. order) : 0.1529774E+00  (-0.4411675E+00)
 number of electron      63.9999998 magnetization       4.7180646
 augmentation part        5.0925943 magnetization       3.3034741

 Broyden mixing:
  rms(total) = 0.52438E+00    rms(broyden)= 0.52407E+00
  rms(prec ) = 0.56860E+00
  weight for this iteration     100.00

 eigenvalues of (default mixing * dielectric matrix)
  average eigenvalue GAMMA=   1.0037
  2.2241  0.8647  0.4631  0.4631

 Free energy of the ion-electron system (eV)
  ---------------------------------------------------
  alpha Z        PSCENC =        18.74779820
  Ewald energy   TEWEN  =      8065.03639907
  -Hartree energ DENC   =    -11411.94995105
  -exchange      EXHF   =         0.00000000
  -V(xc)+E(xc)   XCENC  =      -132.57472803
  PAW double counting   =      2481.23038119    -2341.23618300
  entropy T*S    EENTRO =         0.00000000
  eigenvalues    EBANDS =      -431.39218453
  atomic energy  EATOM  =      3719.84694474
  Solvation  Ediel_sol  =         0.00000000
  ---------------------------------------------------
  free energy    TOTEN  =       -32.29152341 eV

  energy without entropy =      -32.29152341  energy(sigma->0) =      -32.29152341


--------------------------------------------------------------------------------------------------------




--------------------------------------- Iteration      1(  10)  ---------------------------------------


    POTLOK:  cpu time   50.9960: real time   51.3793
    SETDIJ:  cpu time    0.0480: real time    0.0460
     EDDAV:  cpu time   26.8720: real time   27.0420
 BZINTS: Fermi energy: -2.276724; 64.031885 electrons
         Band energy:-418.707407;  BLOECHL correction: -0.010938
       DOS:  cpu time    0.0040: real time    0.0086
    CHARGE:  cpu time    2.1520: real time    2.1540
    MIXING:  cpu time    0.0640: real time    0.0680
    --------------------------------------------
      LOOP:  cpu time   80.1360: real time   80.6979

 eigenvalue-minimisations  :  1168
 total energy-change (2. order) : 0.6139329E-01  (-0.6475322E-01)
 number of electron      64.0318847 magnetization       4.4444335
 augmentation part        4.4782229 magnetization       3.1908403

 Broyden mixing:
  rms(total) = 0.19088E+00    rms(broyden)= 0.19075E+00
  rms(prec ) = 0.19749E+00
  weight for this iteration     100.00

 eigenvalues of (default mixing * dielectric matrix)
  average eigenvalue GAMMA=   0.9578
  2.4177  0.9890  0.4552  0.4552  0.4718

 Free energy of the ion-electron system (eV)
  ---------------------------------------------------
  alpha Z        PSCENC =        18.74779820
  Ewald energy   TEWEN  =      8065.03639907
  -Hartree energ DENC   =    -11423.88378460
  -exchange      EXHF   =         0.00000000
  -V(xc)+E(xc)   XCENC  =      -132.23094031
  PAW double counting   =      2513.41746571    -2374.45660638
  entropy T*S    EENTRO =         0.00000000
  eigenvalues    EBANDS =      -418.70740655
  atomic energy  EATOM  =      3719.84694474
  Solvation  Ediel_sol  =         0.00000000
  ---------------------------------------------------
  free energy    TOTEN  =       -32.23013012 eV

  energy without entropy =      -32.23013012  energy(sigma->0) =      -32.23013012


--------------------------------------------------------------------------------------------------------




--------------------------------------- Iteration      1(  11)  ---------------------------------------


    POTLOK:  cpu time   50.4560: real time   50.7171
    SETDIJ:  cpu time    0.0520: real time    0.0502
     EDDAV:  cpu time   27.5160: real time   27.6433
 BZINTS: Fermi energy: -2.247261; 64.000000 electrons
         Band energy:-416.927950;  BLOECHL correction: -0.010692
       DOS:  cpu time    0.0040: real time    0.0073
    CHARGE:  cpu time    2.1320: real time    2.1465
    MIXING:  cpu time    0.0400: real time    0.0439
    --------------------------------------------
      LOOP:  cpu time   80.2000: real time   80.6083

 eigenvalue-minimisations  :  1200
 total energy-change (2. order) : 0.3481696E-01  (-0.5429844E-01)
 number of electron      63.9999998 magnetization       3.6621169
 augmentation part        4.3971967 magnetization       2.4876941

 Broyden mixing:
  rms(total) = 0.27393E+00    rms(broyden)= 0.27385E+00
  rms(prec ) = 0.29392E+00
  weight for this iteration     100.00

 eigenvalues of (default mixing * dielectric matrix)
  average eigenvalue GAMMA=   1.0149
  2.9093  1.3919  0.6973  0.4665  0.4665  0.1578

 Free energy of the ion-electron system (eV)
  ---------------------------------------------------
  alpha Z        PSCENC =        18.74779820
  Ewald energy   TEWEN  =      8065.03639907
  -Hartree energ DENC   =    -11425.73019114
  -exchange      EXHF   =         0.00000000
  -V(xc)+E(xc)   XCENC  =      -132.09723076
  PAW double counting   =      2515.74616880    -2376.81725233
  entropy T*S    EENTRO =         0.00000000
  eigenvalues    EBANDS =      -416.92794974
  atomic energy  EATOM  =      3719.84694474
  Solvation  Ediel_sol  =         0.00000000
  ---------------------------------------------------
  free energy    TOTEN  =       -32.19531316 eV

  energy without entropy =      -32.19531316  energy(sigma->0) =      -32.19531316


--------------------------------------------------------------------------------------------------------




--------------------------------------- Iteration      1(  12)  ---------------------------------------


    POTLOK:  cpu time   50.8360: real time   50.8989
    SETDIJ:  cpu time    0.0480: real time    0.0484
     EDDAV:  cpu time   24.3400: real time   24.6092
 BZINTS: Fermi energy: -2.201397; 64.032086 electrons
         Band energy:-413.776579;  BLOECHL correction: -0.009793
       DOS:  cpu time    0.0080: real time    0.0092
    CHARGE:  cpu time    2.0880: real time    2.1681
    MIXING:  cpu time    0.0440: real time    0.0439
    --------------------------------------------
      LOOP:  cpu time   77.3640: real time   77.7778

 eigenvalue-minimisations  :  1056
 total energy-change (2. order) :-0.2000199E+00  (-0.5704670E-01)
 number of electron      64.0320862 magnetization       2.7936818
 augmentation part        4.3639015 magnetization       1.6467473

 Broyden mixing:
  rms(total) = 0.11301E+00    rms(broyden)= 0.11291E+00
  rms(prec ) = 0.11746E+00
  weight for this iteration     100.00

 eigenvalues of (default mixing * dielectric matrix)
  average eigenvalue GAMMA=   1.2714
  4.2264  1.9983  0.9561  0.4657  0.4657  0.6355  0.1519

 Free energy of the ion-electron system (eV)
  ---------------------------------------------------
  alpha Z        PSCENC =        18.74779820
  Ewald energy   TEWEN  =      8065.03639907
  -Hartree energ DENC   =    -11429.30658714
  -exchange      EXHF   =         0.00000000
  -V(xc)+E(xc)   XCENC  =      -132.11873652
  PAW double counting   =      2516.95822140    -2377.78279417
  entropy T*S    EENTRO =         0.00000000
  eigenvalues    EBANDS =      -413.77657868
  atomic energy  EATOM  =      3719.84694474
  Solvation  Ediel_sol  =         0.00000000
  ---------------------------------------------------
  free energy    TOTEN  =       -32.39533311 eV

  energy without entropy =      -32.39533311  energy(sigma->0) =      -32.39533311


--------------------------------------------------------------------------------------------------------




--------------------------------------- Iteration      1(  13)  ---------------------------------------


    POTLOK:  cpu time   50.7480: real time   51.0152
    SETDIJ:  cpu time    0.0760: real time    0.0777
     EDDAV:  cpu time   25.8040: real time   26.0306
 BZINTS: Fermi energy: -2.152004; 63.999930 electrons
         Band energy:-410.914245;  BLOECHL correction: -0.007257
       DOS:  cpu time    0.0080: real time    0.0072
    CHARGE:  cpu time    2.1400: real time    2.1422
    MIXING:  cpu time    0.0600: real time    0.0600
    --------------------------------------------
      LOOP:  cpu time   78.8360: real time   79.3329

 eigenvalue-minimisations  :  1120
 total energy-change (2. order) : 0.1836227E-01  (-0.7953628E-02)
 number of electron      63.9999295 magnetization       2.1964214
 augmentation part        4.3176109 magnetization       1.1361855

 Broyden mixing:
  rms(total) = 0.10448E+00    rms(broyden)= 0.10446E+00
  rms(prec ) = 0.11277E+00
  weight for this iteration     100.00

 eigenvalues of (default mixing * dielectric matrix)
  average eigenvalue GAMMA=   1.5567
  6.2271  2.3549  1.3355  0.4668  0.4668  0.8143  0.6363  0.1517

 Free energy of the ion-electron system (eV)
  ---------------------------------------------------
  alpha Z        PSCENC =        18.74779820
  Ewald energy   TEWEN  =      8065.03639907
  -Hartree energ DENC   =    -11432.48860286
  -exchange      EXHF   =         0.00000000
  -V(xc)+E(xc)   XCENC  =      -132.06137895
  PAW double counting   =      2511.94840195    -2372.49228783
  entropy T*S    EENTRO =         0.00000000
  eigenvalues    EBANDS =      -410.91424516
  atomic energy  EATOM  =      3719.84694474
  Solvation  Ediel_sol  =         0.00000000
  ---------------------------------------------------
  free energy    TOTEN  =       -32.37697083 eV

  energy without entropy =      -32.37697083  energy(sigma->0) =      -32.37697083


--------------------------------------------------------------------------------------------------------




--------------------------------------- Iteration      1(  14)  ---------------------------------------


    POTLOK:  cpu time   50.8520: real time   51.1596
    SETDIJ:  cpu time    0.0480: real time    0.0493
     EDDAV:  cpu time   25.9160: real time   26.1715
 BZINTS: Fermi energy: -2.165289; 64.000000 electrons
         Band energy:-411.588919;  BLOECHL correction: -0.014509
       DOS:  cpu time    0.0040: real time    0.0071
    CHARGE:  cpu time    2.1440: real time    2.1429
    MIXING:  cpu time    0.0440: real time    0.0453
    --------------------------------------------
      LOOP:  cpu time   79.0080: real time   79.5758

 eigenvalue-minimisations  :  1136
 total energy-change (2. order) :-0.8168944E-01  (-0.3066380E-02)
 number of electron      63.9999998 magnetization       1.9613869
 augmentation part        4.4473690 magnetization       0.9120716

 Broyden mixing:
  rms(total) = 0.38389E-01    rms(broyden)= 0.38343E-01
  rms(prec ) = 0.38907E-01
  weight for this iteration     100.00

 eigenvalues of (default mixing * dielectric matrix)
  average eigenvalue GAMMA=   1.7390
  7.9473  2.4325  1.8713  0.4666  0.4666  0.9038  0.7874  0.6242  0.1518

 Free energy of the ion-electron system (eV)
  ---------------------------------------------------
  alpha Z        PSCENC =        18.74779820
  Ewald energy   TEWEN  =      8065.03639907
  -Hartree energ DENC   =    -11431.86062556
  -exchange      EXHF   =         0.00000000
  -V(xc)+E(xc)   XCENC  =      -132.25073459
  PAW double counting   =      2504.06214269    -2364.45166617
  entropy T*S    EENTRO =         0.00000000
  eigenvalues    EBANDS =      -411.58891865
  atomic energy  EATOM  =      3719.84694474
  Solvation  Ediel_sol  =         0.00000000
  ---------------------------------------------------
  free energy    TOTEN  =       -32.45866027 eV

  energy without entropy =      -32.45866027  energy(sigma->0) =      -32.45866027


--------------------------------------------------------------------------------------------------------




--------------------------------------- Iteration      1(  15)  ---------------------------------------


    POTLOK:  cpu time   50.7960: real time   50.8791
    SETDIJ:  cpu time    0.0520: real time    0.0496
     EDDAV:  cpu time   23.8880: real time   23.9714
 BZINTS: Fermi energy: -2.137958; 64.000000 electrons
         Band energy:-410.517049;  BLOECHL correction: -0.016861
       DOS:  cpu time    0.0040: real time    0.0050
    CHARGE:  cpu time    2.1320: real time    2.1332
    MIXING:  cpu time    0.0760: real time    0.0770
    --------------------------------------------
      LOOP:  cpu time   76.9480: real time   77.1154

 eigenvalue-minimisations  :  1024
 total energy-change (2. order) :-0.4686468E-02  (-0.8748908E-03)
 number of electron      63.9999998 magnetization       1.8615263
 augmentation part        4.3926127 magnetization       0.8354313

 Broyden mixing:
  rms(total) = 0.39142E-01    rms(broyden)= 0.39137E-01
  rms(prec ) = 0.42677E-01
  weight for this iteration     100.00

 eigenvalues of (default mixing * dielectric matrix)
  average eigenvalue GAMMA=   1.8520
  9.6679  2.5490  1.9605  1.0733  0.4667  0.4667  0.8800  0.6853  0.6192  0.1518

 Free energy of the ion-electron system (eV)
  ---------------------------------------------------
  alpha Z        PSCENC =        18.74779820
  Ewald energy   TEWEN  =      8065.03639907
  -Hartree energ DENC   =    -11432.68549615
  -exchange      EXHF   =         0.00000000
  -V(xc)+E(xc)   XCENC  =      -132.27970995
  PAW double counting   =      2505.92710978    -2366.53934373
  entropy T*S    EENTRO =         0.00000000
  eigenvalues    EBANDS =      -410.51704869
  atomic energy  EATOM  =      3719.84694474
  Solvation  Ediel_sol  =         0.00000000
  ---------------------------------------------------
  free energy    TOTEN  =       -32.46334674 eV

  energy without entropy =      -32.46334674  energy(sigma->0) =      -32.46334674


--------------------------------------------------------------------------------------------------------




--------------------------------------- Iteration      1(  16)  ---------------------------------------


    POTLOK:  cpu time   50.7480: real time   50.9782
    SETDIJ:  cpu time    0.0480: real time    0.0492
     EDDAV:  cpu time   22.4280: real time   22.5816
 BZINTS: Fermi energy: -2.154112; 64.000000 electrons
         Band energy:-411.321213;  BLOECHL correction: -0.018818
       DOS:  cpu time    0.0040: real time    0.0070
    CHARGE:  cpu time    2.1080: real time    2.1563
    MIXING:  cpu time    0.0480: real time    0.0472
    --------------------------------------------
      LOOP:  cpu time   75.3840: real time   75.8194

 eigenvalue-minimisations  :   960
 total energy-change (2. order) :-0.7849482E-03  (-0.6541633E-03)
 number of electron      63.9999998 magnetization       1.8309860
 augmentation part        4.4574111 magnetization       0.8092391

 Broyden mixing:
  rms(total) = 0.16280E-01    rms(broyden)= 0.16244E-01
  rms(prec ) = 0.17391E-01
  weight for this iteration     100.00

 eigenvalues of (default mixing * dielectric matrix)
  average eigenvalue GAMMA=   1.8082
  9.9130  2.5136  2.2141  1.2177  0.9807  0.4667  0.4667  0.7567  0.6450  0.5645
  0.1518

 Free energy of the ion-electron system (eV)
  ---------------------------------------------------
  alpha Z        PSCENC =        18.74779820
  Ewald energy   TEWEN  =      8065.03639907
  -Hartree energ DENC   =    -11431.88977604
  -exchange      EXHF   =         0.00000000
  -V(xc)+E(xc)   XCENC  =      -132.31528194
  PAW double counting   =      2504.74265333    -2365.31165560
  entropy T*S    EENTRO =         0.00000000
  eigenvalues    EBANDS =      -411.32121344
  atomic energy  EATOM  =      3719.84694474
  Solvation  Ediel_sol  =         0.00000000
  ---------------------------------------------------
  free energy    TOTEN  =       -32.46413169 eV

  energy without entropy =      -32.46413169  energy(sigma->0) =      -32.46413169


--------------------------------------------------------------------------------------------------------




--------------------------------------- Iteration      1(  17)  ---------------------------------------


    POTLOK:  cpu time   50.6480: real time   50.8393
    SETDIJ:  cpu time    0.0480: real time    0.0499
     EDDAV:  cpu time   25.0120: real time   25.3852
 BZINTS: Fermi energy: -2.147433; 64.000000 electrons
         Band energy:-411.117821;  BLOECHL correction: -0.019381
       DOS:  cpu time    0.0040: real time    0.0067
    CHARGE:  cpu time    2.1440: real time    2.1964
    MIXING:  cpu time    0.0480: real time    0.0481
    --------------------------------------------
      LOOP:  cpu time   77.9040: real time   78.5257

 eigenvalue-minimisations  :  1088
 total energy-change (2. order) :-0.1368724E-03  (-0.1053051E-03)
 number of electron      63.9999998 magnetization       1.8038448
 augmentation part        4.4438284 magnetization       0.7885446

 Broyden mixing:
  rms(total) = 0.53993E-02    rms(broyden)= 0.53933E-02
  rms(prec ) = 0.63530E-02
  weight for this iteration     100.00

 eigenvalues of (default mixing * dielectric matrix)
  average eigenvalue GAMMA=   1.8416
 10.1057  2.6201  2.6201  1.7052  1.0666  0.4667  0.4667  0.8207  0.8207  0.6027
  0.6520  0.1518

 Free energy of the ion-electron system (eV)
  ---------------------------------------------------
  alpha Z        PSCENC =        18.74779820
  Ewald energy   TEWEN  =      8065.03639907
  -Hartree energ DENC   =    -11432.05328079
  -exchange      EXHF   =         0.00000000
  -V(xc)+E(xc)   XCENC  =      -132.32062044
  PAW double counting   =      2505.82353102    -2366.42721960
  entropy T*S    EENTRO =         0.00000000
  eigenvalues    EBANDS =      -411.11782076
  atomic energy  EATOM  =      3719.84694474
  Solvation  Ediel_sol  =         0.00000000
  ---------------------------------------------------
  free energy    TOTEN  =       -32.46426856 eV

  energy without entropy =      -32.46426856  energy(sigma->0) =      -32.46426856


--------------------------------------------------------------------------------------------------------




--------------------------------------- Iteration      1(  18)  ---------------------------------------


    POTLOK:  cpu time   50.6480: real time   50.8497
    SETDIJ:  cpu time    0.0480: real time    0.0501
     EDDAV:  cpu time   23.1120: real time   23.3439
 BZINTS: Fermi energy: -2.145737; 64.000000 electrons
         Band energy:-411.054351;  BLOECHL correction: -0.019907
       DOS:  cpu time    0.0080: real time    0.0074
    CHARGE:  cpu time    2.1400: real time    2.2218
    MIXING:  cpu time    0.0480: real time    0.0494
    --------------------------------------------
      LOOP:  cpu time   76.0040: real time   76.5223

 eigenvalue-minimisations  :   992
 total energy-change (2. order) :-0.1217184E-02  (-0.6514027E-04)
 number of electron      63.9999998 magnetization       1.8027783
 augmentation part        4.4438692 magnetization       0.7909454

 Broyden mixing:
  rms(total) = 0.32395E-02    rms(broyden)= 0.32331E-02
  rms(prec ) = 0.44461E-02
  weight for this iteration     100.00

 eigenvalues of (default mixing * dielectric matrix)
  average eigenvalue GAMMA=   1.8198
 10.1592  2.8201  2.8201  1.9131  1.1111  0.4667  0.4667  0.1518  0.9360  0.8567
  0.7252  0.5912  0.6402

 Free energy of the ion-electron system (eV)
  ---------------------------------------------------
  alpha Z        PSCENC =        18.74779820
  Ewald energy   TEWEN  =      8065.03639907
  -Hartree energ DENC   =    -11432.10742073
  -exchange      EXHF   =         0.00000000
  -V(xc)+E(xc)   XCENC  =      -132.32979837
  PAW double counting   =      2506.83009915    -2367.43515667
  entropy T*S    EENTRO =         0.00000000
  eigenvalues    EBANDS =      -411.05435112
  atomic energy  EATOM  =      3719.84694474
  Solvation  Ediel_sol  =         0.00000000
  ---------------------------------------------------
  free energy    TOTEN  =       -32.46548575 eV

  energy without entropy =      -32.46548575  energy(sigma->0) =      -32.46548575


--------------------------------------------------------------------------------------------------------




--------------------------------------- Iteration      1(  19)  ---------------------------------------


    POTLOK:  cpu time   50.5960: real time   51.0164
    SETDIJ:  cpu time    0.0520: real time    0.0499
     EDDAV:  cpu time   21.4920: real time   21.6110
 BZINTS: Fermi energy: -2.144170; 64.000000 electrons
         Band energy:-410.968090;  BLOECHL correction: -0.019973
       DOS:  cpu time    0.0040: real time    0.0068
    CHARGE:  cpu time    2.1560: real time    2.1558
    MIXING:  cpu time    0.0520: real time    0.0546
    --------------------------------------------
      LOOP:  cpu time   74.3520: real time   74.8945

 eigenvalue-minimisations  :   896
 total energy-change (2. order) :-0.1010675E-02  (-0.2694793E-04)
 number of electron      63.9999998 magnetization       1.7964641
 augmentation part        4.4424583 magnetization       0.7855161

 Broyden mixing:
  rms(total) = 0.21451E-02    rms(broyden)= 0.21443E-02
  rms(prec ) = 0.34789E-02
  weight for this iteration     100.00

 eigenvalues of (default mixing * dielectric matrix)
  average eigenvalue GAMMA=   1.7966
 10.1941  3.1987  2.7171  1.9644  0.1518  0.4667  0.4667  1.2316  1.0121  1.0121
  0.5999  0.6526  0.7422  0.7422

 Free energy of the ion-electron system (eV)
  ---------------------------------------------------
  alpha Z        PSCENC =        18.74779820
  Ewald energy   TEWEN  =      8065.03639907
  -Hartree energ DENC   =    -11432.19869682
  -exchange      EXHF   =         0.00000000
  -V(xc)+E(xc)   XCENC  =      -132.33052777
  PAW double counting   =      2506.91019772    -2367.51052135
  entropy T*S    EENTRO =         0.00000000
  eigenvalues    EBANDS =      -410.96809020
  atomic energy  EATOM  =      3719.84694474
  Solvation  Ediel_sol  =         0.00000000
  ---------------------------------------------------
  free energy    TOTEN  =       -32.46649642 eV

  energy without entropy =      -32.46649642  energy(sigma->0) =      -32.46649642


--------------------------------------------------------------------------------------------------------




--------------------------------------- Iteration      1(  20)  ---------------------------------------


    POTLOK:  cpu time   50.9800: real time   51.0944
    SETDIJ:  cpu time    0.0480: real time    0.0495
     EDDAV:  cpu time   22.8360: real time   23.0630
 BZINTS: Fermi energy: -2.140277; 64.000000 electrons
         Band energy:-410.742183;  BLOECHL correction: -0.020101
       DOS:  cpu time    0.0080: real time    0.0069
    CHARGE:  cpu time    2.0840: real time    2.1754
    MIXING:  cpu time    0.0520: real time    0.0551
    --------------------------------------------
      LOOP:  cpu time   76.0080: real time   76.4443

 eigenvalue-minimisations  :   976
 total energy-change (2. order) :-0.4385642E-03  (-0.2773397E-04)
 number of electron      63.9999998 magnetization       1.7930038
 augmentation part        4.4402178 magnetization       0.7833856

 Broyden mixing:
  rms(total) = 0.83014E-03    rms(broyden)= 0.82903E-03
  rms(prec ) = 0.24396E-02
  weight for this iteration     100.00

 eigenvalues of (default mixing * dielectric matrix)
  average eigenvalue GAMMA=   1.7939
 10.2152  3.4824  2.6701  2.1025  1.6811  0.1518  0.4667  0.4667  1.1245  1.0106
  0.8151  0.8151  0.5999  0.6530  0.6530

 Free energy of the ion-electron system (eV)
  ---------------------------------------------------
  alpha Z        PSCENC =        18.74779820
  Ewald energy   TEWEN  =      8065.03639907
  -Hartree energ DENC   =    -11432.42639303
  -exchange      EXHF   =         0.00000000
  -V(xc)+E(xc)   XCENC  =      -132.33345228
  PAW double counting   =      2506.94935675    -2367.54540506
  entropy T*S    EENTRO =         0.00000000
  eigenvalues    EBANDS =      -410.74218336
  atomic energy  EATOM  =      3719.84694474
  Solvation  Ediel_sol  =         0.00000000
  ---------------------------------------------------
  free energy    TOTEN  =       -32.46693498 eV

  energy without entropy =      -32.46693498  energy(sigma->0) =      -32.46693498


--------------------------------------------------------------------------------------------------------




--------------------------------------- Iteration      1(  21)  ---------------------------------------


    POTLOK:  cpu time   50.6720: real time   50.9091
    SETDIJ:  cpu time    0.0520: real time    0.0536
     EDDAV:  cpu time   21.6640: real time   21.8321
 BZINTS: Fermi energy: -2.137277; 64.000000 electrons
         Band energy:-410.550567;  BLOECHL correction: -0.020144
       DOS:  cpu time    0.0040: real time    0.0070
    CHARGE:  cpu time    2.1280: real time    2.1412
    MIXING:  cpu time    0.0560: real time    0.0567
    --------------------------------------------
      LOOP:  cpu time   74.5760: real time   74.9997

 eigenvalue-minimisations  :   896
 total energy-change (2. order) :-0.3220537E-03  (-0.1263955E-04)
 number of electron      63.9999998 magnetization       1.7920514
 augmentation part        4.4405027 magnetization       0.7829034

 Broyden mixing:
  rms(total) = 0.93729E-03    rms(broyden)= 0.93711E-03
  rms(prec ) = 0.22524E-02
  weight for this iteration     100.00

 eigenvalues of (default mixing * dielectric matrix)
  average eigenvalue GAMMA=   1.7733
 10.2198  3.5785  2.6987  2.3690  1.8217  1.2328  0.4667  0.4667  0.1518  0.9716
  0.9716  0.7646  0.7646  0.5968  0.6545  0.6431

 Free energy of the ion-electron system (eV)
  ---------------------------------------------------
  alpha Z        PSCENC =        18.74779820
  Ewald energy   TEWEN  =      8065.03639907
  -Hartree energ DENC   =    -11432.62093014
  -exchange      EXHF   =         0.00000000
  -V(xc)+E(xc)   XCENC  =      -132.33494358
  PAW double counting   =      2506.87313516    -2367.46509333
  entropy T*S    EENTRO =         0.00000000
  eigenvalues    EBANDS =      -410.55056716
  atomic energy  EATOM  =      3719.84694474
  Solvation  Ediel_sol  =         0.00000000
  ---------------------------------------------------
  free energy    TOTEN  =       -32.46725704 eV

  energy without entropy =      -32.46725704  energy(sigma->0) =      -32.46725704


--------------------------------------------------------------------------------------------------------




--------------------------------------- Iteration      1(  22)  ---------------------------------------


    POTLOK:  cpu time   50.8560: real time   50.9415
    SETDIJ:  cpu time    0.0520: real time    0.0514
     EDDAV:  cpu time   20.3360: real time   20.4031
 BZINTS: Fermi energy: -2.133091; 64.000000 electrons
         Band energy:-410.278455;  BLOECHL correction: -0.020154
       DOS:  cpu time    0.0040: real time    0.0070
    CHARGE:  cpu time    2.1400: real time    2.1455
    MIXING:  cpu time    0.1040: real time    0.1032
    --------------------------------------------
      LOOP:  cpu time   73.4920: real time   73.6517

 eigenvalue-minimisations  :   832
 total energy-change (2. order) :-0.3252956E-03  (-0.1862244E-04)
 number of electron      63.9999998 magnetization       1.7885516
 augmentation part        4.4416460 magnetization       0.7794454

 Broyden mixing:
  rms(total) = 0.10177E-02    rms(broyden)= 0.10175E-02
  rms(prec ) = 0.20589E-02
  weight for this iteration     100.00

 eigenvalues of (default mixing * dielectric matrix)
  average eigenvalue GAMMA=   1.8044
 10.2351  4.1820  2.5816  2.5816  2.0538  1.4950  1.1700  0.4667  0.4667  0.1518
  0.9932  0.9005  0.7576  0.7576  0.5976  0.6485  0.6354

 Free energy of the ion-electron system (eV)
  ---------------------------------------------------
  alpha Z        PSCENC =        18.74779820
  Ewald energy   TEWEN  =      8065.03639907
  -Hartree energ DENC   =    -11432.89296756
  -exchange      EXHF   =         0.00000000
  -V(xc)+E(xc)   XCENC  =      -132.33498899
[...]
     34      -1.3450      0.00000
     35      -1.0372      0.00000
     36      -0.0213      0.00000
     37       0.1080      0.00000
     38       1.1138      0.00000
     39       1.2057      0.00000
     40       1.7484      0.00000
     41       1.9435      0.00000
     42       2.1021      0.00000
     43       2.3454      0.00000
     44       2.4493      0.00000
     45       2.6338      0.00000
     46       3.1459      0.00000
     47       3.2341      0.00000
     48       3.4191      0.00000

 k-point     5 :      -0.4000    0.2000    0.0000
  band No.  band energies     occupation 
      1     -14.1189      1.00000
      2     -13.7510      1.00000
      3     -13.3622      1.00000
      4     -13.2277      1.00000
      5     -12.9970      1.00000
      6     -12.8336      1.00000
      7      -9.9945      1.00000
      8      -8.4552      1.00000
      9      -6.7498      1.00000
     10      -6.2813      1.00000
     11      -6.1517      1.00000
     12      -5.6903      1.00000
     13      -5.3698      1.00000
     14      -5.1820      1.00000
     15      -4.9867      1.00000
     16      -4.6594      1.00000
     17      -4.6235      1.00000
     18      -4.5879      1.00000
     19      -4.5593      1.00000
     20      -4.3429      1.00000
     21      -4.2131      1.00000
     22      -3.8141      1.00000
     23      -3.6163      1.00000
     24      -3.4985      1.00000
     25      -3.4294      1.00000
     26      -3.2825      1.00000
     27      -3.2142      1.00000
     28      -3.0131      1.00000
     29      -3.0037      1.00000
     30      -2.9041      1.00000
     31      -2.8420      1.00000
     32      -1.7284      1.00000
     33      -1.6455      0.00000
     34      -1.4817      0.00000
     35      -1.0054      0.00000
     36      -0.5523      0.00000
     37      -0.0475      0.00000
     38       0.5934      0.00000
     39       0.9402      0.00000
     40       1.5247      0.00000
     41       1.7440      0.00000
     42       1.8893      0.00000
     43       2.6495      0.00000
     44       2.8801      0.00000
     45       2.9003      0.00000
     46       3.0458      0.00000
     47       3.1123      0.00000
     48       3.6775      0.00000


--------------------------------------------------------------------------------------------------------


 soft charge-density along one line, spin component           1
         0         1         2         3         4         5         6         7         8         9
 total charge-density along one line

 soft charge-density along one line, spin component           2
         0         1         2         3         4         5         6         7         8         9
 total charge-density along one line

 pseudopotential strength for first ion, spin component:           1
 -9.893  -0.061  -0.000   0.000  -0.000   1.112   0.026   0.000
 -0.061  -9.952  -0.000  -0.000   0.000   0.026   1.137   0.000
 -0.000  -0.000  -9.846   0.000  -0.000   0.000   0.000   1.092
  0.000  -0.000   0.000  -9.952   0.061  -0.000   0.000  -0.000
 -0.000   0.000  -0.000   0.061  -9.893   0.000  -0.000   0.000
  1.112   0.026   0.000  -0.000   0.000   0.852  -0.011  -0.000
  0.026   1.137   0.000   0.000  -0.000  -0.011   0.841  -0.000
  0.000   0.000   1.092  -0.000   0.000  -0.000  -0.000   0.861
 -0.000   0.000  -0.000   1.137  -0.026   0.000  -0.000   0.000
  0.000  -0.000   0.000  -0.026   1.112  -0.000   0.000   0.000
  0.000  -0.000   0.001  -0.000   0.000   0.000  -0.000   0.000
 -0.000   0.000  -0.000   0.000  -0.000   0.000  -0.000   0.000
 -0.000  -0.000   0.000  -0.000   0.000   0.000   0.000  -0.000
 -0.000  -0.000   0.000  -0.000  -0.000  -0.000   0.000  -0.000
  0.000  -0.000   0.000  -0.000   0.000   0.000  -0.000  -0.000
  0.000  -0.000  -0.000   0.000  -0.001  -0.000   0.000   0.000
  0.000   0.000  -0.000   0.000   0.000  -0.000  -0.000   0.000
 -0.001   0.000  -0.000  -0.000  -0.000   0.000  -0.000   0.000
 pseudopotential strength for first ion, spin component:           2
 -9.834  -0.039  -0.000   0.001  -0.000   1.087   0.017   0.000
 -0.039  -9.862  -0.000  -0.000   0.001   0.017   1.099   0.000
 -0.000  -0.000  -9.797   0.000  -0.000   0.000   0.000   1.070
  0.001  -0.000   0.000  -9.862   0.039  -0.000   0.000  -0.000
 -0.000   0.001  -0.000   0.039  -9.834   0.000  -0.000   0.000
  1.087   0.017   0.000  -0.000   0.000   0.862  -0.008  -0.000
  0.017   1.099   0.000   0.000  -0.000  -0.008   0.857   0.000
  0.000   0.000   1.070  -0.000   0.000  -0.000   0.000   0.870
 -0.000   0.000  -0.000   1.099  -0.017   0.000  -0.000   0.000
  0.000  -0.000   0.000  -0.017   1.087  -0.000   0.000   0.000
  0.000  -0.000  -0.001  -0.000   0.000   0.000  -0.000   0.001
 -0.000   0.000   0.000   0.000  -0.000   0.000  -0.000  -0.000
 -0.000   0.000   0.000  -0.000   0.000   0.000  -0.000  -0.000
 -0.000  -0.000   0.000  -0.000  -0.000  -0.000   0.000  -0.000
  0.000  -0.000   0.000   0.000   0.000   0.000  -0.000  -0.000
  0.000  -0.000  -0.000   0.000  -0.001  -0.000   0.000   0.000
  0.000   0.000  -0.000   0.000   0.000  -0.000  -0.000   0.000
 -0.001   0.000  -0.000  -0.000  -0.000   0.000  -0.000   0.000
 total augmentation occupancy for first ion, spin component:           1
  1.821  -0.144   0.000   0.002  -0.000   0.038   0.074   0.000  -0.000   0.000  -0.000  -0.000  -0.002   0.000   0.007   0.000
 -0.144   1.701  -0.000  -0.000   0.002   0.073   0.104   0.000   0.000  -0.000   0.000   0.000  -0.002   0.000   0.004   0.000
  0.000  -0.000   1.943  -0.000  -0.000   0.000   0.000  -0.025   0.000  -0.000  -0.004  -0.001  -0.000   0.001   0.000   0.000
  0.002  -0.000  -0.000   1.701   0.144  -0.000  -0.000   0.000   0.104  -0.073   0.000   0.000  -0.004   0.000  -0.002   0.000
 -0.000   0.002  -0.000   0.144   1.821  -0.000  -0.000  -0.000  -0.074   0.038   0.000   0.000   0.007  -0.000   0.002  -0.000
  0.038   0.073   0.000  -0.000  -0.000   0.053   0.036   0.000  -0.001  -0.000   0.000  -0.000  -0.001   0.000   0.011   0.000
  0.074   0.104   0.000  -0.000  -0.000   0.036   0.090   0.000  -0.000  -0.001   0.000   0.000  -0.001   0.000  -0.002   0.000
  0.000   0.000  -0.025   0.000  -0.000   0.000   0.000   0.042   0.000  -0.000   0.011  -0.008  -0.000   0.000   0.000   0.000
 -0.000   0.000   0.000   0.104  -0.074  -0.001  -0.000   0.000   0.090  -0.036   0.000  -0.000   0.002  -0.000  -0.001  -0.000
  0.000  -0.000  -0.000  -0.073   0.038  -0.000  -0.001  -0.000  -0.036   0.053  -0.000   0.000   0.011  -0.000   0.001  -0.002
 -0.000  -0.000  -0.004   0.000   0.000   0.000  -0.000   0.011   0.000  -0.000   1.011  -0.267  -0.000  -0.004   0.000   0.000
 -0.000  -0.000  -0.001   0.000   0.000  -0.000   0.000  -0.008  -0.000   0.000  -0.267   0.118   0.000   0.000   0.000   0.000
 -0.002  -0.002  -0.000  -0.004   0.007  -0.001  -0.001  -0.000   0.002   0.011   0.000  -0.000   0.177  -0.000  -0.000  -0.012
  0.000   0.000   0.001   0.000  -0.000   0.000   0.000   0.000  -0.000  -0.000  -0.004   0.000  -0.000   0.180  -0.000   0.000
  0.007   0.004   0.000  -0.002   0.002   0.011  -0.002   0.000  -0.001   0.001   0.000   0.000  -0.000  -0.000   0.177   0.000
  0.000   0.000   0.000   0.000  -0.000   0.000   0.000   0.000  -0.000  -0.002   0.000   0.000  -0.012   0.000   0.000   0.001
  0.000  -0.000   0.000  -0.000  -0.000  -0.000  -0.000  -0.000   0.000   0.000   0.000  -0.000   0.000  -0.013   0.000  -0.000
 -0.000  -0.000  -0.000   0.000  -0.000  -0.002   0.000  -0.000   0.000  -0.000   0.000  -0.000  -0.000   0.000  -0.012  -0.000
 total augmentation occupancy for first ion, spin component:           2
  0.006   0.013   0.000   0.000  -0.000  -0.006  -0.006  -0.000  -0.000   0.000   0.000   0.000   0.000  -0.000   0.000   0.000
  0.013   0.025   0.000  -0.000   0.000  -0.006  -0.015  -0.000   0.000  -0.000   0.000   0.000   0.001  -0.000   0.001   0.000
  0.000   0.000   0.001   0.000  -0.000  -0.000  -0.000  -0.004  -0.000   0.000   0.001   0.001  -0.000  -0.000   0.000  -0.000
  0.000  -0.000   0.000   0.025  -0.013  -0.000  -0.000  -0.000  -0.015   0.006  -0.000   0.000  -0.001   0.000   0.001  -0.000
 -0.000   0.000  -0.000  -0.013   0.006  -0.000  -0.000   0.000   0.006  -0.006  -0.000  -0.000   0.000   0.000  -0.000   0.000
 -0.006  -0.006  -0.000  -0.000  -0.000   0.001   0.002   0.000   0.000  -0.000  -0.000  -0.000  -0.000   0.000  -0.000   0.000
 -0.006  -0.015  -0.000  -0.000  -0.000   0.002   0.004   0.000  -0.000   0.000   0.000  -0.000  -0.000   0.000  -0.000   0.000
 -0.000  -0.000  -0.004  -0.000   0.000   0.000   0.000   0.001   0.000  -0.000  -0.001  -0.000   0.000   0.000  -0.000  -0.000
 -0.000   0.000  -0.000  -0.015   0.006   0.000  -0.000   0.000   0.004  -0.002   0.000   0.000   0.000  -0.000  -0.000   0.000
  0.000  -0.000   0.000   0.006  -0.006  -0.000   0.000  -0.000  -0.002   0.001   0.000   0.000  -0.000  -0.000   0.000   0.000
  0.000   0.000   0.001   0.000  -0.000  -0.000  -0.000  -0.001   0.000   0.000   0.001   0.003   0.000   0.000   0.000   0.000
  0.000   0.000   0.001   0.000  -0.000  -0.000  -0.000  -0.000   0.000   0.000   0.003  -0.001   0.000  -0.000   0.000   0.000
  0.000   0.001  -0.000  -0.001   0.000  -0.000  -0.000   0.000   0.000  -0.000   0.000   0.000   0.000  -0.000  -0.000   0.000
 -0.000  -0.000  -0.000   0.000   0.000   0.000   0.000   0.000  -0.000  -0.000   0.000  -0.000  -0.000   0.000   0.000  -0.000
  0.000   0.001   0.000   0.001  -0.000  -0.000  -0.000  -0.000  -0.000   0.000   0.000   0.000  -0.000   0.000   0.000  -0.000
  0.000   0.000  -0.000  -0.000   0.000   0.000   0.000  -0.000   0.000   0.000  -0.000   0.000   0.000  -0.000  -0.000  -0.000
  0.000   0.000   0.000  -0.000  -0.000  -0.000  -0.000  -0.000   0.000   0.000   0.000  -0.000  -0.000   0.000  -0.000   0.000
  0.000   0.000   0.000   0.000  -0.000   0.000  -0.000   0.000   0.000  -0.000   0.000   0.000   0.000  -0.000   0.000   0.000


------------------------ aborting loop because EDIFF is reached ----------------------------------------





 total charge     

# of ion       s       p       d       tot
------------------------------------------
    1        0.389   0.404   8.380   9.173
    2        0.389   0.404   8.382   9.175
    3        1.169   1.197   0.082   2.448
    4        0.786   0.830   0.000   1.617
    5        1.406   1.897   0.043   3.345
    6        1.400   1.945   0.043   3.388
    7        1.402   1.903   0.043   3.347
    8        1.408   1.898   0.042   3.347
    9        1.402   1.945   0.042   3.389
   10        1.403   1.901   0.042   3.346
--------------------------------------------------
tot         11.154  14.323  17.098  42.574



 magnetization (x)

# of ion       s       p       d       tot
------------------------------------------
    1        0.000   0.000   0.082   0.082
    2        0.000   0.000   0.087   0.087
    3        0.000   0.003   0.001   0.004
    4        0.000   0.002   0.000   0.002
    5        0.002   0.013   0.000   0.015
    6        0.000   0.001   0.001   0.002
    7        0.002   0.012   0.000   0.014
    8        0.002   0.017   0.000   0.019
    9        0.000   0.002   0.001   0.003
   10        0.002   0.015   0.000   0.018
--------------------------------------------------
tot          0.009   0.065   0.173   0.247

    CHARGE:  cpu time    2.1280: real time    2.1346
    FORLOC:  cpu time    0.0640: real time    0.0634
    FORNL :  cpu time    6.5840: real time    6.5984
    STRESS:  cpu time   19.6000: real time   19.7081
    FORCOR:  cpu time   51.0240: real time   51.2416
    FORHAR:  cpu time    0.3320: real time    0.3308
    MIXING:  cpu time    0.0440: real time    0.0428
    OFIELD:  cpu time    0.0000: real time    0.0000

  FORCE on cell =-STRESS in cart. coord.  units (eV):
  Direction    XX          YY          ZZ          XY          YZ          ZX
  --------------------------------------------------------------------------------------
  Alpha Z    20.83122    20.83122    20.83122
  Ewald    9570.31496  9570.31266-11569.86766    -0.00227    -0.00057    -0.00104
  Hartree 10298.08392 10298.08509 -9643.50776    -0.00046     0.00009     0.00015
  E(xc)    -280.94916  -280.94942  -280.53366     0.00026     0.00002     0.00001
  Local  -20716.01637-20716.01616 20335.61681     0.00248     0.00037     0.00070
  n-local   652.86909   652.94677   659.18845     0.19012     0.62298     0.81843
  augment   -59.82530   -59.82458   -65.85238    -0.00044    -0.00028     0.00024
  Kinetic   519.70415   510.10691   544.11508    -5.29854    -1.18337    -1.30575
  Fock        0.00000     0.00000     0.00000     0.00000     0.00000     0.00000
  -------------------------------------------------------------------------------------
  Total       0.25251     0.25251    -0.00990    -0.00001    -0.00000     0.00000
  in kB       0.46398     0.46398    -0.01819    -0.00001    -0.00000     0.00000
  external pressure =        0.30 kB  Pullay stress =        0.00 kB


 VOLUME and BASIS-vectors are now :
 -----------------------------------------------------------------------------
  energy-cutoff  :      520.00
  volume of cell :      871.94
      direct lattice vectors                 reciprocal lattice vectors
     6.784642862  0.000000055 -0.000000000     0.147391694 -0.085096626  0.000000000
     3.392320912  5.875672757 -0.000000000    -0.000000001  0.170193278  0.000000000
    -0.000000000 -0.000000000 21.872616468     0.000000000  0.000000000  0.045719267

  length of vectors
     6.784642862  6.784642328 21.872616468     0.170193264  0.170193278  0.045719267


 FORCES acting on ions
    electron-ion (+dipol)            ewald-force                    non-local-force                 convergence-correction
 -----------------------------------------------------------------------------------------------
   0.299E-04 0.952E-05 0.552E+01   0.698E-03 0.422E-03 -.573E+01   -.141E-16 0.136E-16 0.216E+00   0.166E-06 0.141E-06 -.407E-03
   -.400E-04 0.641E-05 0.289E+01   -.705E-03 -.426E-03 -.305E+01   -.159E-18 0.137E-16 0.166E+00   -.883E-07 -.401E-07 -.407E-03
   -.280E-04 -.581E-05 0.191E+03   -.145E-03 -.804E-04 -.189E+03   -.878E-17 0.189E-17 -.170E+01   0.139E-07 0.697E-08 -.181E-01
   0.407E-04 0.187E-04 -.211E+03   0.157E-03 0.870E-04 0.209E+03   0.116E-16 -.267E-17 0.240E+01   0.956E-08 0.614E-08 0.203E-01
   -.295E+02 0.134E+00 -.427E+03   0.259E+02 -.146E+00 0.431E+03   0.339E+01 -.828E-02 -.401E+01   -.120E-03 0.130E-01 0.396E-01
   0.149E+02 0.255E+02 -.427E+03   -.131E+02 -.224E+02 0.431E+03   -.170E+01 -.293E+01 -.401E+01   0.113E-01 -.639E-02 0.396E-01
   0.146E+02 -.256E+02 -.427E+03   -.128E+02 0.225E+02 0.431E+03   -.169E+01 0.294E+01 -.401E+01   -.112E-01 -.660E-02 0.396E-01
   0.322E+02 -.169E+00 0.431E+03   -.287E+02 0.151E+00 -.435E+03   -.276E+01 0.136E-01 0.413E+01   0.208E-04 0.131E-01 -.400E-01
   -.162E+02 -.278E+02 0.431E+03   0.145E+02 0.248E+02 -.435E+03   0.139E+01 0.239E+01 0.413E+01   0.114E-01 -.659E-02 -.400E-01
   -.159E+02 0.280E+02 0.431E+03   0.142E+02 -.249E+02 -.435E+03   0.137E+01 -.240E+01 0.413E+01   -.114E-01 -.655E-02 -.400E-01
 -----------------------------------------------------------------------------------------------
   -.528E-04 0.145E-03 -.140E+01   0.142E-13 0.711E-14 0.227E-12   0.222E-15 0.000E+00 0.142E+01   0.147E-06 0.144E-06 0.158E-03


 POSITION                                       TOTAL-FORCE (eV/Angst)
 -----------------------------------------------------------------------------------
      3.39232      1.95856     10.92695         0.000000     -0.000000      0.004322
      6.78465      3.91712     10.93074         0.000000     -0.000000      0.001897
     -0.00000     -0.00000      9.80366        -0.000000     -0.000000      0.157422
     -0.00000     -0.00000     12.21790         0.000000      0.000000     -0.075624
      4.25103      0.00247     12.54946        -0.215769     -0.006690      0.002237
      1.26895      2.19294     12.54946         0.102091      0.190206      0.002237
      4.65700      3.68027     12.54946         0.113678     -0.183517      0.002237
      5.92593      5.87320      9.32316         0.700736      0.007885     -0.031576
      8.90802      3.68273      9.32316        -0.343540     -0.610798     -0.031576
      5.51997      2.19540      9.32316        -0.357197      0.602913     -0.031576
 -----------------------------------------------------------------------------------
    total drift:                               -0.000053      0.000145      0.022328


--------------------------------------------------------------------------------------------------------



  FREE ENERGIE OF THE ION-ELECTRON SYSTEM (eV)
  ---------------------------------------------------
  free  energy   TOTEN  =       -32.85946197 eV

  energy  without entropy=      -32.85946197  energy(sigma->0) =      -32.85946197

 d Force =-0.4022993E-04[-0.364E-04,-0.441E-04]  d Energy =-0.4920147E-03 0.452E-03
 d Force = 0.1007060E+00[ 0.101E+00, 0.101E+00]  d Ewald  = 0.9703759E+01-0.960E+01


--------------------------------------------------------------------------------------------------------


    POTLOK:  cpu time   51.4600: real time   51.5359


--------------------------------------------------------------------------------------------------------




--------------------------------------------------------------------------------------------------------


  
 reached required accuracy - stopping structural energy minimisation
     LOOP+:  cpu time  671.4680: real time  675.0836
    4ORBIT:  cpu time    0.0000: real time    0.0000



 total charge     

# of ion       s       p       d       tot
------------------------------------------
    1        0.389   0.404   8.380   9.173
    2        0.389   0.404   8.382   9.175
    3        1.169   1.197   0.082   2.448
    4        0.786   0.830   0.000   1.617
    5        1.406   1.897   0.043   3.345
    6        1.400   1.945   0.043   3.388
    7        1.402   1.903   0.043   3.347
    8        1.408   1.898   0.042   3.347
    9        1.402   1.945   0.042   3.389
   10        1.403   1.901   0.042   3.346
--------------------------------------------------
tot         11.154  14.323  17.098  42.574



 magnetization (x)

# of ion       s       p       d       tot
------------------------------------------
    1        0.000   0.000   0.082   0.082
    2        0.000   0.000   0.087   0.087
    3        0.000   0.003   0.001   0.004
    4        0.000   0.002   0.000   0.002
    5        0.002   0.013   0.000   0.015
    6        0.000   0.001   0.001   0.002
    7        0.002   0.012   0.000   0.014
    8        0.002   0.017   0.000   0.019
    9        0.000   0.002   0.001   0.003
   10        0.002   0.015   0.000   0.018
--------------------------------------------------
tot          0.009   0.065   0.173   0.247

 BZINTS: Fermi energy: -1.669217; 64.000000 electrons
         Band energy:-402.730472;  BLOECHL correction: -0.034170

 total amount of memory used by VASP MPI-rank0   131602. kBytes
=======================================================================

   base      :      30000. kBytes
   nonlr-proj:       9102. kBytes
   fftplans  :      11247. kBytes
   grid      :      68332. kBytes
   one-center:        311. kBytes
   wavefun   :      12610. kBytes

  
  
 General timing and accounting informations for this job:
 ========================================================
  
                  Total CPU time used (sec):    12822.452
                            User time (sec):    12557.100
                          System time (sec):      265.352
                         Elapsed time (sec):    12891.410
  
                   Maximum memory used (kb):      384580.
                   Average memory used (kb):           0.
  
                          Minor page faults:     11826258
                          Major page faults:            6
                 Voluntary context switches:         1083
