 vasp.5.4.4.18Apr17-6-g9f103f2a35 (build May  1 2020 15:48:39) complex           
 executed on             LinuxGNU date 2020.06.25  21:48:57
 running on   16 total cores
 distrk:  each k-point on   16 cores,    1 groups
 distr:  one band on NCORES_PER_BAND=   1 cores,   16 groups


--------------------------------------------------------------------------------------------------------


 INCAR:
 POTCAR:   PAW_PBE Co 06Sep2000                   
 POTCAR:   PAW_PBE Si 05Jan2001                   
 POTCAR:   PAW_PBE Te 08Apr2002                   

 ----------------------------------------------------------------------------- 
|                                                                             |
|           W    W    AA    RRRRR   N    N  II  N    N   GGGG   !!!           |
|           W    W   A  A   R    R  NN   N  II  NN   N  G    G  !!!           |
|           W    W  A    A  R    R  N N  N  II  N N  N  G       !!!           |
|           W WW W  AAAAAA  RRRRR   N  N N  II  N  N N  G  GGG   !            |
|           WW  WW  A    A  R   R   N   NN  II  N   NN  G    G                |
|           W    W  A    A  R    R  N    N  II  N    N   GGGG   !!!           |
|                                                                             |
|      For optimal performance we recommend to set                            |
|        NCORE= 4 - approx SQRT( number of cores)                             |
|      NCORE specifies how many cores store one orbital (NPAR=cpu/NCORE).     |
|      This setting can  greatly improve the performance of VASP for DFT.     |
|      The default,   NCORE=1            might be grossly inefficient         |
|      on modern multi-core architectures or massively parallel machines.     |
|      Do your own testing !!!!                                               |
|      Unfortunately you need to use the default for GW and RPA calculations. |
|      (for HF NCORE is supported but not extensively tested yet)             |
|                                                                             |
 ----------------------------------------------------------------------------- 


 ----------------------------------------------------------------------------- 
|                                                                             |
|  ADVICE TO THIS USER RUNNING 'VASP/VAMP'   (HEAR YOUR MASTER'S VOICE ...):  |
|                                                                             |
|      You have switched on vdW-DFT.                                          |
|      This routine was written and supplied by Jiri Klimes.                  |
|      We recommed that you carefully read and cite the following             |
|      publication                                                            |
|      J. Klimes, D.R. Bowler, A. Michelides                                  |
|        J. Phys.: Cond Matt. 22 022201 (2010)                                |
|      J. Klimes, D.R. Bowler, A. Michelides                                  |
|        Phys. Rev. B. 83, 195131 (2011)                                      |
|      and references therein.                                                |
|                                                                             |
 ----------------------------------------------------------------------------- 

 POTCAR:   PAW_PBE Co 06Sep2000                   
   VRHFIN =Co: d8 s1                                                            
   LEXCH  = PE                                                                  
   EATOM  =   813.5563 eV,   59.7947 Ry                                         
                                                                                
   TITEL  = PAW_PBE Co 06Sep2000                                                
   LULTRA =        F    use ultrasoft PP ?                                      
   IUNSCR =        1    unscreen: 0-lin 1-nonlin 2-no                           
   RPACOR =    2.000    partial core radius                                     
   POMASS =   58.933; ZVAL   =    9.000    mass and valenz                      
   RCORE  =    2.300    outmost cutoff radius                                   
   RWIGS  =    2.460; RWIGS  =    1.302    wigner-seitz radius (au A)           
   ENMAX  =  267.969; ENMIN  =  200.977 eV                                      
   RCLOC  =    1.697    cutoff for local pot                                    
   LCOR   =        T    correct aug charges                                     
   LPAW   =        T    paw PP                                                  
   EAUG   =  477.818                                                            
   DEXC   =    -.016                                                            
   RMAX   =    2.817    core radius for proj-oper                               
   RAUG   =    1.300    factor for augmentation sphere                          
   RDEP   =    2.393    radius for radial grids                                 
   QCUT   =   -4.438; QGAM   =    8.876    optimization parameters              
                                                                                
   Description                                                                  
     l     E      TYP  RCUT    TYP  RCUT                                        
     2   .000     23  2.300                                                     
     2   .000     23  2.300                                                     
     0   .000     23  2.300                                                     
     0   .000     23  2.300                                                     
     1  -.200     23  2.300                                                     
     1   .000     23  2.300                                                     
     3   .000      7   .000                                                     
  local pseudopotential read in
  partial core-charges read in
  atomic valenz-charges read in
  non local Contribution for L=           2  read in
    real space projection operators read in
  non local Contribution for L=           2  read in
    real space projection operators read in
  non local Contribution for L=           0  read in
    real space projection operators read in
  non local Contribution for L=           0  read in
    real space projection operators read in
  non local Contribution for L=           1  read in
    real space projection operators read in
  non local Contribution for L=           1  read in
    real space projection operators read in
    PAW grid and wavefunctions read in

   number of l-projection  operators is LMAX  =           6
   number of lm-projection operators is LMMAX =          18

 POTCAR:   PAW_PBE Si 05Jan2001                   
   VRHFIN =Si: s2p2                                                             
   LEXCH  = PE                                                                  
   EATOM  =   103.0669 eV,    7.5752 Ry                                         
                                                                                
   TITEL  = PAW_PBE Si 05Jan2001                                                
   LULTRA =        F    use ultrasoft PP ?                                      
   IUNSCR =        1    unscreen: 0-lin 1-nonlin 2-no                           
   RPACOR =    1.500    partial core radius                                     
   POMASS =   28.085; ZVAL   =    4.000    mass and valenz                      
   RCORE  =    1.900    outmost cutoff radius                                   
   RWIGS  =    2.480; RWIGS  =    1.312    wigner-seitz radius (au A)           
   ENMAX  =  245.345; ENMIN  =  184.009 eV                                      
   ICORE  =        2    local potential                                         
   LCOR   =        T    correct aug charges                                     
   LPAW   =        T    paw PP                                                  
   EAUG   =  322.069                                                            
   DEXC   =    -.007                                                            
   RMAX   =    2.944    core radius for proj-oper                               
   RAUG   =    1.300    factor for augmentation sphere                          
   RDEP   =    1.993    radius for radial grids                                 
   QCUT   =   -4.246; QGAM   =    8.493    optimization parameters              
                                                                                
   Description                                                                  
     l     E      TYP  RCUT    TYP  RCUT                                        
     0   .000     23  1.900                                                     
     0   .000     23  1.900                                                     
     1   .000     23  1.900                                                     
     1   .000     23  1.900                                                     
     2   .000      7  1.900                                                     
  local pseudopotential read in
  partial core-charges read in
  atomic valenz-charges read in
  non local Contribution for L=           0  read in
    real space projection operators read in
  non local Contribution for L=           0  read in
    real space projection operators read in
  non local Contribution for L=           1  read in
    real space projection operators read in
  non local Contribution for L=           1  read in
    real space projection operators read in
    PAW grid and wavefunctions read in

   number of l-projection  operators is LMAX  =           4
   number of lm-projection operators is LMMAX =           8

 POTCAR:   PAW_PBE Te 08Apr2002                   
   VRHFIN =Te: s2p4                                                             
   LEXCH  = PE                                                                  
   EATOM  =   223.2721 eV,   16.4100 Ry                                         
                                                                                
   TITEL  = PAW_PBE Te 08Apr2002                                                
   LULTRA =        F    use ultrasoft PP ?                                      
   IUNSCR =        1    unscreen: 0-lin 1-nonlin 2-no                           
   RPACOR =    2.200    partial core radius                                     
   POMASS =  127.600; ZVAL   =    6.000    mass and valenz                      
   RCORE  =    2.300    outmost cutoff radius                                   
   RWIGS  =    2.900; RWIGS  =    1.535    wigner-seitz radius (au A)           
   ENMAX  =  174.982; ENMIN  =  131.236 eV                                      
   ICORE  =        3    local potential                                         
   LCOR   =        T    correct aug charges                                     
   LPAW   =        T    paw PP                                                  
   EAUG   =  368.792                                                            
   DEXC   =    -.169                                                            
   RMAX   =    3.486    core radius for proj-oper                               
   RAUG   =    1.300    factor for augmentation sphere                          
   RDEP   =    2.397    radius for radial grids                                 
   QCUT   =   -3.586; QGAM   =    7.172    optimization parameters              
                                                                                
   Description                                                                  
     l     E      TYP  RCUT    TYP  RCUT                                        
     0   .000     23  2.300                                                     
     0   .000     23  2.300                                                     
     1   .000     23  2.300                                                     
     1   .000     23  2.300                                                     
     2   .000     23  2.300                                                     
     3  -.100     23  2.300                                                     
  local pseudopotential read in
  partial core-charges read in
  atomic valenz-charges read in
  non local Contribution for L=           0  read in
    real space projection operators read in
  non local Contribution for L=           0  read in
    real space projection operators read in
  non local Contribution for L=           1  read in
    real space projection operators read in
  non local Contribution for L=           1  read in
    real space projection operators read in
  non local Contribution for L=           2  read in
    real space projection operators read in
    PAW grid and wavefunctions read in

   number of l-projection  operators is LMAX  =           5
   number of lm-projection operators is LMMAX =          13

 Optimization of the real space projectors (new method)

 maximal supplied QI-value         = 16.25
 optimisation between [QCUT,QGAM] = [ 11.54, 23.24] = [ 37.28,151.24] Ry 
 Optimized for a Real-space Cutoff    1.53 Angstroem

   l    n(q)    QCUT    max X(q) W(low)/X(q) W(high)/X(q)  e(spline) 
   2     10    11.539     4.599    0.83E-05    0.15E-04    0.45E-07
   2     10    11.539    18.158    0.10E-03    0.14E-03    0.24E-06
   0     11    11.539    15.740    0.19E-04    0.12E-05    0.17E-07
   0     11    11.539    47.662    0.48E-04    0.15E-04    0.31E-06
   1     10    11.539     5.777    0.11E-04    0.46E-05    0.25E-07
   1     10    11.539     8.007    0.46E-04    0.29E-04    0.11E-06
 Optimization of the real space projectors (new method)

 maximal supplied QI-value         = 19.84
 optimisation between [QCUT,QGAM] = [ 11.51, 23.22] = [ 37.09,150.92] Ry 
 Optimized for a Real-space Cutoff    1.21 Angstroem

   l    n(q)    QCUT    max X(q) W(low)/X(q) W(high)/X(q)  e(spline) 
   0      8    11.508     8.708    0.18E-04    0.44E-05    0.47E-08
   0      8    11.508   106.241    0.70E-04    0.15E-03    0.51E-07
   1      8    11.508     5.901    0.63E-05    0.23E-04    0.21E-07
   1      8    11.508    73.241    0.15E-03    0.36E-04    0.79E-07
 Optimization of the real space projectors (new method)

 maximal supplied QI-value         = 16.25
 optimisation between [QCUT,QGAM] = [ 11.54, 23.24] = [ 37.28,151.24] Ry 
 Optimized for a Real-space Cutoff    1.36 Angstroem

   l    n(q)    QCUT    max X(q) W(low)/X(q) W(high)/X(q)  e(spline) 
   0      9    11.539     7.090    0.13E-04    0.25E-05    0.51E-08
   0      9    11.539   101.654    0.53E-04    0.69E-04    0.12E-06
   1      9    11.539     5.276    0.20E-04    0.98E-05    0.24E-07
   1      9    11.539    81.891    0.24E-03    0.13E-04    0.15E-06
   2      9    11.539     5.599    0.30E-04    0.97E-04    0.54E-07

 ----------------------------------------------------------------------------- 
|                                                                             |
|  ADVICE TO THIS USER RUNNING 'VASP/VAMP'   (HEAR YOUR MASTER'S VOICE ...):  |
|                                                                             |
|      You enforced a specific xc-type in the INCAR file,                     |
|      a different type was found on the POTCAR file                          |
|          I HOPE YOU KNOW, WHAT YOU ARE  DOING                               |
|                                                                             |
 ----------------------------------------------------------------------------- 

 PAW_PBE Co 06Sep2000                   :
 energy of atom  1       EATOM= -813.5563
 kinetic energy error for atom=    0.0028 (will be added to EATOM!!)
 PAW_PBE Si 05Jan2001                   :
 energy of atom  2       EATOM= -103.0669
 kinetic energy error for atom=    0.0005 (will be added to EATOM!!)
 PAW_PBE Te 08Apr2002                   :
 energy of atom  3       EATOM= -223.2721
 kinetic energy error for atom=    0.0007 (will be added to EATOM!!)


 POSCAR: Co2 Si2 Te6                             
  positions in direct lattice
  velocities in cartesian coordinates
  No initial velocities read in
 exchange correlation table for  LEXCH =       42
   RHO(1)=    0.500       N(1)  =     2000
   RHO(2)=  100.500       N(2)  =     4000



--------------------------------------------------------------------------------------------------------


 ion  position               nearest neighbor table
   1  0.333  0.333  0.500-   6 2.78   5 2.78   7 2.78   8 2.78  10 2.78   9 2.78
   2  0.667  0.667  0.500-   9 2.78   8 2.78  10 2.78   5 2.78   7 2.78   6 2.78
   3  0.000  0.000  0.448-   4 2.43   8 2.63  10 2.63   9 2.63
   4  0.000  0.000  0.552-   3 2.43   5 2.63   7 2.63   6 2.63
   5  0.626  0.000  0.574-   4 2.63   1 2.78   2 2.78
   6  0.000  0.373  0.574-   4 2.63   1 2.78   2 2.78
   7  0.373  0.626  0.574-   4 2.63   1 2.78   2 2.78
   8  0.374  1.000  0.426-   3 2.63   2 2.78   1 2.78
   9  1.000  0.627  0.426-   3 2.63   2 2.78   1 2.78
  10  0.627  0.374  0.426-   3 2.63   2 2.78   1 2.78

  LATTYP: Found a hexagonal cell.
 ALAT       =     6.9077769333
 C/A-ratio  =     3.3939410937
  
  Lattice vectors:
  
 A1 = (   3.4538890000,  -5.9823100000,   0.0000000000)
 A2 = (  -6.9077770000,   0.0000000000,   0.0000000000)
 A3 = (   0.0000000000,   0.0000000000, -23.4445880000)


Analysis of symmetry for initial positions (statically):
=====================================================================
 Subroutine PRICEL returns:
 Original cell was already a primitive cell.
 

 Routine SETGRP: Setting up the symmetry group for a 
 hexagonal supercell.


 Subroutine GETGRP returns: Found  6 space group operations
 (whereof  6 operations were pure point group operations)
 out of a pool of 24 trial point group operations.


The static configuration has the point symmetry S_6 .


Analysis of symmetry for dynamics (positions and initial velocities):
=====================================================================
 Subroutine PRICEL returns:
 Original cell was already a primitive cell.
 

 Routine SETGRP: Setting up the symmetry group for a 
 hexagonal supercell.


 Subroutine GETGRP returns: Found  6 space group operations
 (whereof  6 operations were pure point group operations)
 out of a pool of 24 trial point group operations.


The dynamic configuration has the point symmetry S_6 .


Analysis of constrained symmetry for selective dynamics:
=====================================================================
 Subroutine PRICEL returns:
 Original cell was already a primitive cell.
 

 Routine SETGRP: Setting up the symmetry group for a 
 hexagonal supercell.


 Subroutine GETGRP returns: Found  6 space group operations
 (whereof  6 operations were pure point group operations)
 out of a pool of 24 trial point group operations.


The constrained configuration has the point symmetry S_6 .


Analysis of structural, dynamic, and magnetic symmetry:
=====================================================================
 Subroutine PRICEL returns:
 Original cell was already a primitive cell.
 

 Routine SETGRP: Setting up the symmetry group for a 
 hexagonal supercell.


 Subroutine GETGRP returns: Found  6 space group operations
 (whereof  6 operations were pure point group operations)
 out of a pool of 24 trial point group operations.


The magnetic configuration has the point symmetry S_6 .


 Subroutine INISYM returns: Found  6 space group operations
 (whereof  6 operations are pure point group operations),
 and found     1 'primitive' translations



 KPOINTS: Kpoints from vasprun.xml                

Automatic generation of k-mesh.
Space group operators:
 irot       det(A)        alpha          n_x          n_y          n_z        tau_x        tau_y        tau_z
    1     1.000000     0.000000     1.000000     0.000000     0.000000     0.000000     0.000000     0.000000
    2    -1.000000     0.000000     1.000000     0.000000     0.000000     0.000000     0.000000     0.000000
    3     1.000000   120.000000     0.000000     0.000000     1.000000     0.000000     0.000000     0.000000
    4    -1.000000   120.000000     0.000000     0.000000     1.000000     0.000000     0.000000     0.000000
    5     1.000000   120.000000     0.000000     0.000000    -1.000000     0.000000     0.000000     0.000000
    6    -1.000000   120.000000     0.000000     0.000000    -1.000000     0.000000     0.000000     0.000000
 
 Subroutine IBZKPT returns following result:
 ===========================================
 
 Found      5 irreducible k-points:
 
 Following reciprocal coordinates:
            Coordinates               Weight
  0.000000  0.000000  0.000000      1.000000
  0.200000  0.000000  0.000000      6.000000
  0.400000  0.000000  0.000000      6.000000
  0.400000  0.200000  0.000000      6.000000
 -0.400000  0.200000  0.000000      6.000000
 
 Following cartesian coordinates:
            Coordinates               Weight
  0.000000  0.000000  0.000000      1.000000
  0.028953 -0.016716  0.000000      6.000000
  0.057906 -0.033432  0.000000      6.000000
  0.057906  0.000000  0.000000      6.000000
 -0.057906  0.066864  0.000000      6.000000
 
 TETIRR: Found     15 inequivalent tetrahedra from      150


--------------------------------------------------------------------------------------------------------




 Dimension of arrays:
   k-points           NKPTS =      5   k-points in BZ     NKDIM =      5   number of bands    NBANDS=     48
   number of dos      NEDOS =    301   number of ions     NIONS =     10
   non local maximal  LDIM  =      6   non local SUM 2l+1 LMDIM =     18
   total plane-waves  NPLWV = 524880
   max r-space proj   IRMAX =   8238   max aug-charges    IRDMAX=  31706
   dimension x,y,z NGX =    54 NGY =   54 NGZ =  180
   dimension x,y,z NGXF=   108 NGYF=  108 NGZF=  360
   support grid    NGXF=   108 NGYF=  108 NGZF=  360
   ions per type =               2   2   6
   NGX,Y,Z   is equivalent  to a cutoff of  13.00, 13.00, 12.76 a.u.
   NGXF,Y,Z  is equivalent  to a cutoff of  25.99, 25.99, 25.53 a.u.

 SYSTEM =  unknown system                          
 POSCAR =  Co2 Si2 Te6                             

 Startparameter for this run:
   NWRITE =      2    write-flag & timer
   PREC   = accura    normal or accurate (medium, high low for compatibility)
   ISTART =      0    job   : 0-new  1-cont  2-samecut
   ICHARG =      2    charge: 1-file 2-atom 10-const
   ISPIN  =      2    spin polarized calculation?
   LNONCOLLINEAR =      F non collinear calculations
   LSORBIT =      F    spin-orbit coupling
   INIWAV =      1    electr: 0-lowe 1-rand  2-diag
   LASPH  =      F    aspherical Exc in radial PAW
   METAGGA=      F    non-selfconsistent MetaGGA calc.

 Electronic Relaxation 1
   ENCUT  =  520.0 eV  38.22 Ry    6.18 a.u.  12.84 12.84 43.59*2*pi/ulx,y,z
   ENINI  =  520.0     initial cutoff
   ENAUG  =  477.8 eV  augmentation charge cutoff
   NELM   =    400;   NELMIN=  2; NELMDL=  0     # of ELM steps 
   EDIFF  = 0.1E-03   stopping-criterion for ELM
   LREAL  =      T    real-space projection
   NLSPLINE    = F    spline interpolate recip. space projectors
   LCOMPAT=      F    compatible to vasp.4.4
   GGA_COMPAT  = T    GGA compatible to vasp.4.4-vasp.4.6
   LMAXPAW     = -100 max onsite density
   LMAXMIX     =    2 max onsite mixed and CHGCAR
   VOSKOWN=      0    Vosko Wilk Nusair interpolation
   ROPT   =   -0.00025  -0.00025  -0.00025
 Ionic relaxation
   EDIFFG = 0.1E-02   stopping-criterion for IOM
   NSW    =     99    number of steps for IOM
   NBLOCK =      1;   KBLOCK =     99    inner block; outer block 
   IBRION =      2    ionic relax: 0-MD 1-quasi-New 2-CG
   NFREE  =      1    steps in history (QN), initial steepest desc. (CG)
   ISIF   =      3    stress and relaxation
   IWAVPR =     11    prediction:  0-non 1-charg 2-wave 3-comb
   ISYM   =      2    0-nonsym 1-usesym 2-fastsym
   LCORR  =      T    Harris-Foulkes like correction to forces

   POTIM  = 0.5000    time-step for ionic-motion
   TEIN   =    0.0    initial temperature
   TEBEG  =    0.0;   TEEND  =   0.0 temperature during run
   SMASS  =  -3.00    Nose mass-parameter (am)
   estimated Nose-frequenzy (Omega)   =  0.10E-29 period in steps =****** mass=  -0.109E-26a.u.
   SCALEE = 1.0000    scale energy and forces
   NPACO  =    256;   APACO  = 16.0  distance and # of slots for P.C.
   PSTRESS=    0.0 pullay stress

  Mass of Ions in am
   POMASS =  58.93 28.09127.60
  Ionic Valenz
   ZVAL   =   9.00  4.00  6.00
  Atomic Wigner-Seitz radii
   RWIGS  =  -1.00 -1.00 -1.00
  virtual crystal weights 
   VCA    =   1.00  1.00  1.00
   NELECT =      62.0000    total number of electrons
   NUPDOWN=      -1.0000    fix difference up-down

 DOS related values:
   EMIN   =  10.00;   EMAX   =-10.00  energy-range for DOS
   EFERMI =   0.00
   ISMEAR =    -5;   SIGMA  =   0.05  broadening in eV -4-tet -1-fermi 0-gaus

 Electronic relaxation 2 (details)
   IALGO  =     38    algorithm
   LDIAG  =      T    sub-space diagonalisation (order eigenvalues)
   LSUBROT=      F    optimize rotation matrix (better conditioning)
   TURBO    =      0    0=normal 1=particle mesh
   IRESTART =      0    0=no restart 2=restart with 2 vectors
   NREBOOT  =      0    no. of reboots
   NMIN     =      0    reboot dimension
   EREF     =   0.00    reference energy to select bands
   IMIX   =      4    mixing-type and parameters
     AMIX     =   0.40;   BMIX     =  1.00
     AMIX_MAG =   1.60;   BMIX_MAG =  1.00
     AMIN     =   0.01
     WC   =   100.;   INIMIX=   1;  MIXPRE=   1;  MAXMIX= -45

 Intra band minimization:
   WEIMIN = 0.0010     energy-eigenvalue tresh-hold
   EBREAK =  0.52E-06  absolut break condition
   DEPER  =   0.30     relativ break condition  

   TIME   =   0.40     timestep for ELM

  volume/ion in A,a.u.               =      96.88       653.80
  Fermi-wavevector in a.u.,A,eV,Ry     =   0.654820  1.237431  5.834037  0.428790
  Thomas-Fermi vector in A             =   1.725500

 Write flags
   LWAVE        =      F    write WAVECAR
   LDOWNSAMPLE  =      F    k-point downsampling of WAVECAR
   LCHARG       =      T    write CHGCAR
   LVTOT        =      F    write LOCPOT, total local potential
   LVHAR        =      F    write LOCPOT, Hartree potential only
   LELF         =      F    write electronic localiz. function (ELF)
   LORBIT       =     11    0 simple, 1 ext, 2 COOP (PROOUT), +10 PAW based schemes


 Dipole corrections
   LMONO  =      F    monopole corrections only (constant potential shift)
   LDIPOL =      F    correct potential (dipole corrections)
   IDIPOL =      0    1-x, 2-y, 3-z, 4-all directions 
   EPSILON=  1.0000000 bulk dielectric constant

 Exchange correlation treatment:
   GGA     =    BO    GGA type
   LEXCH   =    42    internal setting for exchange type
   VOSKOWN=      0    Vosko Wilk Nusair interpolation
   LHFCALC =     F    Hartree Fock is set to
   LHFONE  =     F    Hartree Fock one center treatment
   AEXX    =    0.0000 exact exchange contribution

 vdW DFT:
   LUSE_VDW   =     T    switch on vdW DFT
   Zab_VDW    =-.8491    correlation parameter
   PARAM1     =0.1833
   PARAM2     =0.2200
   PARAM3     =0.0000
   -- rVV10 --
   BPARAM     = 6.3000
   CPARAM     = 0.0093

 Linear response parameters
   LEPSILON=     F    determine dielectric tensor
   LRPA    =     F    only Hartree local field effects (RPA)
   LNABLA  =     F    use nabla operator in PAW spheres
   LVEL    =     F    velocity operator in full k-point grid
   LINTERFAST=   F  fast interpolation
   KINTER  =     0    interpolate to denser k-point grid
   CSHIFT  =0.1000    complex shift for real part using Kramers Kronig
   OMEGAMAX=  -1.0    maximum frequency
   DEG_THRESHOLD= 0.2000000E-02 threshold for treating states as degnerate
   RTIME   =   -0.100 relaxation time in fs
  (WPLASMAI=    0.000 imaginary part of plasma frequency in eV, 0.658/RTIME)
   DFIELD  = 0.0000000 0.0000000 0.0000000 field for delta impulse in time

 Orbital magnetization related:
   ORBITALMAG=     F  switch on orbital magnetization
   LCHIMAG   =     F  perturbation theory with respect to B field
   DQ        =  0.001000  dq finite difference perturbation B field
   LLRAUG    =     F  two centre corrections for induced B field



--------------------------------------------------------------------------------------------------------


 conjugate gradient relaxation of ions
   using selective dynamics as specified on POSCAR
 charge density and potential will be updated during run
 spin polarized calculation
 Variant of blocked Davidson
 Davidson routine will perform the subspace rotation
 perform sub-space diagonalisation
    after iterative eigenvector-optimisation
 modified Broyden-mixing scheme, WC =      100.0
 initial mixing is a Kerker type mixing with AMIX =  0.4000 and BMIX =      1.0000
 Hartree-type preconditioning will be used
 using additional bands           17
 real space projection scheme for non local part
 use partial core corrections
 calculate Harris-corrections to forces   (improved forces if not selfconsistent)
 use gradient corrections 
 use of overlap-Matrix (Vanderbilt PP)
 Fermi weights with tetrahedron method with Bloechl corrections


--------------------------------------------------------------------------------------------------------


  energy-cutoff  :      520.00
  volume of cell :      968.84
      direct lattice vectors                 reciprocal lattice vectors
     6.907777000 -0.000000000  0.000000000     0.144764372 -0.083579742  0.000000000
     3.453888000  5.982310000  0.000000000     0.000000000  0.167159509 -0.000000000
     0.000000000  0.000000000 23.444588000    -0.000000000  0.000000000  0.042653767

  length of vectors
     6.907777000  6.907776433 23.444588000     0.167159495  0.167159509  0.042653767



 k-points in units of 2pi/SCALE and weight: Kpoints from vasprun.xml                
   0.00000000  0.00000000  0.00000000       0.040
   0.02895287 -0.01671595  0.00000000       0.240
   0.05790575 -0.03343190  0.00000000       0.240
   0.05790575  0.00000000  0.00000000       0.240
  -0.05790575  0.06686380  0.00000000       0.240

 k-points in reciprocal lattice and weights: Kpoints from vasprun.xml                
   0.00000000  0.00000000  0.00000000       0.040
   0.20000000  0.00000000  0.00000000       0.240
   0.40000000  0.00000000  0.00000000       0.240
   0.40000000  0.20000000  0.00000000       0.240
  -0.40000000  0.20000000  0.00000000       0.240

 position of ions in fractional coordinates (direct lattice) 
   0.33333300  0.33333300  0.49992500
   0.66666700  0.66666700  0.50007500
   0.00000000  0.00000000  0.44821600
   0.00000000  0.00000000  0.55178400
   0.62635700  0.00042000  0.57375200
   0.00042000  0.37322400  0.57375200
   0.37322400  0.62635700  0.57375200
   0.37364300  0.99958000  0.42624800
   0.99958000  0.62677600  0.42624800
   0.62677600  0.37364300  0.42624800

 position of ions in cartesian coordinates  (Angst):
   3.45388488  1.99410134 11.72053566
   6.90778012  3.98820866 11.72405234
   0.00000000  0.00000000 10.50823946
   0.00000000  0.00000000 12.93634854
   4.32818511  0.00251257 13.45137925
   1.29197516  2.23274167 13.45137925
   4.74151509  3.74706174 13.45137925
   6.03347989  5.97979743  9.99320875
   9.06968984  3.74956833  9.99320875
   5.62014991  2.23524826  9.99320875



--------------------------------------------------------------------------------------------------------


 k-point  1 :   0.0000 0.0000 0.0000  plane waves:   26073
 k-point  2 :   0.2000 0.0000 0.0000  plane waves:   26070
 k-point  3 :   0.4000 0.0000 0.0000  plane waves:   26086
 k-point  4 :   0.4000 0.2000 0.0000  plane waves:   26085
 k-point  5 :  -0.4000 0.2000 0.0000  plane waves:   26115

 maximum and minimum number of plane-waves per node :     26115    26070

 maximum number of plane-waves:     26115
 maximum index in each direction: 
   IXMAX=   13   IYMAX=   12   IZMAX=   43
   IXMIN=  -13   IYMIN=  -13   IZMIN=  -43


 serial   3D FFT for wavefunctions
 parallel 3D FFT for charge:
    minimum data exchange during FFTs selected (reduces bandwidth)


 total amount of memory used by VASP MPI-rank0   128591. kBytes
=======================================================================

   base      :      30000. kBytes
   nonlr-proj:       8281. kBytes
   fftplans  :      11247. kBytes
   grid      :      66142. kBytes
   one-center:        311. kBytes
   wavefun   :      12610. kBytes

     INWAV:  cpu time    0.0000: real time    0.0004
 Broyden mixing: mesh for mixing (old mesh)
   NGX = 25   NGY = 25   NGZ = 87
  (NGX  =108   NGY  =108   NGZ  =360)
  gives a total of  54375 points

 initial charge density was supplied:
 charge density of overlapping atoms calculated
 number of electron      62.0000000 magnetization       9.7800000
 keeping initial charge density in first step


--------------------------------------------------------------------------------------------------------


 Maximum index for non-local projection operator         7925
 Maximum index for augmentation-charges         2278 (set IRDMAX)


--------------------------------------------------------------------------------------------------------


 First call to EWALD:  gamma=   0.179
 Maximum number of real-space cells 4x 4x 1
 Maximum number of reciprocal cells 2x 2x 6

    FEWALD:  cpu time    0.0040: real time    0.0014


--------------------------------------- Iteration      1(   1)  ---------------------------------------


vdW kernel read from vdw_kernel.bindat
  0.0000  0.2424  0.5071  0.7962  1.1119  1.4567  1.8333  2.2446  2.6937  3.1842
  3.7199  4.3049  4.9438  5.6415  6.4036  7.2358  8.1446  9.1372 10.2212 11.4050
 12.6979 14.1099 15.6519 17.3360 19.1751 21.1837 23.3773 25.7729 28.3892 31.2465
 34.3669 37.7748 41.4965 45.5611 50.0000

    POTLOK:  cpu time   52.9000: real time   53.0539
    SETDIJ:  cpu time    0.0480: real time    0.0486
     EDDAV:  cpu time   22.6000: real time   23.1563
 BZINTS: Fermi energy:  5.523387; 62.000000 electrons
         Band energy:  18.739452;  BLOECHL correction: -0.028963
       DOS:  cpu time    0.0080: real time    0.0059
    --------------------------------------------
      LOOP:  cpu time   75.5560: real time   76.2648

 eigenvalue-minimisations  :   960
 total energy-change (2. order) : 0.3828763E+03  (-0.1854133E+04)
 number of electron      62.0000000 magnetization       9.7800000
 augmentation part       62.0000000 magnetization       9.7800000

 Free energy of the ion-electron system (eV)
  ---------------------------------------------------
  alpha Z        PSCENC =        15.47635570
  Ewald energy   TEWEN  =      7529.91642125
  -Hartree energ DENC   =    -10377.98368054
  -exchange      EXHF   =         0.00000000
  -V(xc)+E(xc)   XCENC  =      -163.02602548
  PAW double counting   =      1962.09716123    -1789.38300269
  entropy T*S    EENTRO =         0.00000000
  eigenvalues    EBANDS =        18.73945211
  atomic energy  EATOM  =      3187.03958702
  Solvation  Ediel_sol  =         0.00000000
  ---------------------------------------------------
  free energy    TOTEN  =       382.87626861 eV

  energy without entropy =      382.87626861  energy(sigma->0) =      382.87626861


--------------------------------------------------------------------------------------------------------




--------------------------------------- Iteration      1(   2)  ---------------------------------------


     EDDAV:  cpu time   30.1080: real time   30.3489
 BZINTS: Fermi energy: -0.994193; 62.000000 electrons
         Band energy:-357.661024;  BLOECHL correction: -0.008455
       DOS:  cpu time    0.0040: real time    0.0049
    --------------------------------------------
      LOOP:  cpu time   30.1120: real time   30.3538

 eigenvalue-minimisations  :  1296
 total energy-change (2. order) :-0.3764005E+03  (-0.3551741E+03)
 number of electron      62.0000000 magnetization       9.7800000
 augmentation part       62.0000000 magnetization       9.7800000

 Free energy of the ion-electron system (eV)
  ---------------------------------------------------
  alpha Z        PSCENC =        15.47635570
  Ewald energy   TEWEN  =      7529.91642125
  -Hartree energ DENC   =    -10377.98368054
  -exchange      EXHF   =         0.00000000
  -V(xc)+E(xc)   XCENC  =      -163.02602548
  PAW double counting   =      1962.09716123    -1789.38300269
  entropy T*S    EENTRO =         0.00000000
  eigenvalues    EBANDS =      -357.66102448
  atomic energy  EATOM  =      3187.03958702
  Solvation  Ediel_sol  =         0.00000000
  ---------------------------------------------------
  free energy    TOTEN  =         6.47579202 eV

  energy without entropy =        6.47579202  energy(sigma->0) =        6.47579202


--------------------------------------------------------------------------------------------------------




--------------------------------------- Iteration      1(   3)  ---------------------------------------


     EDDAV:  cpu time   29.6920: real time   29.8593
 BZINTS: Fermi energy: -1.525537; 62.000000 electrons
         Band energy:-400.641166;  BLOECHL correction: -0.025735
       DOS:  cpu time    0.0040: real time    0.0050
    --------------------------------------------
      LOOP:  cpu time   29.6960: real time   29.8643

 eigenvalue-minimisations  :  1264
 total energy-change (2. order) :-0.4298014E+02  (-0.4193587E+02)
 number of electron      62.0000000 magnetization       9.7800000
 augmentation part       62.0000000 magnetization       9.7800000

 Free energy of the ion-electron system (eV)
  ---------------------------------------------------
  alpha Z        PSCENC =        15.47635570
  Ewald energy   TEWEN  =      7529.91642125
  -Hartree energ DENC   =    -10377.98368054
  -exchange      EXHF   =         0.00000000
  -V(xc)+E(xc)   XCENC  =      -163.02602548
  PAW double counting   =      1962.09716123    -1789.38300269
  entropy T*S    EENTRO =         0.00000000
  eigenvalues    EBANDS =      -400.64116629
  atomic energy  EATOM  =      3187.03958702
  Solvation  Ediel_sol  =         0.00000000
  ---------------------------------------------------
  free energy    TOTEN  =       -36.50434980 eV

  energy without entropy =      -36.50434980  energy(sigma->0) =      -36.50434980


--------------------------------------------------------------------------------------------------------




--------------------------------------- Iteration      1(   4)  ---------------------------------------


     EDDAV:  cpu time   30.3120: real time   30.6205
 BZINTS: Fermi energy: -1.535318; 62.000000 electrons
         Band energy:-402.387041;  BLOECHL correction: -0.028350
       DOS:  cpu time    0.0080: real time    0.0070
    --------------------------------------------
      LOOP:  cpu time   30.3200: real time   30.6275

 eigenvalue-minimisations  :  1312
 total energy-change (2. order) :-0.1745875E+01  (-0.1740553E+01)
 number of electron      62.0000000 magnetization       9.7800000
 augmentation part       62.0000000 magnetization       9.7800000

 Free energy of the ion-electron system (eV)
  ---------------------------------------------------
  alpha Z        PSCENC =        15.47635570
  Ewald energy   TEWEN  =      7529.91642125
  -Hartree energ DENC   =    -10377.98368054
  -exchange      EXHF   =         0.00000000
  -V(xc)+E(xc)   XCENC  =      -163.02602548
  PAW double counting   =      1962.09716123    -1789.38300269
  entropy T*S    EENTRO =         0.00000000
  eigenvalues    EBANDS =      -402.38704150
  atomic energy  EATOM  =      3187.03958702
  Solvation  Ediel_sol  =         0.00000000
  ---------------------------------------------------
  free energy    TOTEN  =       -38.25022500 eV

  energy without entropy =      -38.25022500  energy(sigma->0) =      -38.25022500


--------------------------------------------------------------------------------------------------------




--------------------------------------- Iteration      1(   5)  ---------------------------------------


     EDDAV:  cpu time   33.5040: real time   33.7567
 BZINTS: Fermi energy: -1.535534; 62.000000 electrons
         Band energy:-402.422176;  BLOECHL correction: -0.028493
       DOS:  cpu time    0.0040: real time    0.0079
    CHARGE:  cpu time    2.1280: real time    2.1322
    MIXING:  cpu time    0.0440: real time    0.0425
    --------------------------------------------
      LOOP:  cpu time   35.6800: real time   35.9392

 eigenvalue-minimisations  :  1456
 total energy-change (2. order) :-0.3513411E-01  (-0.3502037E-01)
 number of electron      61.9999996 magnetization       9.4819835
 augmentation part        0.2165705 magnetization       6.8099047

 Broyden mixing:
  rms(total) = 0.20199E+01    rms(broyden)= 0.20199E+01
  rms(prec ) = 0.21750E+01
  weight for this iteration     100.00

 Free energy of the ion-electron system (eV)
  ---------------------------------------------------
  alpha Z        PSCENC =        15.47635570
  Ewald energy   TEWEN  =      7529.91642125
  -Hartree energ DENC   =    -10377.98368054
  -exchange      EXHF   =         0.00000000
  -V(xc)+E(xc)   XCENC  =      -163.02602548
  PAW double counting   =      1962.09716123    -1789.38300269
  entropy T*S    EENTRO =         0.00000000
  eigenvalues    EBANDS =      -402.42217561
  atomic energy  EATOM  =      3187.03958702
  Solvation  Ediel_sol  =         0.00000000
  ---------------------------------------------------
  free energy    TOTEN  =       -38.28535911 eV

  energy without entropy =      -38.28535911  energy(sigma->0) =      -38.28535911


--------------------------------------------------------------------------------------------------------




--------------------------------------- Iteration      1(   6)  ---------------------------------------


    POTLOK:  cpu time   52.1400: real time   52.4093
    SETDIJ:  cpu time    0.0480: real time    0.0491
     EDDAV:  cpu time   25.7200: real time   26.3916
 BZINTS: Fermi energy: -3.300152; 62.000000 electrons
         Band energy:-549.695044;  BLOECHL correction: -0.042816
       DOS:  cpu time    0.0040: real time    0.0069
    CHARGE:  cpu time    2.0080: real time    2.0989
    MIXING:  cpu time    0.0440: real time    0.0433
    --------------------------------------------
      LOOP:  cpu time   79.9640: real time   80.9991

 eigenvalue-minimisations  :  1104
 total energy-change (2. order) :-0.2963575E+02  (-0.2848376E+02)
 number of electron      61.9999989 magnetization       9.1920347
 augmentation part        7.9145535 magnetization       9.0853013

 Broyden mixing:
  rms(total) = 0.47207E+01    rms(broyden)= 0.47206E+01
  rms(prec ) = 0.50031E+01
  weight for this iteration     100.00

 eigenvalues of (default mixing * dielectric matrix)
  average eigenvalue GAMMA=   0.2639
  0.2639

 Free energy of the ion-electron system (eV)
  ---------------------------------------------------
  alpha Z        PSCENC =        15.47635570
  Ewald energy   TEWEN  =      7529.91642125
  -Hartree energ DENC   =    -10280.97593304
  -exchange      EXHF   =         0.00000000
  -V(xc)+E(xc)   XCENC  =      -163.68296579
  PAW double counting   =      1818.38269187    -1624.38222035
  entropy T*S    EENTRO =         0.00000000
  eigenvalues    EBANDS =      -549.69504449
  atomic energy  EATOM  =      3187.03958702
  Solvation  Ediel_sol  =         0.00000000
  ---------------------------------------------------
  free energy    TOTEN  =       -67.92110784 eV

  energy without entropy =      -67.92110784  energy(sigma->0) =      -67.92110784


--------------------------------------------------------------------------------------------------------




--------------------------------------- Iteration      1(   7)  ---------------------------------------


    POTLOK:  cpu time   50.7240: real time   52.4545
    SETDIJ:  cpu time    0.0480: real time    0.0487
     EDDAV:  cpu time   26.8680: real time   27.1268
 BZINTS: Fermi energy: -3.010625; 62.000000 electrons
         Band energy:-440.194764;  BLOECHL correction: -0.056154
       DOS:  cpu time    0.0040: real time    0.0066
    CHARGE:  cpu time    2.1000: real time    2.1110
    MIXING:  cpu time    0.0440: real time    0.0417
    --------------------------------------------
      LOOP:  cpu time   79.7880: real time   81.7894

 eigenvalue-minimisations  :  1152
 total energy-change (2. order) : 0.2959694E+02  (-0.3991962E+01)
 number of electron      61.9999992 magnetization       8.9438669
 augmentation part        5.4614544 magnetization       9.1087556

 Broyden mixing:
  rms(total) = 0.22399E+01    rms(broyden)= 0.22399E+01
  rms(prec ) = 0.23878E+01
  weight for this iteration     100.00

 eigenvalues of (default mixing * dielectric matrix)
  average eigenvalue GAMMA=   0.4413
  0.4413  0.4413

 Free energy of the ion-electron system (eV)
  ---------------------------------------------------
  alpha Z        PSCENC =        15.47635570
  Ewald energy   TEWEN  =      7529.91642125
  -Hartree energ DENC   =    -10342.94256056
  -exchange      EXHF   =         0.00000000
  -V(xc)+E(xc)   XCENC  =      -163.90933337
  PAW double counting   =      1932.42039618    -1756.13026747
  entropy T*S    EENTRO =         0.00000000
  eigenvalues    EBANDS =      -440.19476406
  atomic energy  EATOM  =      3187.03958702
  Solvation  Ediel_sol  =         0.00000000
  ---------------------------------------------------
  free energy    TOTEN  =       -38.32416531 eV

  energy without entropy =      -38.32416531  energy(sigma->0) =      -38.32416531


--------------------------------------------------------------------------------------------------------




--------------------------------------- Iteration      1(   8)  ---------------------------------------


    POTLOK:  cpu time   51.3880: real time   51.9704
    SETDIJ:  cpu time    0.0520: real time    0.0554
     EDDAV:  cpu time   33.1400: real time   33.5026
 BZINTS: Fermi energy: -2.815431; 62.000000 electrons
         Band energy:-421.909197;  BLOECHL correction: -0.045056
       DOS:  cpu time    0.0040: real time    0.0068
    CHARGE:  cpu time    2.1040: real time    2.1126
    MIXING:  cpu time    0.0400: real time    0.0427
    --------------------------------------------
      LOOP:  cpu time   86.7280: real time   87.6906

 eigenvalue-minimisations  :  1456
 total energy-change (2. order) : 0.2362417E+01  (-0.5393151E+00)
 number of electron      61.9999993 magnetization       9.4640289
 augmentation part        4.2191201 magnetization       9.9133509

 Broyden mixing:
  rms(total) = 0.14424E+01    rms(broyden)= 0.14424E+01
  rms(prec ) = 0.15099E+01
  weight for this iteration     100.00

 eigenvalues of (default mixing * dielectric matrix)
  average eigenvalue GAMMA=   0.5014
  0.4446  0.4446  0.6151

 Free energy of the ion-electron system (eV)
  ---------------------------------------------------
  alpha Z        PSCENC =        15.47635570
  Ewald energy   TEWEN  =      7529.91642125
  -Hartree energ DENC   =    -10357.31068935
  -exchange      EXHF   =         0.00000000
  -V(xc)+E(xc)   XCENC  =      -163.80775944
  PAW double counting   =      1962.36437786    -1787.73084421
  entropy T*S    EENTRO =         0.00000000
  eigenvalues    EBANDS =      -421.90919720
  atomic energy  EATOM  =      3187.03958702
  Solvation  Ediel_sol  =         0.00000000
  ---------------------------------------------------
  free energy    TOTEN  =       -35.96174837 eV

  energy without entropy =      -35.96174837  energy(sigma->0) =      -35.96174837


--------------------------------------------------------------------------------------------------------




--------------------------------------- Iteration      1(   9)  ---------------------------------------


    POTLOK:  cpu time   51.4280: real time   51.8986
    SETDIJ:  cpu time    0.0560: real time    0.0531
     EDDAV:  cpu time   25.4320: real time   25.7281
 BZINTS: Fermi energy: -2.705864; 62.000000 electrons
         Band energy:-421.040825;  BLOECHL correction: -0.030555
       DOS:  cpu time    0.0040: real time    0.0071
    CHARGE:  cpu time    2.0560: real time    2.0652
    MIXING:  cpu time    0.0440: real time    0.0450
    --------------------------------------------
      LOOP:  cpu time   79.0200: real time   79.7971

 eigenvalue-minimisations  :  1088
 total energy-change (2. order) : 0.4943242E+00  (-0.1146479E+00)
 number of electron      61.9999993 magnetization       8.4809386
 augmentation part        3.5993138 magnetization       8.3465674

 Broyden mixing:
  rms(total) = 0.12549E+01    rms(broyden)= 0.12549E+01
  rms(prec ) = 0.12903E+01
  weight for this iteration     100.00

 eigenvalues of (default mixing * dielectric matrix)
  average eigenvalue GAMMA=   0.7272
  1.0319  1.0319  0.4226  0.4226

 Free energy of the ion-electron system (eV)
  ---------------------------------------------------
  alpha Z        PSCENC =        15.47635570
  Ewald energy   TEWEN  =      7529.91642125
  -Hartree energ DENC   =    -10356.35346837
  -exchange      EXHF   =         0.00000000
  -V(xc)+E(xc)   XCENC  =      -163.30606936
  PAW double counting   =      1952.87471338    -1780.07413898
  entropy T*S    EENTRO =         0.00000000
  eigenvalues    EBANDS =      -421.04082476
  atomic energy  EATOM  =      3187.03958702
  Solvation  Ediel_sol  =         0.00000000
  ---------------------------------------------------
  free energy    TOTEN  =       -35.46742412 eV

  energy without entropy =      -35.46742412  energy(sigma->0) =      -35.46742412


--------------------------------------------------------------------------------------------------------




--------------------------------------- Iteration      1(  10)  ---------------------------------------


    POTLOK:  cpu time   51.1080: real time   51.4582
    SETDIJ:  cpu time    0.0520: real time    0.0508
     EDDAV:  cpu time   26.3800: real time   26.6872
 BZINTS: Fermi energy: -2.703794; 62.000000 electrons
         Band energy:-416.397330;  BLOECHL correction: -0.038591
       DOS:  cpu time    0.0040: real time    0.0069
    CHARGE:  cpu time    2.0600: real time    2.0759
    MIXING:  cpu time    0.0440: real time    0.0444
    --------------------------------------------
      LOOP:  cpu time   79.6480: real time   80.3233

 eigenvalue-minimisations  :  1136
 total energy-change (2. order) :-0.2491095E+00  (-0.3224835E-01)
 number of electron      61.9999994 magnetization       6.7701793
 augmentation part        3.7147721 magnetization       7.2432596

 Broyden mixing:
  rms(total) = 0.11937E+01    rms(broyden)= 0.11937E+01
  rms(prec ) = 0.12334E+01
  weight for this iteration     100.00

 eigenvalues of (default mixing * dielectric matrix)
  average eigenvalue GAMMA=   1.0212
  1.8565  1.8565  0.4352  0.4352  0.5226

 Free energy of the ion-electron system (eV)
  ---------------------------------------------------
  alpha Z        PSCENC =        15.47635570
  Ewald energy   TEWEN  =      7529.91642125
  -Hartree energ DENC   =    -10362.39984792
  -exchange      EXHF   =         0.00000000
  -V(xc)+E(xc)   XCENC  =      -163.78117667
  PAW double counting   =      1971.70456082    -1797.27510352
  entropy T*S    EENTRO =         0.00000000
  eigenvalues    EBANDS =      -416.39733035
  atomic energy  EATOM  =      3187.03958702
  Solvation  Ediel_sol  =         0.00000000
  ---------------------------------------------------
  free energy    TOTEN  =       -35.71653366 eV

  energy without entropy =      -35.71653366  energy(sigma->0) =      -35.71653366


--------------------------------------------------------------------------------------------------------




--------------------------------------- Iteration      1(  11)  ---------------------------------------


    POTLOK:  cpu time   51.1360: real time   52.0105
    SETDIJ:  cpu time    0.0480: real time    0.0490
     EDDAV:  cpu time   30.1960: real time   30.3708
 BZINTS: Fermi energy: -2.516493; 62.000000 electrons
         Band energy:-405.757807;  BLOECHL correction: -0.013410
       DOS:  cpu time    0.0040: real time    0.0063
    CHARGE:  cpu time    2.0880: real time    2.0962
    MIXING:  cpu time    0.0440: real time    0.0429
    --------------------------------------------
      LOOP:  cpu time   83.5160: real time   84.5758

 eigenvalue-minimisations  :  1312
 total energy-change (2. order) :-0.1021411E+00  (-0.6457677E-01)
 number of electron      61.9999994 magnetization       5.5833725
 augmentation part        3.1337346 magnetization       6.1272689

 Broyden mixing:
  rms(total) = 0.67973E+00    rms(broyden)= 0.67970E+00
  rms(prec ) = 0.69097E+00
  weight for this iteration     100.00

 eigenvalues of (default mixing * dielectric matrix)
  average eigenvalue GAMMA=   1.0368
  2.0332  2.0332  0.4273  0.4273  0.6500  0.6500

 Free energy of the ion-electron system (eV)
  ---------------------------------------------------
  alpha Z        PSCENC =        15.47635570
  Ewald energy   TEWEN  =      7529.91642125
  -Hartree energ DENC   =    -10373.98302578
  -exchange      EXHF   =         0.00000000
  -V(xc)+E(xc)   XCENC  =      -164.00051344
  PAW double counting   =      1996.80685497    -1821.31654711
  entropy T*S    EENTRO =         0.00000000
  eigenvalues    EBANDS =      -405.75780737
  atomic energy  EATOM  =      3187.03958702
  Solvation  Ediel_sol  =         0.00000000
  ---------------------------------------------------
  free energy    TOTEN  =       -35.81867476 eV

  energy without entropy =      -35.81867476  energy(sigma->0) =      -35.81867476


--------------------------------------------------------------------------------------------------------




--------------------------------------- Iteration      1(  12)  ---------------------------------------


    POTLOK:  cpu time   50.7640: real time   51.1760
    SETDIJ:  cpu time    0.0480: real time    0.0489
     EDDAV:  cpu time   29.3640: real time   30.0117
 BZINTS: Fermi energy: -2.443674; 62.000000 electrons
         Band energy:-402.909615;  BLOECHL correction: -0.002439
       DOS:  cpu time    0.0040: real time    0.0068
    CHARGE:  cpu time    2.0440: real time    2.0546
    MIXING:  cpu time    0.0440: real time    0.0444
    --------------------------------------------
      LOOP:  cpu time   82.2680: real time   83.3424

 eigenvalue-minimisations  :  1296
 total energy-change (2. order) :-0.2963587E+00  (-0.3478680E-01)
 number of electron      61.9999994 magnetization       3.7281765
 augmentation part        3.1363239 magnetization       4.0104635

 Broyden mixing:
  rms(total) = 0.50159E+00    rms(broyden)= 0.50158E+00
  rms(prec ) = 0.51362E+00
  weight for this iteration     100.00

 eigenvalues of (default mixing * dielectric matrix)
  average eigenvalue GAMMA=   1.1457
  2.2839  2.2839  0.9609  0.9609  0.4306  0.4306  0.6691

 Free energy of the ion-electron system (eV)
  ---------------------------------------------------
  alpha Z        PSCENC =        15.47635570
  Ewald energy   TEWEN  =      7529.91642125
  -Hartree energ DENC   =    -10377.01667990
  -exchange      EXHF   =         0.00000000
  -V(xc)+E(xc)   XCENC  =      -164.14467341
  PAW double counting   =      2003.74198557    -1828.21841500
  entropy T*S    EENTRO =         0.00000000
  eigenvalues    EBANDS =      -402.90961465
  atomic energy  EATOM  =      3187.03958702
  Solvation  Ediel_sol  =         0.00000000
  ---------------------------------------------------
  free energy    TOTEN  =       -36.11503342 eV

  energy without entropy =      -36.11503342  energy(sigma->0) =      -36.11503342


--------------------------------------------------------------------------------------------------------




--------------------------------------- Iteration      1(  13)  ---------------------------------------


    POTLOK:  cpu time   50.6040: real time   51.0732
    SETDIJ:  cpu time    0.0480: real time    0.0502
     EDDAV:  cpu time   28.3000: real time   29.3621
 BZINTS: Fermi energy: -2.333595; 62.000000 electrons
         Band energy:-398.000234;  BLOECHL correction:  0.000000
       DOS:  cpu time    0.0040: real time    0.0035
    CHARGE:  cpu time    2.1280: real time    2.1287
    MIXING:  cpu time    0.0480: real time    0.0495
    --------------------------------------------
      LOOP:  cpu time   81.1320: real time   82.6671

 eigenvalue-minimisations  :  1264
 total energy-change (2. order) :-0.3257875E+00  (-0.2990274E-01)
 number of electron      61.9999994 magnetization       2.4061117
 augmentation part        3.1669667 magnetization       2.4079507

 Broyden mixing:
  rms(total) = 0.28804E+00    rms(broyden)= 0.28802E+00
  rms(prec ) = 0.30405E+00
  weight for this iteration     100.00

 eigenvalues of (default mixing * dielectric matrix)
  average eigenvalue GAMMA=   1.2958
  2.5737  2.5737  1.9757  0.4307  0.4307  0.8620  0.8620  0.6575

 Free energy of the ion-electron system (eV)
  ---------------------------------------------------
  alpha Z        PSCENC =        15.47635570
  Ewald energy   TEWEN  =      7529.91642125
  -Hartree energ DENC   =    -10381.55451220
  -exchange      EXHF   =         0.00000000
  -V(xc)+E(xc)   XCENC  =      -164.22876003
  PAW double counting   =      2012.02135849    -1837.11103711
  entropy T*S    EENTRO =         0.00000000
  eigenvalues    EBANDS =      -398.00023405
  atomic energy  EATOM  =      3187.03958702
  Solvation  Ediel_sol  =         0.00000000
  ---------------------------------------------------
  free energy    TOTEN  =       -36.44082093 eV

  energy without entropy =      -36.44082093  energy(sigma->0) =      -36.44082093


--------------------------------------------------------------------------------------------------------




--------------------------------------- Iteration      1(  14)  ---------------------------------------


    POTLOK:  cpu time   50.9280: real time   51.1419
    SETDIJ:  cpu time    0.0600: real time    0.0582
     EDDAV:  cpu time   27.0120: real time   27.1862
 BZINTS: Fermi energy: -2.317407; 62.000000 electrons
         Band energy:-397.534425;  BLOECHL correction:  0.000000
       DOS:  cpu time    0.0000: real time    0.0021
    CHARGE:  cpu time    2.0280: real time    2.0382
    MIXING:  cpu time    0.0440: real time    0.0463
    --------------------------------------------
      LOOP:  cpu time   80.0760: real time   80.4730

 eigenvalue-minimisations  :  1168
 total energy-change (2. order) :-0.4180462E+00  (-0.3813318E-01)
 number of electron      61.9999994 magnetization       1.1109377
 augmentation part        3.5356986 magnetization       1.1887631

 Broyden mixing:
  rms(total) = 0.49049E+00    rms(broyden)= 0.49049E+00
  rms(prec ) = 0.53308E+00
  weight for this iteration     100.00

 eigenvalues of (default mixing * dielectric matrix)
  average eigenvalue GAMMA=   1.3296
  2.7794  2.3802  2.3802  1.0820  1.0820  0.4306  0.4306  0.7329  0.6689

 Free energy of the ion-electron system (eV)
  ---------------------------------------------------
  alpha Z        PSCENC =        15.47635570
  Ewald energy   TEWEN  =      7529.91642125
  -Hartree energ DENC   =    -10380.53429844
  -exchange      EXHF   =         0.00000000
  -V(xc)+E(xc)   XCENC  =      -164.46990762
  PAW double counting   =      2006.10064287    -1832.85324327
  entropy T*S    EENTRO =         0.00000000
  eigenvalues    EBANDS =      -397.53442467
  atomic energy  EATOM  =      3187.03958702
  Solvation  Ediel_sol  =         0.00000000
  ---------------------------------------------------
  free energy    TOTEN  =       -36.85886716 eV

  energy without entropy =      -36.85886716  energy(sigma->0) =      -36.85886716


--------------------------------------------------------------------------------------------------------




--------------------------------------- Iteration      1(  15)  ---------------------------------------


    POTLOK:  cpu time   50.9960: real time   51.0769
    SETDIJ:  cpu time    0.0520: real time    0.0511
     EDDAV:  cpu time   26.9240: real time   27.0893
 BZINTS: Fermi energy: -2.294190; 62.000000 electrons
         Band energy:-392.340988;  BLOECHL correction:  0.000000
       DOS:  cpu time    0.0000: real time    0.0036
    CHARGE:  cpu time    2.0320: real time    2.0544
    MIXING:  cpu time    0.0480: real time    0.0466
    --------------------------------------------
      LOOP:  cpu time   80.0480: real time   80.3218

 eigenvalue-minimisations  :  1168
 total energy-change (2. order) : 0.2902975E-01  (-0.1514079E-01)
 number of electron      61.9999994 magnetization       0.7819671
 augmentation part        3.2617206 magnetization       0.9495616

 Broyden mixing:
  rms(total) = 0.28191E+00    rms(broyden)= 0.28191E+00
  rms(prec ) = 0.30535E+00
  weight for this iteration     100.00

 eigenvalues of (default mixing * dielectric matrix)
  average eigenvalue GAMMA=   1.4656
  4.2458  2.6698  1.8826  1.8826  0.4306  0.4306  0.8722  0.8722  0.6847  0.6847

 Free energy of the ion-electron system (eV)
  ---------------------------------------------------
  alpha Z        PSCENC =        15.47635570
  Ewald energy   TEWEN  =      7529.91642125
  -Hartree energ DENC   =    -10385.71483458
  -exchange      EXHF   =         0.00000000
  -V(xc)+E(xc)   XCENC  =      -164.41851410
  PAW double counting   =      2011.77262465    -1838.56048941
  entropy T*S    EENTRO =         0.00000000
  eigenvalues    EBANDS =      -392.34098793
  atomic energy  EATOM  =      3187.03958702
  Solvation  Ediel_sol  =         0.00000000
  ---------------------------------------------------
  free energy    TOTEN  =       -36.82983741 eV

  energy without entropy =      -36.82983741  energy(sigma->0) =      -36.82983741


--------------------------------------------------------------------------------------------------------




--------------------------------------- Iteration      1(  16)  ---------------------------------------


    POTLOK:  cpu time   50.7120: real time   51.0356
    SETDIJ:  cpu time    0.0680: real time    0.0670
     EDDAV:  cpu time   29.7080: real time   29.9319
 BZINTS: Fermi energy: -2.300077; 62.000000 electrons
         Band energy:-391.552047;  BLOECHL correction:  0.000000
       DOS:  cpu time    0.0040: real time    0.0038
    CHARGE:  cpu time    2.0560: real time    2.0870
    MIXING:  cpu time    0.0480: real time    0.0485
    --------------------------------------------
      LOOP:  cpu time   82.5960: real time   83.1738

 eigenvalue-minimisations  :  1296
 total energy-change (2. order) :-0.1485696E-01  (-0.3944953E-02)
 number of electron      61.9999994 magnetization       0.1211763
 augmentation part        3.1617461 magnetization       0.3278083

 Broyden mixing:
  rms(total) = 0.23763E+00    rms(broyden)= 0.23763E+00
  rms(prec ) = 0.25343E+00
  weight for this iteration     100.00

 eigenvalues of (default mixing * dielectric matrix)
  average eigenvalue GAMMA=   1.6155
  5.9979  2.6333  2.0500  2.0500  1.0361  1.0361  0.4306  0.4306  0.7434  0.7434
  0.6192

 Free energy of the ion-electron system (eV)
  ---------------------------------------------------
  alpha Z        PSCENC =        15.47635570
  Ewald energy   TEWEN  =      7529.91642125
  -Hartree energ DENC   =    -10386.64931083
  -exchange      EXHF   =         0.00000000
  -V(xc)+E(xc)   XCENC  =      -164.42976387
  PAW double counting   =      2012.11918079    -1838.76511746
  entropy T*S    EENTRO =         0.00000000
  eigenvalues    EBANDS =      -391.55204697
  atomic energy  EATOM  =      3187.03958702
  Solvation  Ediel_sol  =         0.00000000
  ---------------------------------------------------
  free energy    TOTEN  =       -36.84469436 eV

  energy without entropy =      -36.84469436  energy(sigma->0) =      -36.84469436


--------------------------------------------------------------------------------------------------------




--------------------------------------- Iteration      1(  17)  ---------------------------------------


    POTLOK:  cpu time   50.8560: real time   51.2549
    SETDIJ:  cpu time    0.0520: real time    0.0489
     EDDAV:  cpu time   27.2120: real time   27.3937
 BZINTS: Fermi energy: -2.277657; 62.000000 electrons
         Band energy:-388.027105;  BLOECHL correction:  0.000000
       DOS:  cpu time    0.0040: real time    0.0035
    CHARGE:  cpu time    2.0360: real time    2.0401
    MIXING:  cpu time    0.0480: real time    0.0501
    --------------------------------------------
      LOOP:  cpu time   80.2080: real time   80.7912

 eigenvalue-minimisations  :  1184
 total energy-change (2. order) :-0.5191599E-02  (-0.1653392E-01)
 number of electron      61.9999995 magnetization      -0.0327555
 augmentation part        2.7789658 magnetization       0.0675412

 Broyden mixing:
  rms(total) = 0.79804E-01    rms(broyden)= 0.79771E-01
  rms(prec ) = 0.86608E-01
  weight for this iteration     100.00

 eigenvalues of (default mixing * dielectric matrix)
  average eigenvalue GAMMA=   1.6402
  6.7206  2.5752  2.1328  2.1328  1.2136  1.2136  0.4306  0.4306  0.7915  0.7915
  0.6251  0.6251

 Free energy of the ion-electron system (eV)
  ---------------------------------------------------
  alpha Z        PSCENC =        15.47635570
  Ewald energy   TEWEN  =      7529.91642125
  -Hartree energ DENC   =    -10390.88704979
  -exchange      EXHF   =         0.00000000
  -V(xc)+E(xc)   XCENC  =      -164.33214158
  PAW double counting   =      2020.15814373    -1846.19409763
  entropy T*S    EENTRO =         0.00000000
  eigenvalues    EBANDS =      -388.02710466
  atomic energy  EATOM  =      3187.03958702
  Solvation  Ediel_sol  =         0.00000000
  ---------------------------------------------------
  free energy    TOTEN  =       -36.84988596 eV

  energy without entropy =      -36.84988596  energy(sigma->0) =      -36.84988596


--------------------------------------------------------------------------------------------------------




--------------------------------------- Iteration      1(  18)  ---------------------------------------


    POTLOK:  cpu time   50.9400: real time   50.9857
    SETDIJ:  cpu time    0.0480: real time    0.0474
     EDDAV:  cpu time   27.3880: real time   27.5798
 BZINTS: Fermi energy: -2.319986; 62.000000 electrons
         Band energy:-387.791496;  BLOECHL correction:  0.000000
       DOS:  cpu time    0.0040: real time    0.0037
    CHARGE:  cpu time    2.0200: real time    2.0314
    MIXING:  cpu time    0.0520: real time    0.0518
    --------------------------------------------
      LOOP:  cpu time   80.4520: real time   80.6998

 eigenvalue-minimisations  :  1200
 total energy-change (2. order) :-0.1166269E-01  (-0.3733222E-02)
 number of electron      61.9999995 magnetization      -0.0600832
 augmentation part        2.7372903 magnetization      -0.0559979

 Broyden mixing:
  rms(total) = 0.88230E-01    rms(broyden)= 0.88227E-01
  rms(prec ) = 0.97873E-01
  weight for this iteration     100.00

 eigenvalues of (default mixing * dielectric matrix)
  average eigenvalue GAMMA=   1.6963
  7.2515  2.1293  2.1293  2.3247  2.3247  0.4306  0.4306  1.1528  0.9238  0.9238
  0.7414  0.6448  0.6448

 Free energy of the ion-electron system (eV)
  ---------------------------------------------------
  alpha Z        PSCENC =        15.47635570
  Ewald energy   TEWEN  =      7529.91642125
  -Hartree energ DENC   =    -10391.11121765
  -exchange      EXHF   =         0.00000000
  -V(xc)+E(xc)   XCENC  =      -164.32671916
  PAW double counting   =      2021.32088878    -1847.38536907
  entropy T*S    EENTRO =         0.00000000
  eigenvalues    EBANDS =      -387.79149551
  atomic energy  EATOM  =      3187.03958702
  Solvation  Ediel_sol  =         0.00000000
  ---------------------------------------------------
  free energy    TOTEN  =       -36.86154865 eV

  energy without entropy =      -36.86154865  energy(sigma->0) =      -36.86154865


--------------------------------------------------------------------------------------------------------




--------------------------------------- Iteration      1(  19)  ---------------------------------------


    POTLOK:  cpu time   50.9600: real time   51.0786
    SETDIJ:  cpu time    0.0480: real time    0.0476
     EDDAV:  cpu time   27.8720: real time   28.0294
 BZINTS: Fermi energy: -2.314897; 62.000000 electrons
         Band energy:-388.430612;  BLOECHL correction:  0.000000
       DOS:  cpu time    0.0000: real time    0.0034
    CHARGE:  cpu time    2.0320: real time    2.0316
    MIXING:  cpu time    0.0480: real time    0.0508
    --------------------------------------------
      LOOP:  cpu time   80.9600: real time   81.2415

 eigenvalue-minimisations  :  1216
 total energy-change (2. order) : 0.5374993E-02  (-0.1788478E-02)
 number of electron      61.9999995 magnetization      -0.0030975
 augmentation part        2.8480354 magnetization      -0.0414832

 Broyden mixing:
  rms(total) = 0.28849E-01    rms(broyden)= 0.28841E-01
  rms(prec ) = 0.30073E-01
  weight for this iteration     100.00

 eigenvalues of (default mixing * dielectric matrix)
  average eigenvalue GAMMA=   1.6288
  7.1129  2.8620  2.1037  2.1037  1.5702  1.5702  0.4306  0.4306  0.8823  0.8823
  0.8405  0.6980  0.6980  0.6185

 Free energy of the ion-electron system (eV)
  ---------------------------------------------------
  alpha Z        PSCENC =        15.47635570
  Ewald energy   TEWEN  =      7529.91642125
  -Hartree energ DENC   =    -10390.28017596
  -exchange      EXHF   =         0.00000000
  -V(xc)+E(xc)   XCENC  =      -164.36679666
  PAW double counting   =      2020.03729273    -1846.24824540
  entropy T*S    EENTRO =         0.00000000
  eigenvalues    EBANDS =      -388.43061233
  atomic energy  EATOM  =      3187.03958702
  Solvation  Ediel_sol  =         0.00000000
  ---------------------------------------------------
  free energy    TOTEN  =       -36.85617366 eV

  energy without entropy =      -36.85617366  energy(sigma->0) =      -36.85617366


--------------------------------------------------------------------------------------------------------




--------------------------------------- Iteration      1(  20)  ---------------------------------------


    POTLOK:  cpu time   50.8760: real time   51.0048
    SETDIJ:  cpu time    0.0560: real time    0.0584
     EDDAV:  cpu time   28.0680: real time   28.3788
 BZINTS: Fermi energy: -2.320966; 62.000000 electrons
         Band energy:-388.727217;  BLOECHL correction:  0.000000
       DOS:  cpu time    0.0040: real time    0.0033
    CHARGE:  cpu time    2.0200: real time    2.0366
    MIXING:  cpu time    0.0520: real time    0.0519
    --------------------------------------------
      LOOP:  cpu time   81.0760: real time   81.5337

 eigenvalue-minimisations  :  1232
 total energy-change (2. order) :-0.3959383E-03  (-0.4636568E-03)
 number of electron      61.9999995 magnetization      -0.0092766
 augmentation part        2.8893286 magnetization      -0.0195689

 Broyden mixing:
  rms(total) = 0.10547E-01    rms(broyden)= 0.10544E-01
  rms(prec ) = 0.12694E-01
  weight for this iteration     100.00

 eigenvalues of (default mixing * dielectric matrix)
  average eigenvalue GAMMA=   1.5857
  7.1405  2.9417  2.0838  2.0838  1.4679  1.4679  0.4306  0.4306  0.9890  0.9890
  0.8773  0.8773  0.7410  0.6314  0.6331

 Free energy of the ion-electron system (eV)
  ---------------------------------------------------
  alpha Z        PSCENC =        15.47635570
  Ewald energy   TEWEN  =      7529.91642125
  -Hartree energ DENC   =    -10389.99159239
  -exchange      EXHF   =         0.00000000
  -V(xc)+E(xc)   XCENC  =      -164.38416360
  PAW double counting   =      2019.39435153    -1845.58031248
  entropy T*S    EENTRO =         0.00000000
  eigenvalues    EBANDS =      -388.72721663
  atomic energy  EATOM  =      3187.03958702
  Solvation  Ediel_sol  =         0.00000000
  ---------------------------------------------------
  free energy    TOTEN  =       -36.85656960 eV

  energy without entropy =      -36.85656960  energy(sigma->0) =      -36.85656960


--------------------------------------------------------------------------------------------------------




--------------------------------------- Iteration      1(  21)  ---------------------------------------


    POTLOK:  cpu time   50.9000: real time   51.1368
    SETDIJ:  cpu time    0.0520: real time    0.0496
     EDDAV:  cpu time   22.8200: real time   23.1261
 BZINTS: Fermi energy: -2.317894; 62.000000 electrons
         Band energy:-388.382362;  BLOECHL correction:  0.000000
       DOS:  cpu time    0.0040: real time    0.0035
    CHARGE:  cpu time    2.0120: real time    2.0243
    MIXING:  cpu time    0.0520: real time    0.0539
    --------------------------------------------
      LOOP:  cpu time   75.8400: real time   76.3942

 eigenvalue-minimisations  :   976
 total energy-change (2. order) :-0.3420907E-03  (-0.8310110E-04)
 number of electron      61.9999995 magnetization      -0.0107927
 augmentation part        2.8699628 magnetization      -0.0099809

 Broyden mixing:
  rms(total) = 0.36496E-02    rms(broyden)= 0.36480E-02
  rms(prec ) = 0.58454E-02
  weight for this iteration     100.00

 eigenvalues of (default mixing * dielectric matrix)
  average eigenvalue GAMMA=   1.5836
  7.2126  2.8835  2.0669  2.0669  1.7210  1.5484  1.5484  0.4306  0.4306  0.9084
  0.9084  0.8043  0.8043  0.7538  0.6247  0.6247

 Free energy of the ion-electron system (eV)
  ---------------------------------------------------
  alpha Z        PSCENC =        15.47635570
  Ewald energy   TEWEN  =      7529.91642125
  -Hartree energ DENC   =    -10390.37661188
  -exchange      EXHF   =         0.00000000
  -V(xc)+E(xc)   XCENC  =      -164.38013072
  PAW double counting   =      2020.05020068    -1846.20037165
  entropy T*S    EENTRO =         0.00000000
  eigenvalues    EBANDS =      -388.38236209
  atomic energy  EATOM  =      3187.03958702
  Solvation  Ediel_sol  =         0.00000000
  ---------------------------------------------------
  free energy    TOTEN  =       -36.85691169 eV

  energy without entropy =      -36.85691169  energy(sigma->0) =      -36.85691169


--------------------------------------------------------------------------------------------------------




--------------------------------------- Iteration      1(  22)  ---------------------------------------


    POTLOK:  cpu time   51.0320: real time   51.1893
    SETDIJ:  cpu time    0.0480: real time    0.0485
     EDDAV:  cpu time   23.1440: real time   23.3990
 BZINTS: Fermi energy: -2.262164; 62.000000 electrons
         Band energy:-388.110774;  BLOECHL correction:  0.000000
       DOS:  cpu time    0.0000: real time    0.0014
    --------------------------------------------
      LOOP:  cpu time   74.2240: real time   74.6381

 eigenvalue-minimisations  :   992
 total energy-change (2. order) :-0.6981140E-04  (-0.3529937E-04)
 number of electron      61.9999995 magnetization      -0.0107927
 augmentation part        2.8699628 magnetization      -0.0099809

 Free energy of the ion-electron system (eV)
  ---------------------------------------------------
  alpha Z        PSCENC =        15.47635570
  Ewald energy   TEWEN  =      7529.91642125
  -Hartree energ DENC   =    -10390.64864109
  -exchange      EXHF   =         0.00000000
  -V(xc)+E(xc)   XCENC  =      -164.38157539
  PAW double counting   =      2020.37055251    -1846.51890791
  entropy T*S    EENTRO =         0.00000000
  eigenvalues    EBANDS =      -388.11077359
  atomic energy  EATOM  =      3187.03958702
  Solvation  Ediel_sol  =         0.00000000
  ---------------------------------------------------
  free energy    TOTEN  =       -36.85698150 eV

  energy without entropy =      -36.85698150  energy(sigma->0) =      -36.85698150


--------------------------------------------------------------------------------------------------------




 average (electrostatic) potential at core
  the test charge radii are     1.0452  0.9892  1.1897
  (the norm of the test charge is              1.0000)
       1 -48.0841       2 -48.0841       3 -92.2236       4 -92.2236       5 -96.6972
       6 -96.6972       7 -96.6972       8 -96.6972       9 -96.6972      10 -96.6972



 E-fermi :  -2.2622     XC(G=0):  -3.6162     alpha+bet : -3.0041


 spin component 1

 k-point     1 :       0.0000    0.0000    0.0000
  band No.  band energies     occupation 
      1     -14.4898      1.00000
      2     -13.7347      1.00000
      3     -12.7866      1.00000
      4     -12.7866      1.00000
      5     -12.7076      1.00000
      6     -12.7075      1.00000
      7     -10.2421      1.00000
      8      -8.2789      1.00000
      9      -6.5659      1.00000
     10      -6.4407      1.00000
     11      -6.4407      1.00000
     12      -6.4111      1.00000
     13      -6.0642      1.00000
     14      -6.0642      1.00000
     15      -5.3702      1.00000
     16      -4.2386      1.00000
     17      -4.2386      1.00000
     18      -4.0600      1.00000
     19      -4.0600      1.00000
     20      -3.8504      1.00000
     21      -3.6321      1.00000
     22      -3.5613      1.00000
     23      -3.5613      1.00000
     24      -2.8328      1.00000
     25      -2.8328      1.00000
     26      -2.8111      1.00000
     27      -2.7512      1.00000
     28      -2.7512      1.00000
     29      -2.7498      1.00000
     30      -2.3138      1.00000
     31      -2.3138      1.00000
     32      -1.6211      0.00000
     33      -1.6211      0.00000
     34      -0.9594      0.00000
     35      -0.9594      0.00000
     36      -0.4626      0.00000
     37      -0.4298      0.00000
     38       0.8421      0.00000
     39       0.8421      0.00000
     40       1.2871      0.00000
     41       1.5698      0.00000
     42       1.8686      0.00000
     43       1.9828      0.00000
     44       2.0315      0.00000
     45       2.0315      0.00000
     46       2.3638      0.00000
     47       3.0008      0.00000
     48       3.0008      0.00000

 k-point     2 :       0.2000    0.0000    0.0000
  band No.  band energies     occupation 
      1     -14.3683      1.00000
      2     -13.6385      1.00000
      3     -12.9917      1.00000
      4     -12.8811      1.00000
      5     -12.7859      1.00000
      6     -12.7586      1.00000
      7     -10.1259      1.00000
      8      -8.3441      1.00000
      9      -6.7147      1.00000
     10      -6.4800      1.00000
     11      -6.3277      1.00000
     12      -6.0367      1.00000
     13      -5.6527      1.00000
     14      -5.5033      1.00000
     15      -5.0334      1.00000
     16      -4.5118      1.00000
     17      -4.3861      1.00000
     18      -4.2659      1.00000
     19      -4.0436      1.00000
     20      -3.8433      1.00000
     21      -3.7941      1.00000
     22      -3.7283      1.00000
     23      -3.4505      1.00000
     24      -3.3166      1.00000
     25      -3.0251      1.00000
     26      -2.8365      1.00000
     27      -2.8116      1.00000
     28      -2.7429      1.00000
     29      -2.7248      1.00000
     30      -2.5480      1.00000
     31      -2.4602      1.00000
     32      -1.6820      0.00000
     33      -1.5337      0.00000
     34      -1.4754      0.00000
     35      -1.1715      0.00000
     36      -0.0312      0.00000
     37       0.0714      0.00000
     38       0.8590      0.00000
     39       0.8695      0.00000
     40       1.4673      0.00000
     41       1.6357      0.00000
     42       1.6840      0.00000
     43       1.9563      0.00000
     44       2.0600      0.00000
[...]
     34      -0.6282      0.00000
     35      -0.3272      0.00000
     36       0.5261      0.00000
     37       0.7401      0.00000
     38       1.4576      0.00000
     39       1.5880      0.00000
     40       2.1535      0.00000
     41       2.3547      0.00000
     42       2.3981      0.00000
     43       2.5900      0.00000
     44       2.8903      0.00000
     45       2.9764      0.00000
     46       3.5103      0.00000
     47       3.5666      0.00000
     48       3.7954      0.00000

 k-point     5 :      -0.4000    0.2000    0.0000
  band No.  band energies     occupation 
      1     -13.9008      1.00000
      2     -13.6128      1.00000
      3     -13.1735      1.00000
      4     -12.9596      1.00000
      5     -12.7625      1.00000
      6     -12.5937      1.00000
      7      -9.5654      1.00000
      8      -7.9688      1.00000
      9      -6.5777      1.00000
     10      -6.0716      1.00000
     11      -5.9757      1.00000
     12      -5.4966      1.00000
     13      -5.1926      1.00000
     14      -4.9580      1.00000
     15      -4.6859      1.00000
     16      -4.3402      1.00000
     17      -4.3377      1.00000
     18      -4.1552      1.00000
     19      -4.1536      1.00000
     20      -3.8395      1.00000
     21      -3.8339      1.00000
     22      -3.2457      1.00000
     23      -3.0285      1.00000
     24      -2.8852      1.00000
     25      -2.7391      1.00000
     26      -2.5761      1.00000
     27      -2.4534      1.00000
     28      -2.2966      1.00000
     29      -2.2778      1.00000
     30      -2.2440      1.00000
     31      -2.2396      1.00000
     32      -0.9631      0.00000
     33      -0.8814      0.00000
     34      -0.6825      0.00000
     35      -0.2343      0.00000
     36       0.0752      0.00000
     37       0.5720      0.00000
     38       0.9175      0.00000
     39       1.3504      0.00000
     40       1.8198      0.00000
     41       2.0691      0.00000
     42       2.3596      0.00000
     43       3.0741      0.00000
     44       3.1367      0.00000
     45       3.2295      0.00000
     46       3.2945      0.00000
     47       3.4395      0.00000
     48       3.9139      0.00000


--------------------------------------------------------------------------------------------------------


 soft charge-density along one line, spin component           1
         0         1         2         3         4         5         6         7         8         9
 total charge-density along one line

 soft charge-density along one line, spin component           2
         0         1         2         3         4         5         6         7         8         9
 total charge-density along one line

 pseudopotential strength for first ion, spin component:           1
 -9.423  -0.083  -0.000   0.000  -0.000   0.661   0.029   0.000
 -0.083  -9.504   0.000  -0.000   0.000   0.029   0.689  -0.000
 -0.000   0.000  -9.366   0.000   0.000   0.000  -0.000   0.641
  0.000  -0.000   0.000  -9.504   0.083  -0.000   0.000  -0.000
 -0.000   0.000   0.000   0.083  -9.423   0.000  -0.000  -0.000
  0.661   0.029   0.000  -0.000   0.000   0.788  -0.011  -0.000
  0.029   0.689  -0.000   0.000  -0.000  -0.011   0.777   0.000
  0.000  -0.000   0.641  -0.000  -0.000  -0.000   0.000   0.796
 -0.000   0.000  -0.000   0.689  -0.029   0.000  -0.000   0.000
  0.000  -0.000  -0.000  -0.029   0.661  -0.000   0.000   0.000
  0.000  -0.000   0.001  -0.000   0.000  -0.000  -0.000  -0.000
 -0.000   0.000  -0.000   0.000  -0.000   0.000  -0.000   0.000
  0.000   0.000   0.000  -0.000   0.001  -0.000  -0.000  -0.000
 -0.000  -0.000   0.000  -0.000   0.000  -0.000   0.000  -0.000
  0.001  -0.000   0.000   0.000  -0.000   0.000  -0.000  -0.000
 -0.000  -0.000  -0.000   0.000  -0.001   0.000   0.000   0.000
  0.000   0.000  -0.000   0.000  -0.000  -0.000  -0.000   0.000
 -0.001   0.000  -0.000  -0.000   0.000   0.000  -0.000   0.000
 pseudopotential strength for first ion, spin component:           2
 -9.423  -0.083  -0.000   0.000  -0.000   0.661   0.029   0.000
 -0.083  -9.504   0.000  -0.000   0.000   0.029   0.689  -0.000
 -0.000   0.000  -9.366   0.000   0.000   0.000  -0.000   0.641
  0.000  -0.000   0.000  -9.504   0.083  -0.000   0.000  -0.000
 -0.000   0.000   0.000   0.083  -9.423   0.000  -0.000  -0.000
  0.661   0.029   0.000  -0.000   0.000   0.788  -0.011  -0.000
  0.029   0.689  -0.000   0.000  -0.000  -0.011   0.777   0.000
  0.000  -0.000   0.641  -0.000  -0.000  -0.000   0.000   0.796
 -0.000   0.000  -0.000   0.689  -0.029   0.000  -0.000   0.000
  0.000  -0.000  -0.000  -0.029   0.661  -0.000   0.000   0.000
  0.000  -0.000   0.001  -0.000   0.000  -0.000  -0.000  -0.000
 -0.000   0.000  -0.000   0.000  -0.000   0.000  -0.000   0.000
  0.000   0.000   0.000  -0.000   0.001  -0.000  -0.000  -0.000
 -0.000  -0.000   0.000  -0.000   0.000  -0.000   0.000  -0.000
  0.001  -0.000   0.000   0.000  -0.000   0.000  -0.000  -0.000
 -0.000  -0.000  -0.000   0.000  -0.001   0.000   0.000   0.000
  0.000   0.000  -0.000   0.000  -0.000  -0.000  -0.000   0.000
 -0.001   0.000  -0.000  -0.000   0.000   0.000  -0.000   0.000
 total augmentation occupancy for first ion, spin component:           1
  1.691  -0.282   0.000   0.000  -0.000   0.105   0.125   0.000  -0.000   0.000  -0.000  -0.000   0.000   0.000   0.012  -0.000
 -0.282   1.450  -0.000  -0.000   0.000   0.124   0.215   0.000   0.000  -0.000   0.000  -0.000   0.000   0.000   0.006  -0.000
  0.000  -0.000   1.919  -0.000  -0.000   0.000   0.000  -0.002   0.000  -0.000  -0.008  -0.000  -0.000   0.000   0.000   0.000
  0.000  -0.000  -0.000   1.450   0.282  -0.000  -0.000   0.000   0.215  -0.124   0.000   0.000  -0.006  -0.000   0.000   0.000
 -0.000   0.000  -0.000   0.282   1.691  -0.000  -0.000  -0.000  -0.125   0.105   0.000   0.000   0.012  -0.000  -0.000  -0.000
  0.105   0.124   0.000  -0.000  -0.000   0.066   0.037   0.000  -0.000  -0.000   0.000  -0.000  -0.000   0.000   0.012   0.000
  0.125   0.215   0.000  -0.000  -0.000   0.037   0.104   0.000  -0.000  -0.000  -0.000  -0.000   0.000  -0.000  -0.003  -0.000
  0.000   0.000  -0.002   0.000  -0.000   0.000   0.000   0.056   0.000  -0.000   0.013  -0.007  -0.000   0.000   0.000   0.000
 -0.000   0.000   0.000   0.215  -0.125  -0.000  -0.000   0.000   0.104  -0.037  -0.000   0.000   0.003   0.000   0.000  -0.000
  0.000  -0.000  -0.000  -0.124   0.105  -0.000  -0.000  -0.000  -0.037   0.066  -0.000   0.000   0.012  -0.000   0.000  -0.002
 -0.000   0.000  -0.008  -0.000   0.000   0.000   0.000   0.013  -0.000  -0.000   1.037  -0.278   0.000   0.001  -0.000  -0.000
 -0.000  -0.000  -0.000   0.000   0.000  -0.000   0.000  -0.007   0.000   0.000  -0.278   0.126   0.000  -0.000  -0.000   0.000
  0.000   0.000  -0.000  -0.006   0.012  -0.000   0.000  -0.000   0.003   0.012  -0.000  -0.000   0.185   0.000  -0.000  -0.012
  0.000  -0.000   0.000  -0.000  -0.000   0.000  -0.000   0.000   0.000  -0.000   0.001  -0.000   0.000   0.185  -0.000  -0.000
  0.012   0.006   0.000   0.000  -0.000   0.012  -0.003   0.000   0.000   0.000  -0.000  -0.000  -0.000  -0.000   0.185  -0.000
 -0.000  -0.000   0.000   0.000  -0.000   0.000  -0.000   0.000  -0.000  -0.002  -0.000   0.000  -0.012  -0.000  -0.000   0.001
  0.000   0.000   0.000   0.000  -0.000  -0.000  -0.000  -0.000  -0.000   0.000  -0.000   0.000  -0.000  -0.013   0.000   0.000
 -0.000  -0.000  -0.000  -0.000   0.000  -0.002   0.000  -0.000  -0.000  -0.000  -0.000   0.000   0.000   0.000  -0.012  -0.000
 total augmentation occupancy for first ion, spin component:           2
  0.000   0.000   0.000  -0.000  -0.000   0.000   0.000   0.000  -0.000   0.000   0.000   0.000   0.000  -0.000  -0.000   0.000
  0.000   0.000   0.000  -0.000  -0.000   0.000   0.000   0.000   0.000  -0.000  -0.000   0.000  -0.000   0.000  -0.000  -0.000
  0.000   0.000   0.000   0.000  -0.000   0.000   0.000   0.000   0.000  -0.000   0.000   0.000   0.000  -0.000  -0.000   0.000
 -0.000  -0.000   0.000   0.000  -0.000  -0.000  -0.000   0.000   0.000  -0.000  -0.000  -0.000   0.000   0.000  -0.000  -0.000
  0.000  -0.000  -0.000  -0.000   0.000  -0.000  -0.000  -0.000  -0.000   0.000  -0.000  -0.000  -0.000   0.000  -0.000  -0.000
  0.000   0.000   0.000  -0.000  -0.000  -0.000   0.000  -0.000  -0.000   0.000  -0.000   0.000  -0.000   0.000   0.000  -0.000
  0.000   0.000   0.000  -0.000  -0.000   0.000   0.000   0.000  -0.000  -0.000  -0.000   0.000  -0.000   0.000   0.000  -0.000
  0.000   0.000   0.000   0.000  -0.000  -0.000   0.000  -0.000   0.000   0.000  -0.000   0.000  -0.000   0.000   0.000  -0.000
 -0.000   0.000   0.000   0.000  -0.000  -0.000  -0.000   0.000   0.000  -0.000   0.000   0.000  -0.000   0.000  -0.000   0.000
  0.000  -0.000  -0.000  -0.000   0.000  -0.000  -0.000   0.000  -0.000  -0.000   0.000  -0.000   0.000  -0.000   0.000   0.000
  0.000   0.000   0.000  -0.000  -0.000  -0.000   0.000  -0.000   0.000   0.000   0.000   0.000  -0.000   0.000  -0.000   0.000
  0.000   0.000   0.000  -0.000  -0.000   0.000   0.000   0.000  -0.000  -0.000   0.000  -0.000   0.000   0.000  -0.000   0.000
  0.000  -0.000   0.000   0.000  -0.000  -0.000  -0.000  -0.000  -0.000   0.000  -0.000   0.000   0.000   0.000  -0.000   0.000
 -0.000   0.000  -0.000  -0.000   0.000   0.000  -0.000   0.000  -0.000  -0.000   0.000   0.000   0.000   0.000  -0.000   0.000
 -0.000  -0.000  -0.000  -0.000  -0.000   0.000   0.000   0.000  -0.000   0.000  -0.000  -0.000  -0.000  -0.000   0.000  -0.000
  0.000  -0.000   0.000  -0.000  -0.000  -0.000  -0.000  -0.000   0.000   0.000  -0.000   0.000   0.000   0.000  -0.000  -0.000
 -0.000   0.000  -0.000   0.000   0.000   0.000  -0.000   0.000   0.000  -0.000  -0.000  -0.000   0.000   0.000  -0.000  -0.000
 -0.000   0.000  -0.000  -0.000  -0.000   0.000  -0.000   0.000  -0.000   0.000  -0.000  -0.000   0.000  -0.000   0.000   0.000


------------------------ aborting loop because EDIFF is reached ----------------------------------------





 total charge     

# of ion       s       p       d       tot
------------------------------------------
    1        0.368   0.416   7.414   8.198
    2        0.368   0.416   7.414   8.198
    3        0.779   0.879   0.000   1.659
    4        0.779   0.879   0.000   1.659
    5        1.393   1.933   0.049   3.375
    6        1.387   1.960   0.050   3.396
    7        1.392   1.938   0.050   3.380
    8        1.393   1.933   0.049   3.375
    9        1.387   1.960   0.050   3.396
   10        1.392   1.938   0.050   3.380
--------------------------------------------------
tot         10.640  14.251  15.126  40.017



 magnetization (x)

# of ion       s       p       d       tot
------------------------------------------
    1       -0.000  -0.000  -0.000  -0.000
    2       -0.000  -0.000  -0.000  -0.000
    3        0.000   0.000   0.000   0.000
    4        0.000   0.000   0.000   0.000
    5        0.000   0.000  -0.000   0.000
    6       -0.000   0.000  -0.000   0.000
    7        0.000   0.000  -0.000   0.000
    8        0.000   0.000  -0.000   0.000
    9       -0.000   0.000  -0.000   0.000
   10        0.000   0.000  -0.000   0.000
--------------------------------------------------
tot         -0.000   0.000  -0.000  -0.000

    CHARGE:  cpu time    2.0560: real time    2.0626
    FORLOC:  cpu time    0.0520: real time    0.0553
    FORNL :  cpu time    6.5600: real time    6.7732
    STRESS:  cpu time   19.2960: real time   20.1797
    FORCOR:  cpu time   51.3160: real time   51.5765
    FORHAR:  cpu time    0.3240: real time    0.3257
    MIXING:  cpu time    0.0440: real time    0.0411
    OFIELD:  cpu time    0.0000: real time    0.0001

  FORCE on cell =-STRESS in cart. coord.  units (eV):
  Direction    XX          YY          ZZ          XY          YZ          ZX
  --------------------------------------------------------------------------------------
  Alpha Z    18.12291    18.12291    18.12291
  Ewald    8947.62769  8947.62531-10829.27671    -0.00200    -0.00056    -0.00102
  Hartree  9509.90322  9509.90415 -9068.48348    -0.00031     0.00008     0.00013
  E(xc)    -262.36704  -262.36703  -261.86665     0.00004     0.00002     0.00002
  Local  -19326.78956-19326.78901 18998.35988     0.00201     0.00037     0.00069
  n-local   676.04917   675.40519   683.46208    -0.42646     1.29992     1.50581
  augment   -74.86516   -74.86509   -81.30058     0.00017    -0.00004     0.00009
  Kinetic   516.19774   510.06070   541.69360    -3.93407     0.99446     1.22603
  Fock        0.00000     0.00000     0.00000     0.00000     0.00000     0.00000
  -------------------------------------------------------------------------------------
  Total       0.48806     0.48806     0.71104     0.00000    -0.00000     0.00000
  in kB       0.94513     0.94513     1.37694     0.00000    -0.00000     0.00000
  external pressure =        1.09 kB  Pullay stress =        0.00 kB


 VOLUME and BASIS-vectors are now :
 -----------------------------------------------------------------------------
  energy-cutoff  :      520.00
  volume of cell :      827.35
      direct lattice vectors                 reciprocal lattice vectors
     6.691358085 -0.000000155 -0.000000000     0.149446491 -0.086282970  0.000000000
     3.345678726  5.794885680  0.000000000     0.000000004  0.172565956 -0.000000000
    -0.000000000  0.000000000 21.336903504     0.000000000 -0.000000000  0.046867157

  length of vectors
     6.691358085  6.691357574 21.336903504     0.172565943  0.172565956  0.046867157


 FORCES acting on ions
    electron-ion (+dipol)            ewald-force                    non-local-force                 convergence-correction
 -----------------------------------------------------------------------------------------------
   0.101E-03 0.445E-04 0.119E+01   0.627E-03 0.377E-03 -.121E+01   -.192E-19 0.718E-20 0.259E-01   0.193E-07 -.109E-06 -.990E-04
   -.101E-03 -.445E-04 -.119E+01   -.627E-03 -.377E-03 0.121E+01   -.277E-16 -.139E-16 -.259E-01   -.193E-07 0.109E-06 0.990E-04
   -.308E-04 -.250E-04 0.199E+03   -.152E-03 -.842E-04 -.194E+03   0.281E-16 -.143E-17 -.517E+01   0.288E-08 -.110E-07 -.345E-01
   0.308E-04 0.250E-04 -.199E+03   0.152E-03 0.842E-04 0.194E+03   -.351E-16 0.143E-17 0.517E+01   -.288E-08 0.110E-07 0.345E-01
   -.277E+02 0.163E+00 -.419E+03   0.234E+02 -.157E+00 0.424E+03   0.381E+01 -.163E-01 -.519E+01   0.157E-01 0.832E-04 0.100E+00
   0.140E+02 0.239E+02 -.419E+03   -.118E+02 -.202E+02 0.424E+03   -.192E+01 -.330E+01 -.519E+01   -.780E-02 -.137E-01 0.100E+00
   0.137E+02 -.241E+02 -.419E+03   -.116E+02 0.204E+02 0.424E+03   -.189E+01 0.331E+01 -.519E+01   -.795E-02 0.136E-01 0.100E+00
   0.277E+02 -.163E+00 0.419E+03   -.234E+02 0.157E+00 -.424E+03   -.381E+01 0.163E-01 0.519E+01   -.157E-01 -.832E-04 -.100E+00
   -.140E+02 -.239E+02 0.419E+03   0.118E+02 0.202E+02 -.424E+03   0.192E+01 0.330E+01 0.519E+01   0.780E-02 0.137E-01 -.100E+00
   -.137E+02 0.241E+02 0.419E+03   0.116E+02 -.204E+02 -.424E+03   0.189E+01 -.331E+01 0.519E+01   0.795E-02 -.136E-01 -.100E+00
 -----------------------------------------------------------------------------------------------
   0.202E-09 0.184E-09 0.256E-09   0.000E+00 -.711E-14 0.227E-12   -.222E-15 0.000E+00 -.888E-15   0.574E-13 0.657E-13 0.288E-10


 POSITION                                       TOTAL-FORCE (eV/Angst)
 -----------------------------------------------------------------------------------
      3.34568      1.93163     10.66662        -0.000000      0.000000      0.001037
      6.69136      3.86326     10.67028        -0.000000      0.000000     -0.001037
     -0.00000      0.00000      9.53322        -0.000000      0.000000      0.007680
     -0.00000      0.00000     11.80369         0.000000     -0.000000     -0.007680
      4.19258      0.00243     12.24209        -0.454041     -0.010105     -0.003767
      1.25150      2.16279     12.24209         0.218269      0.398264     -0.003767
      4.59296      3.62967     12.24209         0.235772     -0.388158     -0.003767
      5.84445      5.79245      9.09481         0.454041      0.010105      0.003767
      8.78554      3.63210      9.09481        -0.218269     -0.398264      0.003767
      5.44407      2.16522      9.09481        -0.235772      0.388158      0.003767
 -----------------------------------------------------------------------------------
    total drift:                                0.000000      0.000000      0.000000


--------------------------------------------------------------------------------------------------------



  FREE ENERGIE OF THE ION-ELECTRON SYSTEM (eV)
  ---------------------------------------------------
  free  energy   TOTEN  =       -37.86137089 eV

  energy  without entropy=      -37.86137089  energy(sigma->0) =      -37.86137089

 d Force = 0.2446659E-05[ 0.323E-05, 0.166E-05]  d Energy = 0.1768036E-03-0.174E-03
 d Force =-0.8327966E-01[-0.833E-01,-0.833E-01]  d Ewald  =-0.7546436E+01 0.746E+01


--------------------------------------------------------------------------------------------------------


    POTLOK:  cpu time   51.2200: real time   51.4556


--------------------------------------------------------------------------------------------------------




--------------------------------------------------------------------------------------------------------


  
 reached required accuracy - stopping structural energy minimisation
     LOOP+:  cpu time  277.4840: real time  279.9444
    4ORBIT:  cpu time    0.0000: real time    0.0000



 total charge     

# of ion       s       p       d       tot
------------------------------------------
    1        0.368   0.416   7.414   8.198
    2        0.368   0.416   7.414   8.198
    3        0.779   0.879   0.000   1.659
    4        0.779   0.879   0.000   1.659
    5        1.393   1.933   0.049   3.375
    6        1.387   1.960   0.050   3.396
    7        1.392   1.938   0.050   3.380
    8        1.393   1.933   0.049   3.375
    9        1.387   1.960   0.050   3.396
   10        1.392   1.938   0.050   3.380
--------------------------------------------------
tot         10.640  14.251  15.126  40.017



 magnetization (x)

# of ion       s       p       d       tot
------------------------------------------
    1       -0.000  -0.000  -0.000  -0.000
    2       -0.000  -0.000  -0.000  -0.000
    3        0.000   0.000   0.000   0.000
    4        0.000   0.000   0.000   0.000
    5        0.000   0.000  -0.000   0.000
    6       -0.000   0.000  -0.000   0.000
    7        0.000   0.000  -0.000   0.000
    8        0.000   0.000  -0.000   0.000
    9       -0.000   0.000  -0.000   0.000
   10        0.000   0.000  -0.000   0.000
--------------------------------------------------
tot         -0.000   0.000  -0.000  -0.000

 BZINTS: Fermi energy: -1.760647; 62.000000 electrons
         Band energy:-372.698235;  BLOECHL correction:  0.000000

 total amount of memory used by VASP MPI-rank0   130262. kBytes
=======================================================================

   base      :      30000. kBytes
   nonlr-proj:       9952. kBytes
   fftplans  :      11247. kBytes
   grid      :      66142. kBytes
   one-center:        311. kBytes
   wavefun   :      12610. kBytes

  
  
 General timing and accounting informations for this job:
 ========================================================
  
                  Total CPU time used (sec):     9592.196
                            User time (sec):     9364.532
                          System time (sec):      227.664
                         Elapsed time (sec):     9657.927
  
                   Maximum memory used (kb):      381232.
                   Average memory used (kb):           0.
  
                          Minor page faults:      9501579
                          Major page faults:            8
                 Voluntary context switches:         1080
