 vasp.5.4.4.18Apr17-6-g9f103f2a35 (build May  1 2020 15:48:39) complex           
 executed on             LinuxGNU date 2020.06.30  22:59:24
 running on    8 total cores
 distrk:  each k-point on    8 cores,    1 groups
 distr:  one band on NCORES_PER_BAND=   1 cores,    8 groups


--------------------------------------------------------------------------------------------------------


 INCAR:
 POTCAR:   PAW_PBE Cr 06Sep2000                   
 POTCAR:   PAW_PBE Si 05Jan2001                   
 POTCAR:    PAW_PBE P 17Jan2003                   
 POTCAR:   PAW_PBE Te 08Apr2002                   

 ----------------------------------------------------------------------------- 
|                                                                             |
|           W    W    AA    RRRRR   N    N  II  N    N   GGGG   !!!           |
|           W    W   A  A   R    R  NN   N  II  NN   N  G    G  !!!           |
|           W    W  A    A  R    R  N N  N  II  N N  N  G       !!!           |
|           W WW W  AAAAAA  RRRRR   N  N N  II  N  N N  G  GGG   !            |
|           WW  WW  A    A  R   R   N   NN  II  N   NN  G    G                |
|           W    W  A    A  R    R  N    N  II  N    N   GGGG   !!!           |
|                                                                             |
|      For optimal performance we recommend to set                            |
|        NCORE= 4 - approx SQRT( number of cores)                             |
|      NCORE specifies how many cores store one orbital (NPAR=cpu/NCORE).     |
|      This setting can  greatly improve the performance of VASP for DFT.     |
|      The default,   NCORE=1            might be grossly inefficient         |
|      on modern multi-core architectures or massively parallel machines.     |
|      Do your own testing !!!!                                               |
|      Unfortunately you need to use the default for GW and RPA calculations. |
|      (for HF NCORE is supported but not extensively tested yet)             |
|                                                                             |
 ----------------------------------------------------------------------------- 


 ----------------------------------------------------------------------------- 
|                                                                             |
|  ADVICE TO THIS USER RUNNING 'VASP/VAMP'   (HEAR YOUR MASTER'S VOICE ...):  |
|                                                                             |
|      You have switched on vdW-DFT.                                          |
|      This routine was written and supplied by Jiri Klimes.                  |
|      We recommed that you carefully read and cite the following             |
|      publication                                                            |
|      J. Klimes, D.R. Bowler, A. Michelides                                  |
|        J. Phys.: Cond Matt. 22 022201 (2010)                                |
|      J. Klimes, D.R. Bowler, A. Michelides                                  |
|        Phys. Rev. B. 83, 195131 (2011)                                      |
|      and references therein.                                                |
|                                                                             |
 ----------------------------------------------------------------------------- 

 POTCAR:   PAW_PBE Cr 06Sep2000                   
   VRHFIN =Cr : d5 s1                                                           
   LEXCH  = PE                                                                  
   EATOM  =   276.9744 eV,   20.3570 Ry                                         
                                                                                
   TITEL  = PAW_PBE Cr 06Sep2000                                                
   LULTRA =        F    use ultrasoft PP ?                                      
   IUNSCR =        1    unscreen: 0-lin 1-nonlin 2-no                           
   RPACOR =    2.080    partial core radius                                     
   POMASS =   51.996; ZVAL   =    6.000    mass and valenz                      
   RCORE  =    2.500    outmost cutoff radius                                   
   RWIGS  =    2.500; RWIGS  =    1.323    wigner-seitz radius (au A)           
   ENMAX  =  227.082; ENMIN  =  170.311 eV                                      
   RCLOC  =    1.721    cutoff for local pot                                    
   LCOR   =        T    correct aug charges                                     
   LPAW   =        T    paw PP                                                  
   EAUG   =  402.108                                                            
   DEXC   =    -.035                                                            
   RMAX   =    3.060    core radius for proj-oper                               
   RAUG   =    1.300    factor for augmentation sphere                          
   RDEP   =    2.609    radius for radial grids                                 
   QCUT   =   -4.085; QGAM   =    8.171    optimization parameters              
                                                                                
   Description                                                                  
     l     E      TYP  RCUT    TYP  RCUT                                        
     2   .000     23  2.500                                                     
     2   .000     23  2.500                                                     
     0   .000     23  2.500                                                     
     0   .000     23  2.500                                                     
     1  -.400     23  2.500                                                     
     1  2.000     23  2.500                                                     
     3   .000      7   .000                                                     
  local pseudopotential read in
  partial core-charges read in
  atomic valenz-charges read in
  non local Contribution for L=           2  read in
    real space projection operators read in
  non local Contribution for L=           2  read in
    real space projection operators read in
  non local Contribution for L=           0  read in
    real space projection operators read in
  non local Contribution for L=           0  read in
    real space projection operators read in
  non local Contribution for L=           1  read in
    real space projection operators read in
  non local Contribution for L=           1  read in
    real space projection operators read in
    PAW grid and wavefunctions read in

   number of l-projection  operators is LMAX  =           6
   number of lm-projection operators is LMMAX =          18

 POTCAR:   PAW_PBE Si 05Jan2001                   
   VRHFIN =Si: s2p2                                                             
   LEXCH  = PE                                                                  
   EATOM  =   103.0669 eV,    7.5752 Ry                                         
                                                                                
   TITEL  = PAW_PBE Si 05Jan2001                                                
   LULTRA =        F    use ultrasoft PP ?                                      
   IUNSCR =        1    unscreen: 0-lin 1-nonlin 2-no                           
   RPACOR =    1.500    partial core radius                                     
   POMASS =   28.085; ZVAL   =    4.000    mass and valenz                      
   RCORE  =    1.900    outmost cutoff radius                                   
   RWIGS  =    2.480; RWIGS  =    1.312    wigner-seitz radius (au A)           
   ENMAX  =  245.345; ENMIN  =  184.009 eV                                      
   ICORE  =        2    local potential                                         
   LCOR   =        T    correct aug charges                                     
   LPAW   =        T    paw PP                                                  
   EAUG   =  322.069                                                            
   DEXC   =    -.007                                                            
   RMAX   =    2.944    core radius for proj-oper                               
   RAUG   =    1.300    factor for augmentation sphere                          
   RDEP   =    1.993    radius for radial grids                                 
   QCUT   =   -4.246; QGAM   =    8.493    optimization parameters              
                                                                                
   Description                                                                  
     l     E      TYP  RCUT    TYP  RCUT                                        
     0   .000     23  1.900                                                     
     0   .000     23  1.900                                                     
     1   .000     23  1.900                                                     
     1   .000     23  1.900                                                     
     2   .000      7  1.900                                                     
  local pseudopotential read in
  partial core-charges read in
  atomic valenz-charges read in
  non local Contribution for L=           0  read in
    real space projection operators read in
  non local Contribution for L=           0  read in
    real space projection operators read in
  non local Contribution for L=           1  read in
    real space projection operators read in
  non local Contribution for L=           1  read in
    real space projection operators read in
    PAW grid and wavefunctions read in

   number of l-projection  operators is LMAX  =           4
   number of lm-projection operators is LMMAX =           8

 POTCAR:    PAW_PBE P 17Jan2003                   
   VRHFIN =P : s2p3                                                             
   LEXCH  = PE                                                                  
   EATOM  =   176.0430 eV,   12.9388 Ry                                         
                                                                                
   TITEL  = PAW_PBE P 17Jan2003                                                 
   LULTRA =        F    use ultrasoft PP ?                                      
   IUNSCR =        1    unscreen: 0-lin 1-nonlin 2-no                           
   RPACOR =    1.500    partial core radius                                     
   POMASS =   30.974; ZVAL   =    5.000    mass and valenz                      
   RCORE  =    1.900    outmost cutoff radius                                   
   RWIGS  =    2.330; RWIGS  =    1.233    wigner-seitz radius (au A)           
   ENMAX  =  270.000; ENMIN  =  191.280 eV                                      
   ICORE  =        2    local potential                                         
   LCOR   =        T    correct aug charges                                     
   LPAW   =        T    paw PP                                                  
   EAUG   =  342.924                                                            
   DEXC   =    -.002                                                            
   RMAX   =    2.887    core radius for proj-oper                               
   RAUG   =    1.300    factor for augmentation sphere                          
   RDEP   =    1.931    radius for radial grids                                 
   QCUT   =   -4.330; QGAM   =    8.659    optimization parameters              
                                                                                
   Description                                                                  
     l     E      TYP  RCUT    TYP  RCUT                                        
     0   .000     23  1.900                                                     
     0   .000     23  1.900                                                     
     1   .000     23  1.900                                                     
     1   .000     23  1.900                                                     
     2   .000     23  1.900                                                     
  local pseudopotential read in
  partial core-charges read in
  atomic valenz-charges read in
  non local Contribution for L=           0  read in
    real space projection operators read in
  non local Contribution for L=           0  read in
    real space projection operators read in
  non local Contribution for L=           1  read in
    real space projection operators read in
  non local Contribution for L=           1  read in
    real space projection operators read in
    PAW grid and wavefunctions read in

   number of l-projection  operators is LMAX  =           4
   number of lm-projection operators is LMMAX =           8

 POTCAR:   PAW_PBE Te 08Apr2002                   
   VRHFIN =Te: s2p4                                                             
   LEXCH  = PE                                                                  
   EATOM  =   223.2721 eV,   16.4100 Ry                                         
                                                                                
   TITEL  = PAW_PBE Te 08Apr2002                                                
   LULTRA =        F    use ultrasoft PP ?                                      
   IUNSCR =        1    unscreen: 0-lin 1-nonlin 2-no                           
   RPACOR =    2.200    partial core radius                                     
   POMASS =  127.600; ZVAL   =    6.000    mass and valenz                      
   RCORE  =    2.300    outmost cutoff radius                                   
   RWIGS  =    2.900; RWIGS  =    1.535    wigner-seitz radius (au A)           
   ENMAX  =  174.982; ENMIN  =  131.236 eV                                      
   ICORE  =        3    local potential                                         
   LCOR   =        T    correct aug charges                                     
   LPAW   =        T    paw PP                                                  
   EAUG   =  368.792                                                            
   DEXC   =    -.169                                                            
   RMAX   =    3.486    core radius for proj-oper                               
   RAUG   =    1.300    factor for augmentation sphere                          
   RDEP   =    2.397    radius for radial grids                                 
   QCUT   =   -3.586; QGAM   =    7.172    optimization parameters              
                                                                                
   Description                                                                  
     l     E      TYP  RCUT    TYP  RCUT                                        
     0   .000     23  2.300                                                     
     0   .000     23  2.300                                                     
     1   .000     23  2.300                                                     
     1   .000     23  2.300                                                     
     2   .000     23  2.300                                                     
     3  -.100     23  2.300                                                     
  local pseudopotential read in
  partial core-charges read in
  atomic valenz-charges read in
  non local Contribution for L=           0  read in
    real space projection operators read in
  non local Contribution for L=           0  read in
    real space projection operators read in
  non local Contribution for L=           1  read in
    real space projection operators read in
  non local Contribution for L=           1  read in
    real space projection operators read in
  non local Contribution for L=           2  read in
    real space projection operators read in
    PAW grid and wavefunctions read in

   number of l-projection  operators is LMAX  =           5
   number of lm-projection operators is LMMAX =          13

 Optimization of the real space projectors (new method)

 maximal supplied QI-value         = 15.12
 optimisation between [QCUT,QGAM] = [ 11.64, 23.28] = [ 37.95,151.78] Ry 
 Optimized for a Real-space Cutoff    1.49 Angstroem

   l    n(q)    QCUT    max X(q) W(low)/X(q) W(high)/X(q)  e(spline) 
   2      9    11.641     4.777    0.25E-04    0.21E-05    0.63E-07
   2      9    11.641    31.132    0.13E-03    0.22E-03    0.64E-06
   0     10    11.641    20.416    0.11E-04    0.74E-05    0.19E-07
   0     10    11.641    45.408    0.10E-03    0.85E-04    0.30E-06
   1     10    11.641     7.848    0.22E-04    0.23E-04    0.56E-07
   1     10    11.641     9.895    0.85E-04    0.54E-04    0.16E-06
 Optimization of the real space projectors (new method)

 maximal supplied QI-value         = 19.84
 optimisation between [QCUT,QGAM] = [ 11.51, 23.22] = [ 37.09,150.92] Ry 
 Optimized for a Real-space Cutoff    1.21 Angstroem

   l    n(q)    QCUT    max X(q) W(low)/X(q) W(high)/X(q)  e(spline) 
   0      8    11.508     8.708    0.18E-04    0.44E-05    0.47E-08
   0      8    11.508   106.241    0.70E-04    0.15E-03    0.51E-07
   1      8    11.508     5.901    0.63E-05    0.23E-04    0.21E-07
   1      8    11.508    73.241    0.15E-03    0.36E-04    0.79E-07
 Optimization of the real space projectors (new method)

 maximal supplied QI-value         = 19.84
 optimisation between [QCUT,QGAM] = [ 11.51, 23.22] = [ 37.09,150.92] Ry 
 Optimized for a Real-space Cutoff    1.21 Angstroem

   l    n(q)    QCUT    max X(q) W(low)/X(q) W(high)/X(q)  e(spline) 
   0      8    11.508     6.651    0.19E-04    0.31E-05    0.49E-08
   0      8    11.508    90.285    0.95E-04    0.17E-03    0.51E-07
   1      8    11.508     4.328    0.14E-04    0.32E-04    0.22E-07
   1      8    11.508    54.583    0.16E-03    0.71E-04    0.89E-07
 Optimization of the real space projectors (new method)

 maximal supplied QI-value         = 16.25
 optimisation between [QCUT,QGAM] = [ 11.54, 23.24] = [ 37.28,151.24] Ry 
 Optimized for a Real-space Cutoff    1.36 Angstroem

   l    n(q)    QCUT    max X(q) W(low)/X(q) W(high)/X(q)  e(spline) 
   0      9    11.539     7.090    0.13E-04    0.25E-05    0.51E-08
   0      9    11.539   101.654    0.53E-04    0.69E-04    0.12E-06
   1      9    11.539     5.276    0.20E-04    0.98E-05    0.24E-07
   1      9    11.539    81.891    0.24E-03    0.13E-04    0.15E-06
   2      9    11.539     5.599    0.30E-04    0.97E-04    0.54E-07

 ----------------------------------------------------------------------------- 
|                                                                             |
|  ADVICE TO THIS USER RUNNING 'VASP/VAMP'   (HEAR YOUR MASTER'S VOICE ...):  |
|                                                                             |
|      You enforced a specific xc-type in the INCAR file,                     |
|      a different type was found on the POTCAR file                          |
|          I HOPE YOU KNOW, WHAT YOU ARE  DOING                               |
|                                                                             |
 ----------------------------------------------------------------------------- 

 PAW_PBE Cr 06Sep2000                   :
 energy of atom  1       EATOM= -276.9744
 kinetic energy error for atom=    0.0010 (will be added to EATOM!!)
 PAW_PBE Si 05Jan2001                   :
 energy of atom  2       EATOM= -103.0669
 kinetic energy error for atom=    0.0005 (will be added to EATOM!!)
  PAW_PBE P 17Jan2003                   :
 energy of atom  3       EATOM= -176.0430
 kinetic energy error for atom=    0.0011 (will be added to EATOM!!)
 PAW_PBE Te 08Apr2002                   :
 energy of atom  4       EATOM= -223.2721
 kinetic energy error for atom=    0.0007 (will be added to EATOM!!)


 POSCAR: Cr2 Si P Te6                            
  positions in direct lattice
  velocities in cartesian coordinates
  No initial velocities read in
 exchange correlation table for  LEXCH =       42
   RHO(1)=    0.500       N(1)  =     2000
   RHO(2)=  100.500       N(2)  =     4000



--------------------------------------------------------------------------------------------------------


 ion  position               nearest neighbor table
   1  0.333  0.333  0.500-   6 2.78   5 2.78   7 2.78   8 2.78  10 2.78   9 2.78
   2  0.667  0.667  0.500-   9 2.78   8 2.78  10 2.78   5 2.78   7 2.78   6 2.78
   3  0.000  0.000  0.448-   4 2.43   8 2.63  10 2.63   9 2.63
   4  0.000  0.000  0.552-   3 2.43   5 2.63   7 2.63   6 2.63
   5  0.626  0.000  0.574-   4 2.63   1 2.78   2 2.78
   6  0.000  0.373  0.574-   4 2.63   1 2.78   2 2.78
   7  0.373  0.626  0.574-   4 2.63   1 2.78   2 2.78
   8  0.374  1.000  0.426-   3 2.63   2 2.78   1 2.78
   9  1.000  0.627  0.426-   3 2.63   2 2.78   1 2.78
  10  0.627  0.374  0.426-   3 2.63   2 2.78   1 2.78

  LATTYP: Found a hexagonal cell.
 ALAT       =     6.9077769333
 C/A-ratio  =     3.3939410937
  
  Lattice vectors:
  
 A1 = (   3.4538890000,  -5.9823100000,   0.0000000000)
 A2 = (  -6.9077770000,   0.0000000000,   0.0000000000)
 A3 = (   0.0000000000,   0.0000000000, -23.4445880000)


Analysis of symmetry for initial positions (statically):
=====================================================================
 Subroutine PRICEL returns:
 Original cell was already a primitive cell.
 

 Routine SETGRP: Setting up the symmetry group for a 
 hexagonal supercell.


 Subroutine GETGRP returns: Found  3 space group operations
 (whereof  3 operations were pure point group operations)
 out of a pool of 24 trial point group operations.


The static configuration has the point symmetry C_3 .


Analysis of symmetry for dynamics (positions and initial velocities):
=====================================================================
 Subroutine PRICEL returns:
 Original cell was already a primitive cell.
 

 Routine SETGRP: Setting up the symmetry group for a 
 hexagonal supercell.


 Subroutine GETGRP returns: Found  3 space group operations
 (whereof  3 operations were pure point group operations)
 out of a pool of 24 trial point group operations.


The dynamic configuration has the point symmetry C_3 .


Analysis of structural, dynamic, and magnetic symmetry:
=====================================================================
 Subroutine PRICEL returns:
 Original cell was already a primitive cell.
 

 Routine SETGRP: Setting up the symmetry group for a 
 hexagonal supercell.


 Subroutine GETGRP returns: Found  3 space group operations
 (whereof  3 operations were pure point group operations)
 out of a pool of 24 trial point group operations.


The magnetic configuration has the point symmetry C_3 .


 Subroutine INISYM returns: Found  3 space group operations
 (whereof  3 operations are pure point group operations),
 and found     1 'primitive' translations



 KPOINTS: Kpoints from vasprun.xml                

Automatic generation of k-mesh.
Space group operators:
 irot       det(A)        alpha          n_x          n_y          n_z        tau_x        tau_y        tau_z
    1     1.000000     0.000000     1.000000     0.000000     0.000000     0.000000     0.000000     0.000000
    2     1.000000   120.000000     0.000000     0.000000     1.000000     0.000000     0.000000     0.000000
    3     1.000000   120.000000     0.000000     0.000000    -1.000000     0.000000     0.000000     0.000000
 
 Subroutine IBZKPT returns following result:
 ===========================================
 
 Found      5 irreducible k-points:
 
 Following reciprocal coordinates:
            Coordinates               Weight
  0.000000  0.000000  0.000000      1.000000
  0.200000  0.000000  0.000000      6.000000
  0.400000  0.000000  0.000000      6.000000
  0.400000  0.200000  0.000000      6.000000
 -0.400000  0.200000  0.000000      6.000000
 
 Following cartesian coordinates:
            Coordinates               Weight
  0.000000  0.000000  0.000000      1.000000
  0.028953 -0.016716  0.000000      6.000000
  0.057906 -0.033432  0.000000      6.000000
  0.057906  0.000000  0.000000      6.000000
 -0.057906  0.066864  0.000000      6.000000
 
 TETIRR: Found     15 inequivalent tetrahedra from      150


--------------------------------------------------------------------------------------------------------




 Dimension of arrays:
   k-points           NKPTS =      5   k-points in BZ     NKDIM =      5   number of bands    NBANDS=     40
   number of dos      NEDOS =    301   number of ions     NIONS =     10
   non local maximal  LDIM  =      6   non local SUM 2l+1 LMDIM =     18
   total plane-waves  NPLWV = 524880
   max r-space proj   IRMAX =   7543   max aug-charges    IRDMAX=  31706
   dimension x,y,z NGX =    54 NGY =   54 NGZ =  180
   dimension x,y,z NGXF=   108 NGYF=  108 NGZF=  360
   support grid    NGXF=   108 NGYF=  108 NGZF=  360
   ions per type =               2   1   1   6
   NGX,Y,Z   is equivalent  to a cutoff of  13.00, 13.00, 12.76 a.u.
   NGXF,Y,Z  is equivalent  to a cutoff of  25.99, 25.99, 25.53 a.u.

 SYSTEM =  unknown system                          
 POSCAR =  Cr2 Si P Te6                            

 Startparameter for this run:
   NWRITE =      2    write-flag & timer
   PREC   = accura    normal or accurate (medium, high low for compatibility)
   ISTART =      0    job   : 0-new  1-cont  2-samecut
   ICHARG =      2    charge: 1-file 2-atom 10-const
   ISPIN  =      2    spin polarized calculation?
   LNONCOLLINEAR =      F non collinear calculations
   LSORBIT =      F    spin-orbit coupling
   INIWAV =      1    electr: 0-lowe 1-rand  2-diag
   LASPH  =      F    aspherical Exc in radial PAW
   METAGGA=      F    non-selfconsistent MetaGGA calc.

 Electronic Relaxation 1
   ENCUT  =  520.0 eV  38.22 Ry    6.18 a.u.  12.84 12.84 43.59*2*pi/ulx,y,z
   ENINI  =  520.0     initial cutoff
   ENAUG  =  402.1 eV  augmentation charge cutoff
   NELM   =    400;   NELMIN=  2; NELMDL=  0     # of ELM steps 
   EDIFF  = 0.1E-03   stopping-criterion for ELM
   LREAL  =      T    real-space projection
   NLSPLINE    = F    spline interpolate recip. space projectors
   LCOMPAT=      F    compatible to vasp.4.4
   GGA_COMPAT  = T    GGA compatible to vasp.4.4-vasp.4.6
   LMAXPAW     = -100 max onsite density
   LMAXMIX     =    2 max onsite mixed and CHGCAR
   VOSKOWN=      0    Vosko Wilk Nusair interpolation
   ROPT   =   -0.00025  -0.00025  -0.00025  -0.00025
 Ionic relaxation
   EDIFFG = 0.1E-02   stopping-criterion for IOM
   NSW    =     99    number of steps for IOM
   NBLOCK =      1;   KBLOCK =     99    inner block; outer block 
   IBRION =      2    ionic relax: 0-MD 1-quasi-New 2-CG
   NFREE  =      1    steps in history (QN), initial steepest desc. (CG)
   ISIF   =      3    stress and relaxation
   IWAVPR =     11    prediction:  0-non 1-charg 2-wave 3-comb
   ISYM   =      2    0-nonsym 1-usesym 2-fastsym
   LCORR  =      T    Harris-Foulkes like correction to forces

   POTIM  = 0.5000    time-step for ionic-motion
   TEIN   =    0.0    initial temperature
   TEBEG  =    0.0;   TEEND  =   0.0 temperature during run
   SMASS  =  -3.00    Nose mass-parameter (am)
   estimated Nose-frequenzy (Omega)   =  0.10E-29 period in steps =****** mass=  -0.109E-26a.u.
   SCALEE = 1.0000    scale energy and forces
   NPACO  =    256;   APACO  = 16.0  distance and # of slots for P.C.
   PSTRESS=    0.0 pullay stress

  Mass of Ions in am
   POMASS =  52.00 28.09 30.97127.60
  Ionic Valenz
   ZVAL   =   6.00  4.00  5.00  6.00
  Atomic Wigner-Seitz radii
   RWIGS  =  -1.00 -1.00 -1.00 -1.00
  virtual crystal weights 
   VCA    =   1.00  1.00  1.00  1.00
   NELECT =      57.0000    total number of electrons
   NUPDOWN=      -1.0000    fix difference up-down

 DOS related values:
   EMIN   =  10.00;   EMAX   =-10.00  energy-range for DOS
   EFERMI =   0.00
   ISMEAR =    -5;   SIGMA  =   0.05  broadening in eV -4-tet -1-fermi 0-gaus

 Electronic relaxation 2 (details)
   IALGO  =     38    algorithm
   LDIAG  =      T    sub-space diagonalisation (order eigenvalues)
   LSUBROT=      F    optimize rotation matrix (better conditioning)
   TURBO    =      0    0=normal 1=particle mesh
   IRESTART =      0    0=no restart 2=restart with 2 vectors
   NREBOOT  =      0    no. of reboots
   NMIN     =      0    reboot dimension
   EREF     =   0.00    reference energy to select bands
   IMIX   =      4    mixing-type and parameters
     AMIX     =   0.40;   BMIX     =  1.00
     AMIX_MAG =   1.60;   BMIX_MAG =  1.00
     AMIN     =   0.01
     WC   =   100.;   INIMIX=   1;  MIXPRE=   1;  MAXMIX= -45

 Intra band minimization:
   WEIMIN = 0.0010     energy-eigenvalue tresh-hold
   EBREAK =  0.63E-06  absolut break condition
   DEPER  =   0.30     relativ break condition  

   TIME   =   0.40     timestep for ELM

  volume/ion in A,a.u.               =      96.88       653.80
  Fermi-wavevector in a.u.,A,eV,Ry     =   0.636722  1.203230  5.516004  0.405415
  Thomas-Fermi vector in A             =   1.701488

 Write flags
   LWAVE        =      F    write WAVECAR
   LDOWNSAMPLE  =      F    k-point downsampling of WAVECAR
   LCHARG       =      T    write CHGCAR
   LVTOT        =      F    write LOCPOT, total local potential
   LVHAR        =      F    write LOCPOT, Hartree potential only
   LELF         =      F    write electronic localiz. function (ELF)
   LORBIT       =     11    0 simple, 1 ext, 2 COOP (PROOUT), +10 PAW based schemes


 Dipole corrections
   LMONO  =      F    monopole corrections only (constant potential shift)
   LDIPOL =      F    correct potential (dipole corrections)
   IDIPOL =      0    1-x, 2-y, 3-z, 4-all directions 
   EPSILON=  1.0000000 bulk dielectric constant

 Exchange correlation treatment:
   GGA     =    BO    GGA type
   LEXCH   =    42    internal setting for exchange type
   VOSKOWN=      0    Vosko Wilk Nusair interpolation
   LHFCALC =     F    Hartree Fock is set to
   LHFONE  =     F    Hartree Fock one center treatment
   AEXX    =    0.0000 exact exchange contribution

 vdW DFT:
   LUSE_VDW   =     T    switch on vdW DFT
   Zab_VDW    =-.8491    correlation parameter
   PARAM1     =0.1833
   PARAM2     =0.2200
   PARAM3     =0.0000
   -- rVV10 --
   BPARAM     = 6.3000
   CPARAM     = 0.0093

 Linear response parameters
   LEPSILON=     F    determine dielectric tensor
   LRPA    =     F    only Hartree local field effects (RPA)
   LNABLA  =     F    use nabla operator in PAW spheres
   LVEL    =     F    velocity operator in full k-point grid
   LINTERFAST=   F  fast interpolation
   KINTER  =     0    interpolate to denser k-point grid
   CSHIFT  =0.1000    complex shift for real part using Kramers Kronig
   OMEGAMAX=  -1.0    maximum frequency
   DEG_THRESHOLD= 0.2000000E-02 threshold for treating states as degnerate
   RTIME   =   -0.100 relaxation time in fs
  (WPLASMAI=    0.000 imaginary part of plasma frequency in eV, 0.658/RTIME)
   DFIELD  = 0.0000000 0.0000000 0.0000000 field for delta impulse in time

 Orbital magnetization related:
   ORBITALMAG=     F  switch on orbital magnetization
   LCHIMAG   =     F  perturbation theory with respect to B field
   DQ        =  0.001000  dq finite difference perturbation B field
   LLRAUG    =     F  two centre corrections for induced B field



--------------------------------------------------------------------------------------------------------


 conjugate gradient relaxation of ions
 charge density and potential will be updated during run
 spin polarized calculation
 Variant of blocked Davidson
 Davidson routine will perform the subspace rotation
 perform sub-space diagonalisation
    after iterative eigenvector-optimisation
 modified Broyden-mixing scheme, WC =      100.0
 initial mixing is a Kerker type mixing with AMIX =  0.4000 and BMIX =      1.0000
 Hartree-type preconditioning will be used
 using additional bands           11
 real space projection scheme for non local part
 use partial core corrections
 calculate Harris-corrections to forces   (improved forces if not selfconsistent)
 use gradient corrections 
 use of overlap-Matrix (Vanderbilt PP)
 Fermi weights with tetrahedron method with Bloechl corrections


--------------------------------------------------------------------------------------------------------


  energy-cutoff  :      520.00
  volume of cell :      968.84
      direct lattice vectors                 reciprocal lattice vectors
     6.907777000 -0.000000000  0.000000000     0.144764372 -0.083579742  0.000000000
     3.453888000  5.982310000  0.000000000     0.000000000  0.167159509 -0.000000000
     0.000000000  0.000000000 23.444588000    -0.000000000  0.000000000  0.042653767

  length of vectors
     6.907777000  6.907776433 23.444588000     0.167159495  0.167159509  0.042653767



 k-points in units of 2pi/SCALE and weight: Kpoints from vasprun.xml                
   0.00000000  0.00000000  0.00000000       0.040
   0.02895287 -0.01671595  0.00000000       0.240
   0.05790575 -0.03343190  0.00000000       0.240
   0.05790575  0.00000000  0.00000000       0.240
  -0.05790575  0.06686380  0.00000000       0.240

 k-points in reciprocal lattice and weights: Kpoints from vasprun.xml                
   0.00000000  0.00000000  0.00000000       0.040
   0.20000000  0.00000000  0.00000000       0.240
   0.40000000  0.00000000  0.00000000       0.240
   0.40000000  0.20000000  0.00000000       0.240
  -0.40000000  0.20000000  0.00000000       0.240

 position of ions in fractional coordinates (direct lattice) 
   0.33333300  0.33333300  0.49992500
   0.66666700  0.66666700  0.50007500
   0.00000000  0.00000000  0.44821600
   0.00000000  0.00000000  0.55178400
   0.62635700  0.00042000  0.57375200
   0.00042000  0.37322400  0.57375200
   0.37322400  0.62635700  0.57375200
   0.37364300  0.99958000  0.42624800
   0.99958000  0.62677600  0.42624800
   0.62677600  0.37364300  0.42624800

 position of ions in cartesian coordinates  (Angst):
   3.45388488  1.99410134 11.72053566
   6.90778012  3.98820866 11.72405234
   0.00000000  0.00000000 10.50823946
   0.00000000  0.00000000 12.93634854
   4.32818511  0.00251257 13.45137925
   1.29197516  2.23274167 13.45137925
   4.74151509  3.74706174 13.45137925
   6.03347989  5.97979743  9.99320875
   9.06968984  3.74956833  9.99320875
   5.62014991  2.23524826  9.99320875



--------------------------------------------------------------------------------------------------------


 k-point  1 :   0.0000 0.0000 0.0000  plane waves:   26073
 k-point  2 :   0.2000 0.0000 0.0000  plane waves:   26070
 k-point  3 :   0.4000 0.0000 0.0000  plane waves:   26086
 k-point  4 :   0.4000 0.2000 0.0000  plane waves:   26085
 k-point  5 :  -0.4000 0.2000 0.0000  plane waves:   26115

 maximum and minimum number of plane-waves per node :     26115    26070

 maximum number of plane-waves:     26115
 maximum index in each direction: 
   IXMAX=   13   IYMAX=   12   IZMAX=   43
   IXMIN=  -13   IYMIN=  -13   IZMIN=  -43


 serial   3D FFT for wavefunctions
 parallel 3D FFT for charge:
    minimum data exchange during FFTs selected (reduces bandwidth)


 total amount of memory used by VASP MPI-rank0   174126. kBytes
=======================================================================

   base      :      30000. kBytes
   nonlr-proj:       7947. kBytes
   fftplans  :      20284. kBytes
   grid      :      94580. kBytes
   one-center:        311. kBytes
   wavefun   :      21004. kBytes

     INWAV:  cpu time    0.0000: real time    0.0004
 Broyden mixing: mesh for mixing (old mesh)
   NGX = 25   NGY = 25   NGZ = 87
  (NGX  =108   NGY  =108   NGZ  =360)
  gives a total of  54375 points

 initial charge density was supplied:
 charge density of overlapping atoms calculated
 number of electron      57.0000000 magnetization       6.0000000
 keeping initial charge density in first step


--------------------------------------------------------------------------------------------------------


 Maximum index for non-local projection operator         7247
 Maximum index for augmentation-charges         4376 (set IRDMAX)


--------------------------------------------------------------------------------------------------------


 First call to EWALD:  gamma=   0.179
 Maximum number of real-space cells 4x 4x 1
 Maximum number of reciprocal cells 2x 2x 6

    FEWALD:  cpu time    0.0040: real time    0.0019


--------------------------------------- Iteration      1(   1)  ---------------------------------------


vdW kernel read from vdw_kernel.bindat
  0.0000  0.2424  0.5071  0.7962  1.1119  1.4567  1.8333  2.2446  2.6937  3.1842
  3.7199  4.3049  4.9438  5.6415  6.4036  7.2358  8.1446  9.1372 10.2212 11.4050
 12.6979 14.1099 15.6519 17.3360 19.1751 21.1837 23.3773 25.7729 28.3892 31.2465
 34.3669 37.7748 41.4965 45.5611 50.0000

    POTLOK:  cpu time  108.6200: real time  110.2153
    SETDIJ:  cpu time    0.1160: real time    0.1162
     EDDAV:  cpu time   20.6120: real time   20.7188
 BZINTS: Fermi energy:  6.983524; 57.000000 electrons
         Band energy:  65.343651;  BLOECHL correction: -0.077597
       DOS:  cpu time    0.0040: real time    0.0040
    --------------------------------------------
      LOOP:  cpu time  129.3520: real time  131.0543

 eigenvalue-minimisations  :   800
 total energy-change (2. order) : 0.4157566E+03  (-0.1589794E+04)
 number of electron      57.0000000 magnetization       6.0000000
 augmentation part       57.0000000 magnetization       6.0000000

 Free energy of the ion-electron system (eV)
  ---------------------------------------------------
  alpha Z        PSCENC =        11.30429057
  Ewald energy   TEWEN  =      6221.61188061
  -Hartree energ DENC   =     -8152.80360223
  -exchange      EXHF   =         0.00000000
  -V(xc)+E(xc)   XCENC  =      -221.91030863
  PAW double counting   =      1161.84558979     -852.50240820
  entropy T*S    EENTRO =         0.00000000
  eigenvalues    EBANDS =        65.34365149
  atomic energy  EATOM  =      2182.86754148
  Solvation  Ediel_sol  =         0.00000000
  ---------------------------------------------------
  free energy    TOTEN  =       415.75663488 eV

  energy without entropy =      415.75663488  energy(sigma->0) =      415.75663488


--------------------------------------------------------------------------------------------------------




--------------------------------------- Iteration      1(   2)  ---------------------------------------


     EDDAV:  cpu time   26.6200: real time   27.0871
 BZINTS: Fermi energy:  0.291790; 57.000000 electrons
         Band energy:-327.751658;  BLOECHL correction: -0.090045
       DOS:  cpu time    0.0040: real time    0.0044
    --------------------------------------------
      LOOP:  cpu time   26.6240: real time   27.0916

 eigenvalue-minimisations  :  1056
 total energy-change (2. order) :-0.3930953E+03  (-0.3738060E+03)
 number of electron      57.0000000 magnetization       6.0000000
 augmentation part       57.0000000 magnetization       6.0000000

 Free energy of the ion-electron system (eV)
  ---------------------------------------------------
  alpha Z        PSCENC =        11.30429057
  Ewald energy   TEWEN  =      6221.61188061
  -Hartree energ DENC   =     -8152.80360223
  -exchange      EXHF   =         0.00000000
  -V(xc)+E(xc)   XCENC  =      -221.91030863
  PAW double counting   =      1161.84558979     -852.50240820
  entropy T*S    EENTRO =         0.00000000
  eigenvalues    EBANDS =      -327.75165825
  atomic energy  EATOM  =      2182.86754148
  Solvation  Ediel_sol  =         0.00000000
  ---------------------------------------------------
  free energy    TOTEN  =        22.66132514 eV

  energy without entropy =       22.66132514  energy(sigma->0) =       22.66132514


--------------------------------------------------------------------------------------------------------




--------------------------------------- Iteration      1(   3)  ---------------------------------------


     EDDAV:  cpu time   43.1480: real time   44.1688
 BZINTS: Fermi energy: -1.399744; 57.000000 electrons
         Band energy:-391.453025;  BLOECHL correction: -0.033770
       DOS:  cpu time    0.0040: real time    0.0042
    --------------------------------------------
      LOOP:  cpu time   43.1520: real time   44.1730

 eigenvalue-minimisations  :  1056
 total energy-change (2. order) :-0.6370137E+02  (-0.6156115E+02)
 number of electron      57.0000000 magnetization       6.0000000
 augmentation part       57.0000000 magnetization       6.0000000

 Free energy of the ion-electron system (eV)
  ---------------------------------------------------
  alpha Z        PSCENC =        11.30429057
  Ewald energy   TEWEN  =      6221.61188061
  -Hartree energ DENC   =     -8152.80360223
  -exchange      EXHF   =         0.00000000
  -V(xc)+E(xc)   XCENC  =      -221.91030863
  PAW double counting   =      1161.84558979     -852.50240820
  entropy T*S    EENTRO =         0.00000000
  eigenvalues    EBANDS =      -391.45302488
  atomic energy  EATOM  =      2182.86754148
  Solvation  Ediel_sol  =         0.00000000
  ---------------------------------------------------
  free energy    TOTEN  =       -41.04004148 eV

  energy without entropy =      -41.04004148  energy(sigma->0) =      -41.04004148


--------------------------------------------------------------------------------------------------------




--------------------------------------- Iteration      1(   4)  ---------------------------------------


     EDDAV:  cpu time   35.5880: real time   36.1451
 BZINTS: Fermi energy: -1.657564; 57.000000 electrons
         Band energy:-395.688955;  BLOECHL correction: -0.019540
       DOS:  cpu time    0.0040: real time    0.0038
    --------------------------------------------
      LOOP:  cpu time   35.5920: real time   36.1489

 eigenvalue-minimisations  :  1216
 total energy-change (2. order) :-0.4235930E+01  (-0.4132868E+01)
 number of electron      57.0000000 magnetization       6.0000000
 augmentation part       57.0000000 magnetization       6.0000000

 Free energy of the ion-electron system (eV)
  ---------------------------------------------------
  alpha Z        PSCENC =        11.30429057
  Ewald energy   TEWEN  =      6221.61188061
  -Hartree energ DENC   =     -8152.80360223
  -exchange      EXHF   =         0.00000000
  -V(xc)+E(xc)   XCENC  =      -221.91030863
  PAW double counting   =      1161.84558979     -852.50240820
  entropy T*S    EENTRO =         0.00000000
  eigenvalues    EBANDS =      -395.68895526
  atomic energy  EATOM  =      2182.86754148
  Solvation  Ediel_sol  =         0.00000000
  ---------------------------------------------------
  free energy    TOTEN  =       -45.27597187 eV

  energy without entropy =      -45.27597187  energy(sigma->0) =      -45.27597187


--------------------------------------------------------------------------------------------------------




--------------------------------------- Iteration      1(   5)  ---------------------------------------


     EDDAV:  cpu time   29.1320: real time   29.4570
 BZINTS: Fermi energy: -1.668294; 57.000000 electrons
         Band energy:-395.830935;  BLOECHL correction: -0.019068
       DOS:  cpu time    0.0040: real time    0.0042
    CHARGE:  cpu time    2.0920: real time    2.0905
    MIXING:  cpu time    0.0480: real time    0.0503
    --------------------------------------------
      LOOP:  cpu time   31.2760: real time   31.6020

 eigenvalue-minimisations  :  1224
 total energy-change (2. order) :-0.1419794E+00  (-0.1407151E+00)
 number of electron      57.0000000 magnetization       5.9305324
 augmentation part       -4.4661766 magnetization       3.6082690

 Broyden mixing:
  rms(total) = 0.12572E+01    rms(broyden)= 0.12571E+01
  rms(prec ) = 0.13793E+01
  weight for this iteration     100.00

 Free energy of the ion-electron system (eV)
  ---------------------------------------------------
  alpha Z        PSCENC =        11.30429057
  Ewald energy   TEWEN  =      6221.61188061
  -Hartree energ DENC   =     -8152.80360223
  -exchange      EXHF   =         0.00000000
  -V(xc)+E(xc)   XCENC  =      -221.91030863
  PAW double counting   =      1161.84558979     -852.50240820
  entropy T*S    EENTRO =         0.00000000
  eigenvalues    EBANDS =      -395.83093463
  atomic energy  EATOM  =      2182.86754148
  Solvation  Ediel_sol  =         0.00000000
  ---------------------------------------------------
  free energy    TOTEN  =       -45.41795123 eV

  energy without entropy =      -45.41795123  energy(sigma->0) =      -45.41795123


--------------------------------------------------------------------------------------------------------




--------------------------------------- Iteration      1(   6)  ---------------------------------------


    POTLOK:  cpu time  105.3360: real time  106.4804
    SETDIJ:  cpu time    0.1000: real time    0.1009
     EDDAV:  cpu time   28.1000: real time   28.3441
 BZINTS: Fermi energy: -3.664395; 57.000000 electrons
         Band energy:-437.559931;  BLOECHL correction: -0.027604
       DOS:  cpu time    0.0040: real time    0.0053
    CHARGE:  cpu time    2.0800: real time    2.0877
    MIXING:  cpu time    0.0520: real time    0.0523
    --------------------------------------------
      LOOP:  cpu time  135.6720: real time  137.0708

 eigenvalue-minimisations  :  1176
 total energy-change (2. order) :-0.1069935E+02  (-0.7022415E+01)
 number of electron      56.9999998 magnetization       5.8489117
 augmentation part        3.9381900 magnetization       4.3872575

 Broyden mixing:
  rms(total) = 0.38918E+01    rms(broyden)= 0.38918E+01
  rms(prec ) = 0.43821E+01
  weight for this iteration     100.00

 eigenvalues of (default mixing * dielectric matrix)
  average eigenvalue GAMMA=   0.2237
  0.2237

 Free energy of the ion-electron system (eV)
  ---------------------------------------------------
  alpha Z        PSCENC =        11.30429057
  Ewald energy   TEWEN  =      6221.61188061
  -Hartree energ DENC   =     -8126.66265884
  -exchange      EXHF   =         0.00000000
  -V(xc)+E(xc)   XCENC  =      -221.26266439
  PAW double counting   =      1138.13669821     -824.55245594
  entropy T*S    EENTRO =         0.00000000
  eigenvalues    EBANDS =      -437.55993110
  atomic energy  EATOM  =      2182.86754148
  Solvation  Ediel_sol  =         0.00000000
  ---------------------------------------------------
  free energy    TOTEN  =       -56.11729939 eV

  energy without entropy =      -56.11729939  energy(sigma->0) =      -56.11729939


--------------------------------------------------------------------------------------------------------




--------------------------------------- Iteration      1(   7)  ---------------------------------------


    POTLOK:  cpu time  102.8240: real time  103.4068
    SETDIJ:  cpu time    0.0640: real time    0.0612
     EDDAV:  cpu time   28.0400: real time   28.4906
 BZINTS: Fermi energy: -1.753353; 57.000000 electrons
         Band energy:-392.453332;  BLOECHL correction: -0.024285
       DOS:  cpu time    0.0040: real time    0.0052
    CHARGE:  cpu time    2.0840: real time    2.0925
    MIXING:  cpu time    0.0480: real time    0.0487
    --------------------------------------------
      LOOP:  cpu time  133.0640: real time  134.1051

 eigenvalue-minimisations  :  1192
 total energy-change (2. order) : 0.1323288E+02  (-0.7406856E+01)
 number of electron      57.0000000 magnetization       5.8131393
 augmentation part       -3.1899738 magnetization       3.8280574

 Broyden mixing:
  rms(total) = 0.77103E+00    rms(broyden)= 0.77097E+00
  rms(prec ) = 0.80333E+00
  weight for this iteration     100.00

 eigenvalues of (default mixing * dielectric matrix)
  average eigenvalue GAMMA=   0.3234
  0.4696  0.1771

 Free energy of the ion-electron system (eV)
  ---------------------------------------------------
  alpha Z        PSCENC =        11.30429057
  Ewald energy   TEWEN  =      6221.61188061
  -Hartree energ DENC   =     -8153.29412291
  -exchange      EXHF   =         0.00000000
  -V(xc)+E(xc)   XCENC  =      -221.89158086
  PAW double counting   =      1191.70719196     -882.73629320
  entropy T*S    EENTRO =         0.00000000
  eigenvalues    EBANDS =      -392.45333193
  atomic energy  EATOM  =      2182.86754148
  Solvation  Ediel_sol  =         0.00000000
  ---------------------------------------------------
  free energy    TOTEN  =       -42.88442428 eV

  energy without entropy =      -42.88442428  energy(sigma->0) =      -42.88442428


--------------------------------------------------------------------------------------------------------




--------------------------------------- Iteration      1(   8)  ---------------------------------------


    POTLOK:  cpu time  102.5040: real time  103.4322
    SETDIJ:  cpu time    0.0680: real time    0.0650
     EDDAV:  cpu time   24.4480: real time   24.6879
 BZINTS: Fermi energy: -1.767752; 57.000000 electrons
         Band energy:-393.377487;  BLOECHL correction: -0.023735
       DOS:  cpu time    0.0040: real time    0.0049
    CHARGE:  cpu time    1.9680: real time    2.0631
    MIXING:  cpu time    0.0480: real time    0.0478
    --------------------------------------------
      LOOP:  cpu time  129.0400: real time  130.3008

 eigenvalue-minimisations  :   984
 total energy-change (2. order) :-0.9979360E+00  (-0.7432496E+00)
 number of electron      57.0000000 magnetization       5.6926351
 augmentation part       -3.5392330 magnetization       3.7004763

 Broyden mixing:
  rms(total) = 0.65181E+00    rms(broyden)= 0.65181E+00
  rms(prec ) = 0.70722E+00
  weight for this iteration     100.00

 eigenvalues of (default mixing * dielectric matrix)
  average eigenvalue GAMMA=   0.6265
  1.1406  0.2125  0.5264

 Free energy of the ion-electron system (eV)
  ---------------------------------------------------
  alpha Z        PSCENC =        11.30429057
  Ewald energy   TEWEN  =      6221.61188061
  -Hartree energ DENC   =     -8153.63114566
  -exchange      EXHF   =         0.00000000
  -V(xc)+E(xc)   XCENC  =      -221.31472037
  PAW double counting   =      1199.92636015     -891.26907975
  entropy T*S    EENTRO =         0.00000000
  eigenvalues    EBANDS =      -393.37748735
  atomic energy  EATOM  =      2182.86754148
  Solvation  Ediel_sol  =         0.00000000
  ---------------------------------------------------
  free energy    TOTEN  =       -43.88236031 eV

  energy without entropy =      -43.88236031  energy(sigma->0) =      -43.88236031


--------------------------------------------------------------------------------------------------------




--------------------------------------- Iteration      1(   9)  ---------------------------------------


    POTLOK:  cpu time  103.0600: real time  104.3030
    SETDIJ:  cpu time    0.0600: real time    0.0606
     EDDAV:  cpu time   29.4440: real time   29.6332
 BZINTS: Fermi energy: -1.799679; 57.000000 electrons
         Band energy:-391.204376;  BLOECHL correction: -0.024182
       DOS:  cpu time    0.0040: real time    0.0053
    CHARGE:  cpu time    2.0600: real time    2.0612
    MIXING:  cpu time    0.0520: real time    0.0496
    --------------------------------------------
      LOOP:  cpu time  134.6800: real time  136.1130

 eigenvalue-minimisations  :  1248
 total energy-change (2. order) : 0.3971853E+00  (-0.1212428E+00)
 number of electron      57.0000000 magnetization       5.6282286
 augmentation part       -2.9315118 magnetization       3.9714950

 Broyden mixing:
  rms(total) = 0.33027E+00    rms(broyden)= 0.33027E+00
  rms(prec ) = 0.34208E+00
  weight for this iteration     100.00

 eigenvalues of (default mixing * dielectric matrix)
  average eigenvalue GAMMA=   0.8922
  1.9810  0.9694  0.2100  0.4085

 Free energy of the ion-electron system (eV)
  ---------------------------------------------------
  alpha Z        PSCENC =        11.30429057
  Ewald energy   TEWEN  =      6221.61188061
  -Hartree energ DENC   =     -8155.89956347
  -exchange      EXHF   =         0.00000000
  -V(xc)+E(xc)   XCENC  =      -220.49936497
  PAW double counting   =      1220.33663210     -912.00221514
  entropy T*S    EENTRO =         0.00000000
  eigenvalues    EBANDS =      -391.20437622
  atomic energy  EATOM  =      2182.86754148
  Solvation  Ediel_sol  =         0.00000000
  ---------------------------------------------------
  free energy    TOTEN  =       -43.48517504 eV

  energy without entropy =      -43.48517504  energy(sigma->0) =      -43.48517504


--------------------------------------------------------------------------------------------------------




--------------------------------------- Iteration      1(  10)  ---------------------------------------


    POTLOK:  cpu time  104.9400: real time  105.8209
    SETDIJ:  cpu time    0.0600: real time    0.0600
     EDDAV:  cpu time   29.6440: real time   29.9063
 BZINTS: Fermi energy: -1.788280; 57.000000 electrons
         Band energy:-389.500731;  BLOECHL correction: -0.029404
       DOS:  cpu time    0.0040: real time    0.0054
    CHARGE:  cpu time    2.0520: real time    2.0703
    MIXING:  cpu time    0.0520: real time    0.0520
    --------------------------------------------
      LOOP:  cpu time  136.7520: real time  137.9148

 eigenvalue-minimisations  :  1248
 total energy-change (2. order) :-0.3964168E-01  (-0.2950397E-01)
 number of electron      57.0000000 magnetization       5.6075199
 augmentation part       -2.6130882 magnetization       4.1457727

 Broyden mixing:
  rms(total) = 0.17406E+00    rms(broyden)= 0.17406E+00
  rms(prec ) = 0.17534E+00
  weight for this iteration     100.00

 eigenvalues of (default mixing * dielectric matrix)
  average eigenvalue GAMMA=   1.0177
  1.8693  1.8693  0.2102  0.6778  0.4621

 Free energy of the ion-electron system (eV)
  ---------------------------------------------------
  alpha Z        PSCENC =        11.30429057
  Ewald energy   TEWEN  =      6221.61188061
  -Hartree energ DENC   =     -8158.14698321
  -exchange      EXHF   =         0.00000000
  -V(xc)+E(xc)   XCENC  =      -219.70718020
  PAW double counting   =      1225.51007195     -917.46370646
  entropy T*S    EENTRO =         0.00000000
  eigenvalues    EBANDS =      -389.50073146
  atomic energy  EATOM  =      2182.86754148
  Solvation  Ediel_sol  =         0.00000000
  ---------------------------------------------------
  free energy    TOTEN  =       -43.52481671 eV

  energy without entropy =      -43.52481671  energy(sigma->0) =      -43.52481671


--------------------------------------------------------------------------------------------------------




--------------------------------------- Iteration      1(  11)  ---------------------------------------


    POTLOK:  cpu time  103.7160: real time  104.3194
    SETDIJ:  cpu time    0.0600: real time    0.0606
     EDDAV:  cpu time   30.0160: real time   30.1503
 BZINTS: Fermi energy: -1.775740; 57.000000 electrons
         Band energy:-388.849415;  BLOECHL correction: -0.030876
       DOS:  cpu time    0.0040: real time    0.0038
    CHARGE:  cpu time    2.0040: real time    2.0339
    MIXING:  cpu time    0.0800: real time    0.0815
    --------------------------------------------
      LOOP:  cpu time  135.8800: real time  136.6497

 eigenvalue-minimisations  :  1280
 total energy-change (2. order) :-0.3111557E-01  (-0.2993785E-02)
 number of electron      57.0000000 magnetization       5.5949977
 augmentation part       -2.6123485 magnetization       4.2033774

 Broyden mixing:
  rms(total) = 0.91076E-01    rms(broyden)= 0.91076E-01
  rms(prec ) = 0.92687E-01
  weight for this iteration     100.00

 eigenvalues of (default mixing * dielectric matrix)
  average eigenvalue GAMMA=   1.0666
  2.0836  2.0836  0.2102  0.4433  0.7893  0.7893

 Free energy of the ion-electron system (eV)
  ---------------------------------------------------
  alpha Z        PSCENC =        11.30429057
  Ewald energy   TEWEN  =      6221.61188061
  -Hartree energ DENC   =     -8159.15723835
  -exchange      EXHF   =         0.00000000
  -V(xc)+E(xc)   XCENC  =      -219.25780967
  PAW double counting   =      1223.21859446     -915.29377675
  entropy T*S    EENTRO =         0.00000000
  eigenvalues    EBANDS =      -388.84941463
  atomic energy  EATOM  =      2182.86754148
  Solvation  Ediel_sol  =         0.00000000
  ---------------------------------------------------
  free energy    TOTEN  =       -43.55593228 eV

  energy without entropy =      -43.55593228  energy(sigma->0) =      -43.55593228


--------------------------------------------------------------------------------------------------------




--------------------------------------- Iteration      1(  12)  ---------------------------------------


    POTLOK:  cpu time  103.8280: real time  104.3727
    SETDIJ:  cpu time    0.0640: real time    0.0637
     EDDAV:  cpu time   30.4720: real time   30.6831
 BZINTS: Fermi energy: -1.771526; 57.000000 electrons
         Band energy:-388.694502;  BLOECHL correction: -0.031050
       DOS:  cpu time    0.0040: real time    0.0055
    CHARGE:  cpu time    2.0240: real time    2.0501
    MIXING:  cpu time    0.0520: real time    0.0536
    --------------------------------------------
      LOOP:  cpu time  136.4440: real time  137.2286

 eigenvalue-minimisations  :  1288
 total energy-change (2. order) :-0.3426041E-02  (-0.1515059E-02)
 number of electron      57.0000000 magnetization       5.5878847
 augmentation part       -2.6219425 magnetization       4.2220969

 Broyden mixing:
  rms(total) = 0.59392E-01    rms(broyden)= 0.59391E-01
  rms(prec ) = 0.63425E-01
  weight for this iteration     100.00

 eigenvalues of (default mixing * dielectric matrix)
  average eigenvalue GAMMA=   1.0225
  2.1575  2.1575  1.1195  0.7393  0.2102  0.4440  0.3296

 Free energy of the ion-electron system (eV)
  ---------------------------------------------------
  alpha Z        PSCENC =        11.30429057
  Ewald energy   TEWEN  =      6221.61188061
  -Hartree energ DENC   =     -8159.44983457
  -exchange      EXHF   =         0.00000000
  -V(xc)+E(xc)   XCENC  =      -219.04183214
  PAW double counting   =      1222.45855863     -914.61546129
  entropy T*S    EENTRO =         0.00000000
  eigenvalues    EBANDS =      -388.69450161
  atomic energy  EATOM  =      2182.86754148
  Solvation  Ediel_sol  =         0.00000000
  ---------------------------------------------------
  free energy    TOTEN  =       -43.55935832 eV

  energy without entropy =      -43.55935832  energy(sigma->0) =      -43.55935832


--------------------------------------------------------------------------------------------------------




--------------------------------------- Iteration      1(  13)  ---------------------------------------


    POTLOK:  cpu time  102.1320: real time  102.6435
    SETDIJ:  cpu time    0.0720: real time    0.0719
     EDDAV:  cpu time   31.3320: real time   31.5471
 BZINTS: Fermi energy: -1.770002; 57.000000 electrons
         Band energy:-388.681542;  BLOECHL correction: -0.031088
       DOS:  cpu time    0.0040: real time    0.0045
    CHARGE:  cpu time    2.0960: real time    2.0982
    MIXING:  cpu time    0.0640: real time    0.0659
    --------------------------------------------
      LOOP:  cpu time  135.7000: real time  136.4312

 eigenvalue-minimisations  :  1344
 total energy-change (2. order) : 0.1711849E-02  (-0.7899330E-03)
 number of electron      57.0000000 magnetization       5.5769360
 augmentation part       -2.6289188 magnetization       4.2205550

 Broyden mixing:
  rms(total) = 0.28497E-01    rms(broyden)= 0.28497E-01
  rms(prec ) = 0.30104E-01
  weight for this iteration     100.00

 eigenvalues of (default mixing * dielectric matrix)
  average eigenvalue GAMMA=   1.0888
  2.1878  2.1878  1.8541  0.8634  0.6734  0.2102  0.4475  0.2865

 Free energy of the ion-electron system (eV)
  ---------------------------------------------------
  alpha Z        PSCENC =        11.30429057
  Ewald energy   TEWEN  =      6221.61188061
  -Hartree energ DENC   =     -8159.52213171
  -exchange      EXHF   =         0.00000000
  -V(xc)+E(xc)   XCENC  =      -218.95054240
  PAW double counting   =      1222.10666482     -914.29380828
  entropy T*S    EENTRO =         0.00000000
  eigenvalues    EBANDS =      -388.68154157
  atomic energy  EATOM  =      2182.86754148
  Solvation  Ediel_sol  =         0.00000000
  ---------------------------------------------------
  free energy    TOTEN  =       -43.55764647 eV

  energy without entropy =      -43.55764647  energy(sigma->0) =      -43.55764647


--------------------------------------------------------------------------------------------------------




--------------------------------------- Iteration      1(  14)  ---------------------------------------


    POTLOK:  cpu time  101.2600: real time  102.0000
    SETDIJ:  cpu time    0.0720: real time    0.0709
     EDDAV:  cpu time   26.1520: real time   26.2874
 BZINTS: Fermi energy: -1.769453; 57.000000 electrons
         Band energy:-388.748435;  BLOECHL correction: -0.031184
       DOS:  cpu time    0.0040: real time    0.0052
    CHARGE:  cpu time    2.0440: real time    2.0784
    MIXING:  cpu time    0.0560: real time    0.0551
    --------------------------------------------
      LOOP:  cpu time  129.5880: real time  130.4969

 eigenvalue-minimisations  :  1072
 total energy-change (2. order) :-0.2823239E-02  (-0.4136905E-03)
 number of electron      57.0000000 magnetization       5.5671324
 augmentation part       -2.6410623 magnetization       4.2152760

 Broyden mixing:
  rms(total) = 0.14593E-01    rms(broyden)= 0.14593E-01
  rms(prec ) = 0.15902E-01
  weight for this iteration     100.00

 eigenvalues of (default mixing * dielectric matrix)
  average eigenvalue GAMMA=   1.1425
  2.3247  2.3247  2.2253  1.0337  0.7291  0.7006  0.2102  0.4464  0.2874

 Free energy of the ion-electron system (eV)
  ---------------------------------------------------
  alpha Z        PSCENC =        11.30429057
  Ewald energy   TEWEN  =      6221.61188061
  -Hartree energ DENC   =     -8159.51540802
  -exchange      EXHF   =         0.00000000
  -V(xc)+E(xc)   XCENC  =      -218.88717470
  PAW double counting   =      1221.58017310     -913.77333788
  entropy T*S    EENTRO =         0.00000000
  eigenvalues    EBANDS =      -388.74843488
  atomic energy  EATOM  =      2182.86754148
  Solvation  Ediel_sol  =         0.00000000
  ---------------------------------------------------
  free energy    TOTEN  =       -43.56046971 eV

  energy without entropy =      -43.56046971  energy(sigma->0) =      -43.56046971


--------------------------------------------------------------------------------------------------------




--------------------------------------- Iteration      1(  15)  ---------------------------------------


    POTLOK:  cpu time  101.5480: real time  102.3107
    SETDIJ:  cpu time    0.0640: real time    0.0609
     EDDAV:  cpu time   26.5880: real time   26.7222
 BZINTS: Fermi energy: -1.764687; 57.000000 electrons
         Band energy:-388.504902;  BLOECHL correction: -0.031354
       DOS:  cpu time    0.0040: real time    0.0049
    CHARGE:  cpu time    2.0120: real time    2.0770
    MIXING:  cpu time    0.0560: real time    0.0536
    --------------------------------------------
      LOOP:  cpu time  130.2720: real time  131.2294

 eigenvalue-minimisations  :  1104
 total energy-change (2. order) :-0.1250931E-02  (-0.1114056E-03)
 number of electron      57.0000000 magnetization       5.5619592
 augmentation part       -2.6410617 magnetization       4.2165450

 Broyden mixing:
  rms(total) = 0.39350E-02    rms(broyden)= 0.39350E-02
  rms(prec ) = 0.68079E-02
  weight for this iteration     100.00

 eigenvalues of (default mixing * dielectric matrix)
  average eigenvalue GAMMA=   1.1444
  2.6126  2.2385  2.2385  1.0176  1.0176  0.2102  0.4467  0.7122  0.6633  0.2871

 Free energy of the ion-electron system (eV)
  ---------------------------------------------------
  alpha Z        PSCENC =        11.30429057
  Ewald energy   TEWEN  =      6221.61188061
  -Hartree energ DENC   =     -8159.80051482
  -exchange      EXHF   =         0.00000000
  -V(xc)+E(xc)   XCENC  =      -218.81935538
  PAW double counting   =      1221.40672288     -913.62738381
  entropy T*S    EENTRO =         0.00000000
  eigenvalues    EBANDS =      -388.50490218
  atomic energy  EATOM  =      2182.86754148
  Solvation  Ediel_sol  =         0.00000000
  ---------------------------------------------------
  free energy    TOTEN  =       -43.56172064 eV

  energy without entropy =      -43.56172064  energy(sigma->0) =      -43.56172064


--------------------------------------------------------------------------------------------------------




--------------------------------------- Iteration      1(  16)  ---------------------------------------


    POTLOK:  cpu time  100.7720: real time  101.7156
    SETDIJ:  cpu time    0.0680: real time    0.0708
     EDDAV:  cpu time   19.3920: real time   19.5922
 BZINTS: Fermi energy: -1.760008; 57.000000 electrons
         Band energy:-388.225901;  BLOECHL correction: -0.031414
       DOS:  cpu time    0.0040: real time    0.0054
    CHARGE:  cpu time    2.0520: real time    2.0563
    MIXING:  cpu time    0.0680: real time    0.0696
    --------------------------------------------
      LOOP:  cpu time  122.3560: real time  123.5098

 eigenvalue-minimisations  :   728
 total energy-change (2. order) :-0.1385613E-03  (-0.1591887E-04)
 number of electron      57.0000000 magnetization       5.5532018
 augmentation part       -2.6400618 magnetization       4.2097568

 Broyden mixing:
  rms(total) = 0.36261E-02    rms(broyden)= 0.36261E-02
  rms(prec ) = 0.63791E-02
  weight for this iteration     100.00

 eigenvalues of (default mixing * dielectric matrix)
  average eigenvalue GAMMA=   1.2132
  2.7915  2.7915  1.8340  1.8340  0.8973  0.8973  0.2102  0.4467  0.7086  0.6470
  0.2870

 Free energy of the ion-electron system (eV)
  ---------------------------------------------------
  alpha Z        PSCENC =        11.30429057
  Ewald energy   TEWEN  =      6221.61188061
  -Hartree energ DENC   =     -8160.08885815
  -exchange      EXHF   =         0.00000000
  -V(xc)+E(xc)   XCENC  =      -218.80342243
  PAW double counting   =      1221.49500387     -913.72239413
  entropy T*S    EENTRO =         0.00000000
  eigenvalues    EBANDS =      -388.22590102
  atomic energy  EATOM  =      2182.86754148
  Solvation  Ediel_sol  =         0.00000000
  ---------------------------------------------------
  free energy    TOTEN  =       -43.56185920 eV

  energy without entropy =      -43.56185920  energy(sigma->0) =      -43.56185920


--------------------------------------------------------------------------------------------------------




--------------------------------------- Iteration      1(  17)  ---------------------------------------


    POTLOK:  cpu time  100.8680: real time  101.8292
    SETDIJ:  cpu time    0.0600: real time    0.0597
     EDDAV:  cpu time   18.0800: real time   18.3687
 BZINTS: Fermi energy: -1.749729; 57.000000 electrons
         Band energy:-387.603879;  BLOECHL correction: -0.031452
       DOS:  cpu time    0.0040: real time    0.0050
    CHARGE:  cpu time    2.0240: real time    2.1024
    MIXING:  cpu time    0.0600: real time    0.0590
    --------------------------------------------
      LOOP:  cpu time  121.0960: real time  122.4240

 eigenvalue-minimisations  :   664
 total energy-change (2. order) : 0.5374626E-03  (-0.2392620E-04)
 number of electron      57.0000000 magnetization       5.5464604
 augmentation part       -2.6380063 magnetization       4.2026516

 Broyden mixing:
  rms(total) = 0.28383E-02    rms(broyden)= 0.28383E-02
  rms(prec ) = 0.54942E-02
  weight for this iteration     100.00

 eigenvalues of (default mixing * dielectric matrix)
  average eigenvalue GAMMA=   1.2505
  3.0313  2.9007  1.9935  1.9935  1.0208  1.0208  0.2102  0.4467  0.7879  0.6769
  0.6370  0.2871

 Free energy of the ion-electron system (eV)
  ---------------------------------------------------
  alpha Z        PSCENC =        11.30429057
  Ewald energy   TEWEN  =      6221.61188061
  -Hartree energ DENC   =     -8160.70635081
  -exchange      EXHF   =         0.00000000
  -V(xc)+E(xc)   XCENC  =      -218.80264133
  PAW double counting   =      1221.62563768     -913.85780115
  entropy T*S    EENTRO =         0.00000000
  eigenvalues    EBANDS =      -387.60387879
  atomic energy  EATOM  =      2182.86754148
  Solvation  Ediel_sol  =         0.00000000
  ---------------------------------------------------
  free energy    TOTEN  =       -43.56132174 eV

  energy without entropy =      -43.56132174  energy(sigma->0) =      -43.56132174


--------------------------------------------------------------------------------------------------------




--------------------------------------- Iteration      1(  18)  ---------------------------------------


    POTLOK:  cpu time  101.6320: real time  102.2279
    SETDIJ:  cpu time    0.0720: real time    0.0706
     EDDAV:  cpu time   17.7880: real time   17.8579
 BZINTS: Fermi energy: -1.739829; 57.000000 electrons
         Band energy:-387.024122;  BLOECHL correction: -0.031464
       DOS:  cpu time    0.0040: real time    0.0053
    CHARGE:  cpu time    2.0760: real time    2.0753
    MIXING:  cpu time    0.0600: real time    0.0608
    --------------------------------------------
      LOOP:  cpu time  121.6320: real time  122.2978

 eigenvalue-minimisations  :   640
 total energy-change (2. order) : 0.8833331E-03  (-0.1906628E-04)
 number of electron      57.0000000 magnetization       5.5355173
 augmentation part       -2.6370483 magnetization       4.1917184

 Broyden mixing:
  rms(total) = 0.22611E-02    rms(broyden)= 0.22611E-02
  rms(prec ) = 0.47973E-02
  weight for this iteration     100.00

 eigenvalues of (default mixing * dielectric matrix)
  average eigenvalue GAMMA=   1.2962
  3.4963  2.7783  2.0610  2.0610  1.5288  0.2102  0.9595  0.9595  0.4467  0.2871
  0.7667  0.6669  0.6292

 Free energy of the ion-electron system (eV)
  ---------------------------------------------------
  alpha Z        PSCENC =        11.30429057
  Ewald energy   TEWEN  =      6221.61188061
  -Hartree energ DENC   =     -8161.28727167
  -exchange      EXHF   =         0.00000000
  -V(xc)+E(xc)   XCENC  =      -218.80172035
  PAW double counting   =      1221.69752273     -913.92856001
  entropy T*S    EENTRO =         0.00000000
  eigenvalues    EBANDS =      -387.02412178
  atomic energy  EATOM  =      2182.86754148
  Solvation  Ediel_sol  =         0.00000000
  ---------------------------------------------------
  free energy    TOTEN  =       -43.56043841 eV

  energy without entropy =      -43.56043841  energy(sigma->0) =      -43.56043841


--------------------------------------------------------------------------------------------------------




--------------------------------------- Iteration      1(  19)  ---------------------------------------


    POTLOK:  cpu time  101.1080: real time  101.6664
    SETDIJ:  cpu time    0.0720: real time    0.0717
     EDDAV:  cpu time   21.1360: real time   21.2336
 BZINTS: Fermi energy: -1.720321; 57.000000 electrons
         Band energy:-385.904264;  BLOECHL correction: -0.031489
       DOS:  cpu time    0.0040: real time    0.0047
    CHARGE:  cpu time    2.0520: real time    2.0734
    MIXING:  cpu time    0.0680: real time    0.0654
    --------------------------------------------
      LOOP:  cpu time  124.4400: real time  125.1152

 eigenvalue-minimisations  :   816
 total energy-change (2. order) :-0.3718739E-03  (-0.1139170E-03)
 number of electron      57.0000000 magnetization       5.5266907
 augmentation part       -2.6366552 magnetization       4.1828970

 Broyden mixing:
  rms(total) = 0.20122E-02    rms(broyden)= 0.20122E-02
  rms(prec ) = 0.38975E-02
  weight for this iteration     100.00

 eigenvalues of (default mixing * dielectric matrix)
  average eigenvalue GAMMA=   1.5311
  6.0425  3.0918  2.4050  2.0022  2.0022  0.2102  1.0159  1.0159  0.8930  0.4467
  0.2871  0.7235  0.6734  0.6258

 Free energy of the ion-electron system (eV)
  ---------------------------------------------------
  alpha Z        PSCENC =        11.30429057
  Ewald energy   TEWEN  =      6221.61188061
  -Hartree energ DENC   =     -8162.41847453
  -exchange      EXHF   =         0.00000000
  -V(xc)+E(xc)   XCENC  =      -218.79508465
  PAW double counting   =      1221.62816516     -913.85486509
  entropy T*S    EENTRO =         0.00000000
  eigenvalues    EBANDS =      -385.90426384
  atomic energy  EATOM  =      2182.86754148
  Solvation  Ediel_sol  =         0.00000000
  ---------------------------------------------------
  free energy    TOTEN  =       -43.56081028 eV

  energy without entropy =      -43.56081028  energy(sigma->0) =      -43.56081028


--------------------------------------------------------------------------------------------------------




--------------------------------------- Iteration      1(  20)  ---------------------------------------


    POTLOK:  cpu time  102.2480: real time  102.5914
    SETDIJ:  cpu time    0.0600: real time    0.0596
     EDDAV:  cpu time   22.7240: real time   22.7929
 BZINTS: Fermi energy: -1.700885; 57.000000 electrons
         Band energy:-384.794602;  BLOECHL correction: -0.031482
       DOS:  cpu time    0.0040: real time    0.0052
    CHARGE:  cpu time    2.1040: real time    2.1135
    MIXING:  cpu time    0.0640: real time    0.0647
    --------------------------------------------
      LOOP:  cpu time  127.2040: real time  127.6272

 eigenvalue-minimisations  :   888
 total energy-change (2. order) : 0.8381710E-03  (-0.4189327E-04)
 number of electron      57.0000000 magnetization       5.5261515
 augmentation part       -2.6374886 magnetization       4.1811296

 Broyden mixing:
  rms(total) = 0.14465E-02    rms(broyden)= 0.14465E-02
  rms(prec ) = 0.29006E-02
  weight for this iteration     100.00

 eigenvalues of (default mixing * dielectric matrix)
  average eigenvalue GAMMA=   1.6311
  8.0627  3.0399  2.5474  2.0310  2.0310  0.2102  1.1130  0.9548  0.9548  0.4467
  0.2871  0.8011  0.7059  0.6511  0.6307

 Free energy of the ion-electron system (eV)
  ---------------------------------------------------
  alpha Z        PSCENC =        11.30429057
  Ewald energy   TEWEN  =      6221.61188061
  -Hartree energ DENC   =     -8163.53371522
  -exchange      EXHF   =         0.00000000
  -V(xc)+E(xc)   XCENC  =      -218.79423767
  PAW double counting   =      1221.50045196     -913.72158167
  entropy T*S    EENTRO =         0.00000000
  eigenvalues    EBANDS =      -384.79460217
  atomic energy  EATOM  =      2182.86754148
  Solvation  Ediel_sol  =         0.00000000
  ---------------------------------------------------
  free energy    TOTEN  =       -43.55997211 eV

  energy without entropy =      -43.55997211  energy(sigma->0) =      -43.55997211


--------------------------------------------------------------------------------------------------------




--------------------------------------- Iteration      1(  21)  ---------------------------------------


    POTLOK:  cpu time  105.9720: real time  106.7421
    SETDIJ:  cpu time    0.0680: real time    0.0684
     EDDAV:  cpu time   17.8520: real time   18.0265
 BZINTS: Fermi energy: -1.693851; 57.000000 electrons
         Band energy:-384.391172;  BLOECHL correction: -0.031482
       DOS:  cpu time    0.0040: real time    0.0038
    --------------------------------------------
      LOOP:  cpu time  123.8960: real time  124.8409

 eigenvalue-minimisations  :   640
 total energy-change (2. order) : 0.7274090E-04  (-0.4807092E-05)
 number of electron      57.0000000 magnetization       5.5261515
 augmentation part       -2.6374886 magnetization       4.1811296

 Free energy of the ion-electron system (eV)
  ---------------------------------------------------
  alpha Z        PSCENC =        11.30429057
  Ewald energy   TEWEN  =      6221.61188061
  -Hartree energ DENC   =     -8163.94065290
  -exchange      EXHF   =         0.00000000
  -V(xc)+E(xc)   XCENC  =      -218.79066936
  PAW double counting   =      1221.44510471     -913.66622293
  entropy T*S    EENTRO =         0.00000000
  eigenvalues    EBANDS =      -384.39117154
  atomic energy  EATOM  =      2182.86754148
  Solvation  Ediel_sol  =         0.00000000
  ---------------------------------------------------
  free energy    TOTEN  =       -43.55989937 eV

  energy without entropy =      -43.55989937  energy(sigma->0) =      -43.55989937


--------------------------------------------------------------------------------------------------------




 average (electrostatic) potential at core
  the test charge radii are     1.1394  0.9892  0.9587  1.1897
  (the norm of the test charge is              1.0000)
       1 -50.5807       2 -50.5799       3 -92.4872       4 -91.6448       5 -96.5912
       6 -96.5912       7 -96.5911       8 -96.4369       9 -96.4369      10 -96.4369



 E-fermi :  -1.6939     XC(G=0):  -3.4491     alpha+bet : -3.0865


 spin component 1

 k-point     1 :       0.0000    0.0000    0.0000
  band No.  band energies     occupation 
      1     -14.9089      1.00000
      2     -13.8053      1.00000
      3     -12.7624      1.00000
      4     -12.7623      1.00000
      5     -12.6552      1.00000
      6     -12.6552      1.00000
      7     -11.7602      1.00000
      8      -8.9916      1.00000
      9      -6.8370      1.00000
     10      -6.8370      1.00000
     11      -6.6250      1.00000
     12      -6.5942      1.00000
     13      -6.2436      1.00000
     14      -6.2435      1.00000
     15      -5.3744      1.00000
     16      -4.5388      1.00000
     17      -4.4812      1.00000
     18      -4.4812      1.00000
     19      -4.2002      1.00000
     20      -4.2002      1.00000
     21      -3.6851      1.00000
     22      -3.6851      1.00000
     23      -3.5680      1.00000
     24      -3.1851      1.00000
     25      -3.1851      1.00000
     26      -3.1538      1.00000
     27      -3.1282      1.00000
     28      -3.1282      1.00000
     29      -3.0782      1.00000
     30      -2.3573      1.00000
     31      -2.3573      1.00000
     32      -1.2485      0.00000
     33      -1.1961      0.00000
     34      -1.1961      0.00000
     35      -0.4959      0.00000
     36      -0.4959      0.00000
     37      -0.4195      0.00000
     38       0.1354      0.00000
     39       0.1355      0.00000
     40       1.2753      0.00000

 k-point     2 :       0.2000    0.0000    0.0000
  band No.  band energies     occupation 
      1     -14.8060      1.00000
      2     -13.7171      1.00000
      3     -13.0395      1.00000
      4     -12.8662      1.00000
      5     -12.7544      1.00000
      6     -12.7189      1.00000
      7     -11.5071      1.00000
      8      -9.0136      1.00000
      9      -6.9296      1.00000
     10      -6.7380      1.00000
     11      -6.5367      1.00000
     12      -6.4018      1.00000
     13      -5.8603      1.00000
     14      -5.6973      1.00000
     15      -5.1556      1.00000
     16      -4.8939      1.00000
     17      -4.6378      1.00000
     18      -4.5104      1.00000
     19      -4.1389      1.00000
     20      -4.0460      1.00000
     21      -3.9780      1.00000
     22      -3.9538      1.00000
     23      -3.6403      1.00000
     24      -3.4189      1.00000
     25      -3.3685      1.00000
     26      -3.2080      1.00000
     27      -3.1862      1.00000
[...]
     18      -4.3399      1.00000
     19      -4.1791      1.00000
     20      -3.9073      1.00000
     21      -3.5971      1.00000
     22      -3.3332      1.00000
     23      -3.2939      1.00000
     24      -3.0502      1.00000
     25      -2.9408      1.00000
     26      -2.0089      1.02801
     27      -0.9235      0.00000
     28      -0.7965      0.00000
     29      -0.6805      0.00000
     30      -0.3300      0.00000
     31      -0.2791      0.00000
     32      -0.2492      0.00000
     33      -0.0324      0.00000
     34       0.1915      0.00000
     35       0.3046      0.00000
     36       0.5255      0.00000
     37       0.7167      0.00000
     38       0.9362      0.00000
     39       0.9905      0.00000
     40       1.6598      0.00000

 k-point     5 :      -0.4000    0.2000    0.0000
  band No.  band energies     occupation 
      1     -14.6798      1.00000
      2     -13.6308      1.00000
      3     -13.4042      1.00000
      4     -13.2959      1.00000
      5     -12.9760      1.00000
      6     -12.8389      1.00000
      7     -11.1984      1.00000
      8      -8.7507      1.00000
      9      -6.7554      1.00000
     10      -6.3130      1.00000
     11      -6.2169      1.00000
     12      -5.7050      1.00000
     13      -5.5478      1.00000
     14      -5.0939      1.00000
     15      -4.8083      1.00000
     16      -4.6501      1.00000
     17      -4.5205      1.00000
     18      -4.1325      1.00000
     19      -4.0399      1.00000
     20      -3.9509      1.00000
     21      -3.6301      1.00000
     22      -3.4641      1.00000
     23      -3.1950      1.00000
     24      -3.0587      1.00000
     25      -3.0177      1.00000
     26      -2.3797      1.00000
     27      -1.0852      0.00000
     28      -0.9419      0.00000
     29      -0.8680      0.00000
     30      -0.3431      0.00000
     31      -0.3092      0.00000
     32      -0.2800      0.00000
     33       0.0587      0.00000
     34       0.0712      0.00000
     35       0.3057      0.00000
     36       0.5720      0.00000
     37       0.5963      0.00000
     38       0.9626      0.00000
     39       1.0173      0.00000
     40       1.4767      0.00000


--------------------------------------------------------------------------------------------------------


 soft charge-density along one line, spin component           1
         0         1         2         3         4         5         6         7         8         9
 total charge-density along one line

 soft charge-density along one line, spin component           2
         0         1         2         3         4         5         6         7         8         9
 total charge-density along one line

 pseudopotential strength for first ion, spin component:           1
 -8.376   0.081  -0.000   0.011   0.000   0.570  -0.022   0.000
  0.081  -8.292   0.000   0.000   0.011  -0.022   0.547  -0.000
 -0.000   0.000  -8.455   0.000   0.000   0.000  -0.000   0.591
  0.011   0.000   0.000  -8.292  -0.081  -0.003  -0.000  -0.000
  0.000   0.011   0.000  -0.081  -8.376  -0.000  -0.003  -0.000
  0.570  -0.022   0.000  -0.003  -0.000   0.394   0.006  -0.000
 -0.022   0.547  -0.000  -0.000  -0.003   0.006   0.400   0.000
  0.000  -0.000   0.591  -0.000  -0.000  -0.000   0.000   0.389
 -0.003  -0.000  -0.000   0.547   0.022   0.001   0.000   0.000
 -0.000  -0.003  -0.000   0.022   0.570   0.000   0.001   0.000
 -0.000  -0.000  -0.001  -0.000   0.000  -0.000   0.000   0.000
  0.000   0.000   0.000   0.000  -0.000  -0.000  -0.000  -0.000
 -0.000   0.004   0.000  -0.000   0.001   0.000  -0.001  -0.000
 -0.000  -0.000   0.005  -0.000  -0.000   0.000   0.000  -0.001
  0.001  -0.000   0.000   0.004   0.000  -0.000   0.000  -0.000
 -0.000  -0.002  -0.000   0.000  -0.001  -0.000   0.001   0.000
  0.000   0.000  -0.002   0.000   0.000  -0.000  -0.000   0.001
 -0.001   0.000  -0.000  -0.002   0.000   0.000  -0.000   0.000
 pseudopotential strength for first ion, spin component:           2
 -6.778  -0.153  -0.000  -0.019   0.000   0.118   0.040   0.000
 -0.153  -6.951   0.000   0.000  -0.019   0.040   0.164  -0.000
 -0.000   0.000  -6.657   0.000   0.000   0.000  -0.000   0.087
 -0.019   0.000   0.000  -6.951   0.153   0.005  -0.000  -0.000
  0.000  -0.019   0.000   0.153  -6.778  -0.000   0.005  -0.000
  0.118   0.040   0.000   0.005  -0.000   0.517  -0.010  -0.000
  0.040   0.164  -0.000  -0.000   0.005  -0.010   0.506   0.000
  0.000  -0.000   0.087  -0.000  -0.000  -0.000   0.000   0.525
  0.005  -0.000  -0.000   0.164  -0.040  -0.001   0.000   0.000
 -0.000   0.005  -0.000  -0.040   0.118   0.000  -0.001   0.000
 -0.000  -0.000   0.006  -0.000   0.000  -0.000   0.000  -0.001
  0.000   0.000  -0.001   0.000  -0.000  -0.000  -0.000   0.000
  0.000   0.003   0.000  -0.000   0.001  -0.000  -0.001  -0.000
 -0.000  -0.000   0.004  -0.000   0.000   0.000   0.000  -0.001
  0.001  -0.000   0.000   0.003  -0.000  -0.000   0.000  -0.000
 -0.000  -0.002  -0.000   0.000  -0.001   0.000   0.000   0.000
  0.000   0.000  -0.002   0.000  -0.000  -0.000  -0.000   0.000
 -0.001   0.000  -0.000  -0.002   0.000   0.000  -0.000   0.000
 total augmentation occupancy for first ion, spin component:           1
  0.987  -0.044   0.000   0.007  -0.000   0.055   0.187  -0.000   0.023   0.000  -0.000  -0.000  -0.002   0.000   0.010   0.000
 -0.044   0.961  -0.000  -0.000   0.007   0.186   0.253   0.000   0.000   0.022   0.000   0.000   0.008   0.000  -0.003   0.001
  0.000  -0.000   1.023  -0.000  -0.000  -0.000   0.000  -0.086   0.000   0.000  -0.002  -0.010  -0.000   0.008   0.000  -0.000
  0.007  -0.000  -0.000   0.961   0.044   0.022  -0.000   0.000   0.253  -0.186   0.000   0.000   0.003   0.000   0.008  -0.000
 -0.000   0.007  -0.000   0.044   0.987  -0.000   0.023   0.000  -0.187   0.055   0.000   0.000   0.010  -0.000   0.002   0.000
  0.055   0.186  -0.000   0.022  -0.000   0.137   0.069   0.000   0.007  -0.000   0.000  -0.000  -0.003   0.000   0.014   0.000
  0.187   0.253   0.000  -0.000   0.023   0.069   0.206   0.000  -0.000   0.007  -0.000  -0.000   0.010  -0.000  -0.004   0.000
 -0.000   0.000  -0.086   0.000   0.000   0.000   0.000   0.119   0.000  -0.000   0.037  -0.007  -0.000   0.008   0.000   0.000
  0.023   0.000   0.000   0.253  -0.187   0.007  -0.000   0.000   0.206  -0.069   0.000   0.000   0.004  -0.000   0.010  -0.000
  0.000   0.022   0.000  -0.186   0.055  -0.000   0.007  -0.000  -0.069   0.137  -0.000   0.000   0.014  -0.000   0.003  -0.001
 -0.000   0.000  -0.002   0.000   0.000   0.000  -0.000   0.037   0.000  -0.000   1.056  -0.151   0.000   0.013  -0.000   0.000
 -0.000   0.000  -0.010   0.000   0.000  -0.000   0.000  -0.007   0.000   0.000  -0.151   0.054   0.000  -0.005  -0.000   0.000
 -0.002   0.008  -0.000   0.003   0.010  -0.003   0.010  -0.000   0.004   0.014   0.000   0.000   0.209   0.000  -0.000  -0.001
  0.000   0.000   0.008   0.000  -0.000   0.000  -0.000   0.008  -0.000  -0.000   0.013  -0.005   0.000   0.220   0.000   0.000
  0.010  -0.003   0.000   0.008   0.002   0.014  -0.004   0.000   0.010   0.003  -0.000  -0.000  -0.000   0.000   0.209  -0.000
  0.000   0.001  -0.000  -0.000   0.000   0.000   0.000   0.000  -0.000  -0.001   0.000   0.000  -0.001  -0.000  -0.000   0.000
  0.000   0.000   0.001   0.000  -0.000  -0.000  -0.000  -0.000   0.000   0.000  -0.000   0.000   0.000  -0.002   0.000   0.000
  0.000   0.000   0.000   0.001  -0.000  -0.001   0.000  -0.000   0.000  -0.000  -0.000  -0.000   0.000   0.000  -0.001  -0.000
 total augmentation occupancy for first ion, spin component:           2
  0.708  -0.261   0.000  -0.031  -0.000  -0.134   0.041  -0.000   0.004  -0.001  -0.000  -0.000   0.003   0.000   0.002  -0.000
 -0.261   0.418  -0.000  -0.000  -0.031   0.042  -0.090   0.000  -0.001   0.004   0.000   0.000  -0.002   0.000   0.007   0.000
  0.000  -0.000   0.912  -0.000  -0.000  -0.000   0.000  -0.183   0.000   0.000  -0.024  -0.003   0.000   0.000   0.000  -0.000
 -0.031  -0.000  -0.000   0.418   0.261   0.004   0.001   0.000  -0.090  -0.042   0.000   0.000  -0.007   0.000  -0.002   0.000
 -0.000  -0.031  -0.000   0.261   0.708   0.001   0.004   0.000  -0.041  -0.134   0.000   0.000   0.002  -0.000  -0.003   0.001
 -0.134   0.042  -0.000   0.004   0.001  -0.008  -0.040   0.000  -0.006  -0.000   0.000   0.000  -0.000  -0.000  -0.004  -0.000
  0.041  -0.090   0.000   0.001   0.004  -0.040  -0.050  -0.000   0.000  -0.006  -0.000  -0.000   0.000   0.000   0.001   0.000
 -0.000   0.000  -0.183   0.000   0.000   0.000  -0.000   0.032  -0.000  -0.000   0.008   0.003   0.000  -0.000  -0.000   0.000
  0.004  -0.001   0.000  -0.090  -0.041  -0.006   0.000  -0.000  -0.050   0.040   0.000   0.000  -0.001   0.000   0.000  -0.000
 -0.001   0.004   0.000  -0.042  -0.134  -0.000  -0.006  -0.000   0.040  -0.008  -0.000  -0.000  -0.004   0.000   0.000  -0.000
 -0.000   0.000  -0.024   0.000   0.000   0.000   0.000   0.008   0.000  -0.000   0.174   0.062   0.000   0.001  -0.000   0.000
 -0.000   0.000  -0.003   0.000   0.000   0.000  -0.000   0.003   0.000  -0.000   0.062  -0.018   0.000   0.001  -0.000   0.000
  0.003  -0.002   0.000  -0.007   0.002  -0.000   0.000   0.000  -0.001  -0.004   0.000   0.000   0.029   0.000  -0.000   0.003
  0.000   0.000   0.000  -0.000  -0.000  -0.000   0.000  -0.000  -0.000   0.000   0.001   0.001   0.000   0.022   0.000   0.000
  0.002   0.007   0.000  -0.002  -0.003  -0.004   0.001  -0.000   0.000   0.000  -0.000  -0.000  -0.000   0.000   0.029   0.000
 -0.000   0.000  -0.000   0.000   0.001  -0.000   0.000   0.000  -0.000  -0.000   0.000   0.000   0.003   0.000   0.000   0.000
  0.000   0.000   0.001   0.000  -0.000  -0.000   0.000  -0.000  -0.000   0.000   0.000  -0.000   0.000   0.002   0.000   0.000
  0.001  -0.000   0.000   0.000   0.000  -0.000   0.000  -0.000   0.000   0.000  -0.000  -0.000  -0.000   0.000   0.003  -0.000


------------------------ aborting loop because EDIFF is reached ----------------------------------------





 total charge     

# of ion       s       p       d       tot
------------------------------------------
    1        0.340   0.426   4.279   5.045
    2        0.340   0.426   4.277   5.043
    3        0.775   0.821   0.000   1.596
    4        1.098   1.348   0.000   2.446
    5        1.404   1.943   0.040   3.386
    6        1.393   1.927   0.041   3.360
    7        1.402   1.938   0.040   3.380
    8        1.387   2.001   0.035   3.423
    9        1.379   1.991   0.036   3.407
   10        1.384   1.996   0.036   3.416
--------------------------------------------------
tot         10.902  14.817   8.783  34.502



 magnetization (x)

# of ion       s       p       d       tot
------------------------------------------
    1        0.041   0.045   2.899   2.985
    2        0.041   0.045   2.900   2.986
    3        0.004   0.021   0.000   0.025
    4       -0.023   0.006   0.000  -0.017
    5       -0.003  -0.120   0.004  -0.119
    6       -0.003  -0.116   0.004  -0.115
    7       -0.004  -0.127   0.004  -0.127
    8       -0.001  -0.094   0.005  -0.091
    9       -0.002  -0.077   0.005  -0.074
   10       -0.002  -0.090   0.005  -0.087
--------------------------------------------------
tot          0.048  -0.506   5.825   5.367

    CHARGE:  cpu time    1.7600: real time    1.7646
    FORLOC:  cpu time    0.0720: real time    0.0720
    FORNL :  cpu time    5.1200: real time    5.1268
    STRESS:  cpu time   15.3920: real time   15.4073
    FORCOR:  cpu time   67.8680: real time   67.9723
    FORHAR:  cpu time    0.3480: real time    0.3485
    MIXING:  cpu time    0.0440: real time    0.0421
    OFIELD:  cpu time    0.0000: real time    0.0000

  FORCE on cell =-STRESS in cart. coord.  units (eV):
  Direction    XX          YY          ZZ          XY          YZ          ZX
  --------------------------------------------------------------------------------------
  Alpha Z    11.73015    11.73015    11.73015
  Ewald    7751.22281  7751.22051 -9252.77452    -0.00103    -0.00042    -0.00077
  Hartree  8058.52725  8058.52764 -7921.18395     0.00001     0.00006     0.00009
  E(xc)    -226.76964  -226.76962  -226.77827     0.00001     0.00002     0.00002
  Local  -16693.91647-16693.91544 16254.67413     0.00076     0.00027     0.00049
  n-local   737.91749   737.83218   754.69936    -0.09238     0.49144     0.53542
  augment  -115.68969  -115.68960  -123.18257     0.00001     0.00002     0.00002
  Kinetic   480.74889   473.16584   502.88360    -4.91337     0.06244    -0.09532
  Fock        0.00000     0.00000     0.00000     0.00000     0.00000     0.00000
  -------------------------------------------------------------------------------------
  Total      -0.06378    -0.06378     0.06794     0.00000     0.00000     0.00000
  in kB      -0.10946    -0.10946     0.11658     0.00000     0.00000     0.00000
  external pressure =       -0.03 kB  Pullay stress =        0.00 kB


 VOLUME and BASIS-vectors are now :
 -----------------------------------------------------------------------------
  energy-cutoff  :      520.00
  volume of cell :      933.66
      direct lattice vectors                 reciprocal lattice vectors
     6.841571303 -0.000000163  0.000000000     0.146165251 -0.084388545 -0.000000000
     3.420785308  5.924974115  0.000000000     0.000000004  0.168777106 -0.000000000
     0.000000000  0.000000000 23.032825114    -0.000000000 -0.000000000  0.043416298

  length of vectors
     6.841571303  6.841570754 23.032825114     0.168777093  0.168777106  0.043416298


 FORCES acting on ions
    electron-ion (+dipol)            ewald-force                    non-local-force                 convergence-correction
 -----------------------------------------------------------------------------------------------
   -.663E-04 -.404E-04 0.211E+02   0.322E-03 0.191E-03 -.212E+02   -.690E-17 0.139E-16 0.133E+00   0.172E-06 -.276E-07 -.354E-02
   0.584E-04 0.383E-04 0.215E+02   -.346E-03 -.204E-03 -.217E+02   0.381E-19 0.308E-19 0.139E+00   0.969E-07 -.443E-07 -.322E-02
   -.224E-04 -.133E-04 0.144E+03   -.119E-03 -.653E-04 -.143E+03   0.657E-17 -.298E-18 -.134E+01   -.871E-07 -.611E-07 0.130E-02
   0.478E-04 0.177E-04 -.235E+03   0.196E-03 0.108E-03 0.236E+03   0.991E-17 -.735E-17 -.183E+01   -.220E-06 -.120E-06 -.197E-02
   0.110E+01 0.113E-01 -.342E+03   -.453E+01 -.470E-02 0.347E+03   0.339E+01 0.344E-02 -.422E+01   -.145E-02 -.997E-02 -.134E-01
   -.540E+00 -.958E+00 -.342E+03   0.226E+01 0.393E+01 0.347E+03   -.169E+01 -.294E+01 -.422E+01   -.791E-02 0.624E-02 -.134E-01
   -.561E+00 0.945E+00 -.342E+03   0.227E+01 -.392E+01 0.347E+03   -.170E+01 0.294E+01 -.422E+01   0.936E-02 0.373E-02 -.134E-01
   0.398E+01 0.285E-01 0.359E+03   -.829E+00 -.159E-01 -.364E+03   -.316E+01 -.378E-02 0.486E+01   0.194E-02 -.931E-02 0.141E-01
   -.196E+01 -.346E+01 0.359E+03   0.401E+00 0.726E+00 -.364E+03   0.158E+01 0.274E+01 0.486E+01   -.903E-02 0.297E-02 0.141E-01
   -.201E+01 0.343E+01 0.359E+03   0.428E+00 -.710E+00 -.364E+03   0.158E+01 -.273E+01 0.486E+01   0.709E-02 0.633E-02 0.141E-01
 -----------------------------------------------------------------------------------------------
   0.553E-05 0.543E-04 0.983E+00   -.114E-13 0.844E-14 -.568E-13   0.444E-15 0.000E+00 -.966E+00   0.414E-07 -.194E-06 -.538E-02


 POSITION                                       TOTAL-FORCE (eV/Angst)
 -----------------------------------------------------------------------------------
      3.42078      1.97499     11.45598        -0.000000     -0.000000     -0.028959
      6.84157      3.94998     11.45414         0.000000     -0.000000     -0.024029
      0.00000      0.00000     10.57307        -0.000000      0.000000     -0.005079
      0.00000      0.00000     12.84464         0.000000      0.000000      0.039624
      4.23478     -0.00051     13.15391        -0.040617      0.000645      0.021893
      1.30295      2.25781     13.15391         0.020867      0.034853      0.021893
      4.72463      3.66768     13.15391         0.019750     -0.035497      0.021893
      2.42494      0.00074      9.79153        -0.009802     -0.001057     -0.015745
      2.20895      3.82454      9.79153         0.003986      0.009017     -0.015745
      5.62845      2.09969      9.79153         0.005816     -0.007961     -0.015745
 -----------------------------------------------------------------------------------
    total drift:                                0.000006      0.000054      0.011668


--------------------------------------------------------------------------------------------------------



  FREE ENERGIE OF THE ION-ELECTRON SYSTEM (eV)
  ---------------------------------------------------
  free  energy   TOTEN  =       -43.84319182 eV

  energy  without entropy=      -43.84319182  energy(sigma->0) =      -43.84319182

 d Force = 0.2248314E-03[ 0.384E-05, 0.446E-03]  d Energy = 0.2669656E-03-0.421E-04
 d Force =-0.9138580E+00[-0.914E+00,-0.914E+00]  d Ewald  =-0.1900225E+01 0.986E+00


--------------------------------------------------------------------------------------------------------


    POTLOK:  cpu time   67.9320: real time   68.0543


--------------------------------------------------------------------------------------------------------




--------------------------------------------------------------------------------------------------------


  
 reached required accuracy - stopping structural energy minimisation
     LOOP+:  cpu time  511.0320: real time  511.7313
    4ORBIT:  cpu time    0.0000: real time    0.0000



 total charge     

# of ion       s       p       d       tot
------------------------------------------
    1        0.340   0.426   4.279   5.045
    2        0.340   0.426   4.277   5.043
    3        0.775   0.821   0.000   1.596
    4        1.098   1.348   0.000   2.446
    5        1.404   1.943   0.040   3.386
    6        1.393   1.927   0.041   3.360
    7        1.402   1.938   0.040   3.380
    8        1.387   2.001   0.035   3.423
    9        1.379   1.991   0.036   3.407
   10        1.384   1.996   0.036   3.416
--------------------------------------------------
tot         10.902  14.817   8.783  34.502



 magnetization (x)

# of ion       s       p       d       tot
------------------------------------------
    1        0.041   0.045   2.899   2.985
    2        0.041   0.045   2.900   2.986
    3        0.004   0.021   0.000   0.025
    4       -0.023   0.006   0.000  -0.017
    5       -0.003  -0.120   0.004  -0.119
    6       -0.003  -0.116   0.004  -0.115
    7       -0.004  -0.127   0.004  -0.127
    8       -0.001  -0.094   0.005  -0.091
    9       -0.002  -0.077   0.005  -0.074
   10       -0.002  -0.090   0.005  -0.087
--------------------------------------------------
tot          0.048  -0.506   5.825   5.367

 BZINTS: Fermi energy: -1.602925; 57.000000 electrons
         Band energy:-381.403526;  BLOECHL correction: -0.026806

 total amount of memory used by VASP MPI-rank0   174126. kBytes
=======================================================================

   base      :      30000. kBytes
   nonlr-proj:       7947. kBytes
   fftplans  :      20284. kBytes
   grid      :      94580. kBytes
   one-center:        311. kBytes
   wavefun   :      21004. kBytes

  
  
 General timing and accounting informations for this job:
 ========================================================
  
                  Total CPU time used (sec):    15932.288
                            User time (sec):    15852.372
                          System time (sec):       79.916
                         Elapsed time (sec):    16003.694
  
                   Maximum memory used (kb):      591480.
                   Average memory used (kb):           0.
  
                          Minor page faults:     22200246
                          Major page faults:            7
                 Voluntary context switches:         1128
