 vasp.5.4.4.18Apr17-6-g9f103f2a35 (build May  1 2020 15:48:39) complex           
 executed on             LinuxGNU date 2020.07.06  10:32:31
 running on   16 total cores
 distrk:  each k-point on   16 cores,    1 groups
 distr:  one band on NCORES_PER_BAND=   1 cores,   16 groups


--------------------------------------------------------------------------------------------------------


 INCAR:
 POTCAR:   PAW_PBE Fe 06Sep2000                   
 POTCAR:   PAW_PBE Si 05Jan2001                   
 POTCAR:    PAW_PBE P 17Jan2003                   
 POTCAR:   PAW_PBE Se 06Sep2000                   

 ----------------------------------------------------------------------------- 
|                                                                             |
|           W    W    AA    RRRRR   N    N  II  N    N   GGGG   !!!           |
|           W    W   A  A   R    R  NN   N  II  NN   N  G    G  !!!           |
|           W    W  A    A  R    R  N N  N  II  N N  N  G       !!!           |
|           W WW W  AAAAAA  RRRRR   N  N N  II  N  N N  G  GGG   !            |
|           WW  WW  A    A  R   R   N   NN  II  N   NN  G    G                |
|           W    W  A    A  R    R  N    N  II  N    N   GGGG   !!!           |
|                                                                             |
|      For optimal performance we recommend to set                            |
|        NCORE= 4 - approx SQRT( number of cores)                             |
|      NCORE specifies how many cores store one orbital (NPAR=cpu/NCORE).     |
|      This setting can  greatly improve the performance of VASP for DFT.     |
|      The default,   NCORE=1            might be grossly inefficient         |
|      on modern multi-core architectures or massively parallel machines.     |
|      Do your own testing !!!!                                               |
|      Unfortunately you need to use the default for GW and RPA calculations. |
|      (for HF NCORE is supported but not extensively tested yet)             |
|                                                                             |
 ----------------------------------------------------------------------------- 


 ----------------------------------------------------------------------------- 
|                                                                             |
|  ADVICE TO THIS USER RUNNING 'VASP/VAMP'   (HEAR YOUR MASTER'S VOICE ...):  |
|                                                                             |
|      You have switched on vdW-DFT.                                          |
|      This routine was written and supplied by Jiri Klimes.                  |
|      We recommed that you carefully read and cite the following             |
|      publication                                                            |
|      J. Klimes, D.R. Bowler, A. Michelides                                  |
|        J. Phys.: Cond Matt. 22 022201 (2010)                                |
|      J. Klimes, D.R. Bowler, A. Michelides                                  |
|        Phys. Rev. B. 83, 195131 (2011)                                      |
|      and references therein.                                                |
|                                                                             |
 ----------------------------------------------------------------------------- 

 POTCAR:   PAW_PBE Fe 06Sep2000                   
   VRHFIN =Fe:  d7 s1                                                           
   LEXCH  = PE                                                                  
   EATOM  =   594.4687 eV,   43.6922 Ry                                         
                                                                                
   TITEL  = PAW_PBE Fe 06Sep2000                                                
   LULTRA =        F    use ultrasoft PP ?                                      
   IUNSCR =        1    unscreen: 0-lin 1-nonlin 2-no                           
   RPACOR =    2.000    partial core radius                                     
   POMASS =   55.847; ZVAL   =    8.000    mass and valenz                      
   RCORE  =    2.300    outmost cutoff radius                                   
   RWIGS  =    2.460; RWIGS  =    1.302    wigner-seitz radius (au A)           
   ENMAX  =  267.883; ENMIN  =  200.912 eV                                      
   RCLOC  =    1.701    cutoff for local pot                                    
   LCOR   =        T    correct aug charges                                     
   LPAW   =        T    paw PP                                                  
   EAUG   =  511.368                                                            
   DEXC   =    -.022                                                            
   RMAX   =    2.817    core radius for proj-oper                               
   RAUG   =    1.300    factor for augmentation sphere                          
   RDEP   =    2.442    radius for radial grids                                 
   QCUT   =   -4.437; QGAM   =    8.874    optimization parameters              
                                                                                
   Description                                                                  
     l     E      TYP  RCUT    TYP  RCUT                                        
     2   .000     23  2.300                                                     
     2   .000     23  2.300                                                     
     0   .000     23  2.300                                                     
     0   .000     23  2.300                                                     
     1  -.200     23  2.300                                                     
     1   .000     23  2.300                                                     
     3   .000      7   .000                                                     
  local pseudopotential read in
  partial core-charges read in
  atomic valenz-charges read in
  non local Contribution for L=           2  read in
    real space projection operators read in
  non local Contribution for L=           2  read in
    real space projection operators read in
  non local Contribution for L=           0  read in
    real space projection operators read in
  non local Contribution for L=           0  read in
    real space projection operators read in
  non local Contribution for L=           1  read in
    real space projection operators read in
  non local Contribution for L=           1  read in
    real space projection operators read in
    PAW grid and wavefunctions read in

   number of l-projection  operators is LMAX  =           6
   number of lm-projection operators is LMMAX =          18

 POTCAR:   PAW_PBE Si 05Jan2001                   
   VRHFIN =Si: s2p2                                                             
   LEXCH  = PE                                                                  
   EATOM  =   103.0669 eV,    7.5752 Ry                                         
                                                                                
   TITEL  = PAW_PBE Si 05Jan2001                                                
   LULTRA =        F    use ultrasoft PP ?                                      
   IUNSCR =        1    unscreen: 0-lin 1-nonlin 2-no                           
   RPACOR =    1.500    partial core radius                                     
   POMASS =   28.085; ZVAL   =    4.000    mass and valenz                      
   RCORE  =    1.900    outmost cutoff radius                                   
   RWIGS  =    2.480; RWIGS  =    1.312    wigner-seitz radius (au A)           
   ENMAX  =  245.345; ENMIN  =  184.009 eV                                      
   ICORE  =        2    local potential                                         
   LCOR   =        T    correct aug charges                                     
   LPAW   =        T    paw PP                                                  
   EAUG   =  322.069                                                            
   DEXC   =    -.007                                                            
   RMAX   =    2.944    core radius for proj-oper                               
   RAUG   =    1.300    factor for augmentation sphere                          
   RDEP   =    1.993    radius for radial grids                                 
   QCUT   =   -4.246; QGAM   =    8.493    optimization parameters              
                                                                                
   Description                                                                  
     l     E      TYP  RCUT    TYP  RCUT                                        
     0   .000     23  1.900                                                     
     0   .000     23  1.900                                                     
     1   .000     23  1.900                                                     
     1   .000     23  1.900                                                     
     2   .000      7  1.900                                                     
  local pseudopotential read in
  partial core-charges read in
  atomic valenz-charges read in
  non local Contribution for L=           0  read in
    real space projection operators read in
  non local Contribution for L=           0  read in
    real space projection operators read in
  non local Contribution for L=           1  read in
    real space projection operators read in
  non local Contribution for L=           1  read in
    real space projection operators read in
    PAW grid and wavefunctions read in

   number of l-projection  operators is LMAX  =           4
   number of lm-projection operators is LMMAX =           8

 POTCAR:    PAW_PBE P 17Jan2003                   
   VRHFIN =P : s2p3                                                             
   LEXCH  = PE                                                                  
   EATOM  =   176.0430 eV,   12.9388 Ry                                         
                                                                                
   TITEL  = PAW_PBE P 17Jan2003                                                 
   LULTRA =        F    use ultrasoft PP ?                                      
   IUNSCR =        1    unscreen: 0-lin 1-nonlin 2-no                           
   RPACOR =    1.500    partial core radius                                     
   POMASS =   30.974; ZVAL   =    5.000    mass and valenz                      
   RCORE  =    1.900    outmost cutoff radius                                   
   RWIGS  =    2.330; RWIGS  =    1.233    wigner-seitz radius (au A)           
   ENMAX  =  270.000; ENMIN  =  191.280 eV                                      
   ICORE  =        2    local potential                                         
   LCOR   =        T    correct aug charges                                     
   LPAW   =        T    paw PP                                                  
   EAUG   =  342.924                                                            
   DEXC   =    -.002                                                            
   RMAX   =    2.887    core radius for proj-oper                               
   RAUG   =    1.300    factor for augmentation sphere                          
   RDEP   =    1.931    radius for radial grids                                 
   QCUT   =   -4.330; QGAM   =    8.659    optimization parameters              
                                                                                
   Description                                                                  
     l     E      TYP  RCUT    TYP  RCUT                                        
     0   .000     23  1.900                                                     
     0   .000     23  1.900                                                     
     1   .000     23  1.900                                                     
     1   .000     23  1.900                                                     
     2   .000     23  1.900                                                     
  local pseudopotential read in
  partial core-charges read in
  atomic valenz-charges read in
  non local Contribution for L=           0  read in
    real space projection operators read in
  non local Contribution for L=           0  read in
    real space projection operators read in
  non local Contribution for L=           1  read in
    real space projection operators read in
  non local Contribution for L=           1  read in
    real space projection operators read in
    PAW grid and wavefunctions read in

   number of l-projection  operators is LMAX  =           4
   number of lm-projection operators is LMMAX =           8

 POTCAR:   PAW_PBE Se 06Sep2000                   
   VRHFIN =Se: s2p4                                                             
   LEXCH  = PE                                                                  
   EATOM  =   256.9644 eV,   18.8864 Ry                                         
                                                                                
   TITEL  = PAW_PBE Se 06Sep2000                                                
   LULTRA =        F    use ultrasoft PP ?                                      
   IUNSCR =        1    unscreen: 0-lin 1-nonlin 2-no                           
   RPACOR =    1.900    partial core radius                                     
   POMASS =   78.960; ZVAL   =    6.000    mass and valenz                      
   RCORE  =    2.100    outmost cutoff radius                                   
   RWIGS  =    2.200; RWIGS  =    1.164    wigner-seitz radius (au A)           
   ENMAX  =  211.534; ENMIN  =  158.651 eV                                      
   ICORE  =        3    local potential                                         
   LCOR   =        T    correct aug charges                                     
   LPAW   =        T    paw PP                                                  
   EAUG   =  446.842                                                            
   DEXC   =    -.031                                                            
   RMAX   =    3.170    core radius for proj-oper                               
   RAUG   =    1.300    factor for augmentation sphere                          
   RDEP   =    2.177    radius for radial grids                                 
   QCUT   =   -3.943; QGAM   =    7.886    optimization parameters              
                                                                                
   Description                                                                  
     l     E      TYP  RCUT    TYP  RCUT                                        
     0   .000     23  2.100                                                     
     0   .000     23  2.100                                                     
     1   .000     23  2.100                                                     
     1   .000     23  2.100                                                     
     2   .000     23  2.100                                                     
     3  -.100      7  2.100                                                     
  local pseudopotential read in
  partial core-charges read in
  atomic valenz-charges read in
  non local Contribution for L=           0  read in
    real space projection operators read in
  non local Contribution for L=           0  read in
    real space projection operators read in
  non local Contribution for L=           1  read in
    real space projection operators read in
  non local Contribution for L=           1  read in
    real space projection operators read in
  non local Contribution for L=           2  read in
    real space projection operators read in
    PAW grid and wavefunctions read in

   number of l-projection  operators is LMAX  =           5
   number of lm-projection operators is LMMAX =          13

 Optimization of the real space projectors (new method)

 maximal supplied QI-value         = 16.25
 optimisation between [QCUT,QGAM] = [ 11.54, 23.24] = [ 37.28,151.24] Ry 
 Optimized for a Real-space Cutoff    1.53 Angstroem

   l    n(q)    QCUT    max X(q) W(low)/X(q) W(high)/X(q)  e(spline) 
   2     10    11.539     4.378    0.86E-05    0.15E-04    0.46E-07
   2     10    11.539    23.237    0.11E-03    0.14E-03    0.22E-06
   0     11    11.539    17.641    0.19E-04    0.14E-05    0.18E-07
   0     11    11.539    50.908    0.43E-04    0.16E-04    0.30E-06
   1     10    11.539     6.148    0.11E-04    0.38E-05    0.26E-07
   1     10    11.539     8.345    0.44E-04    0.25E-04    0.11E-06
 Optimization of the real space projectors (new method)

 maximal supplied QI-value         = 19.84
 optimisation between [QCUT,QGAM] = [ 11.51, 23.22] = [ 37.09,150.92] Ry 
 Optimized for a Real-space Cutoff    1.21 Angstroem

   l    n(q)    QCUT    max X(q) W(low)/X(q) W(high)/X(q)  e(spline) 
   0      8    11.508     8.708    0.18E-04    0.44E-05    0.47E-08
   0      8    11.508   106.241    0.70E-04    0.15E-03    0.51E-07
   1      8    11.508     5.901    0.63E-05    0.23E-04    0.21E-07
   1      8    11.508    73.241    0.15E-03    0.36E-04    0.79E-07
 Optimization of the real space projectors (new method)

 maximal supplied QI-value         = 19.84
 optimisation between [QCUT,QGAM] = [ 11.51, 23.22] = [ 37.09,150.92] Ry 
 Optimized for a Real-space Cutoff    1.21 Angstroem

   l    n(q)    QCUT    max X(q) W(low)/X(q) W(high)/X(q)  e(spline) 
   0      8    11.508     6.651    0.19E-04    0.31E-05    0.49E-08
   0      8    11.508    90.285    0.95E-04    0.17E-03    0.51E-07
   1      8    11.508     4.328    0.14E-04    0.32E-04    0.22E-07
   1      8    11.508    54.583    0.16E-03    0.71E-04    0.89E-07
 Optimization of the real space projectors (new method)

 maximal supplied QI-value         = 17.95
 optimisation between [QCUT,QGAM] = [ 11.67, 23.34] = [ 38.13,152.52] Ry 
 Optimized for a Real-space Cutoff    1.25 Angstroem

   l    n(q)    QCUT    max X(q) W(low)/X(q) W(high)/X(q)  e(spline) 
   0      9    11.669     6.499    0.13E-04    0.81E-05    0.11E-07
   0      9    11.669    52.623    0.18E-03    0.46E-04    0.72E-07
   1      8    11.669     4.229    0.40E-04    0.45E-04    0.31E-07
   1      8    11.669    29.991    0.22E-03    0.36E-03    0.10E-06
   2      8    11.669     3.719    0.19E-03    0.46E-04    0.50E-07

 ----------------------------------------------------------------------------- 
|                                                                             |
|  ADVICE TO THIS USER RUNNING 'VASP/VAMP'   (HEAR YOUR MASTER'S VOICE ...):  |
|                                                                             |
|      You enforced a specific xc-type in the INCAR file,                     |
|      a different type was found on the POTCAR file                          |
|          I HOPE YOU KNOW, WHAT YOU ARE  DOING                               |
|                                                                             |
 ----------------------------------------------------------------------------- 

 PAW_PBE Fe 06Sep2000                   :
 energy of atom  1       EATOM= -594.4687
 kinetic energy error for atom=    0.0026 (will be added to EATOM!!)
 PAW_PBE Si 05Jan2001                   :
 energy of atom  2       EATOM= -103.0669
 kinetic energy error for atom=    0.0005 (will be added to EATOM!!)
  PAW_PBE P 17Jan2003                   :
 energy of atom  3       EATOM= -176.0430
 kinetic energy error for atom=    0.0011 (will be added to EATOM!!)
 PAW_PBE Se 06Sep2000                   :
 energy of atom  4       EATOM= -256.9644
 kinetic energy error for atom=    0.0007 (will be added to EATOM!!)


 POSCAR: Fe2 Si P Se6                            
  positions in direct lattice
  velocities in cartesian coordinates
  No initial velocities read in
 exchange correlation table for  LEXCH =       42
   RHO(1)=    0.500       N(1)  =     2000
   RHO(2)=  100.500       N(2)  =     4000



--------------------------------------------------------------------------------------------------------


 ion  position               nearest neighbor table
   1  0.333  0.333  0.500-   6 2.78   5 2.78   7 2.78   8 2.78  10 2.78   9 2.78
   2  0.667  0.667  0.500-   9 2.78   8 2.78  10 2.78   5 2.78   7 2.78   6 2.78
   3  0.000  0.000  0.448-   4 2.43   8 2.63  10 2.63   9 2.63
   4  0.000  0.000  0.552-   3 2.43   5 2.63   7 2.63   6 2.63
   5  0.626  0.000  0.574-   4 2.63   1 2.78   2 2.78
   6  0.000  0.373  0.574-   4 2.63   1 2.78   2 2.78
   7  0.373  0.626  0.574-   4 2.63   1 2.78   2 2.78
   8  0.374  1.000  0.426-   3 2.63   2 2.78   1 2.78
   9  1.000  0.627  0.426-   3 2.63   2 2.78   1 2.78
  10  0.627  0.374  0.426-   3 2.63   2 2.78   1 2.78

  LATTYP: Found a hexagonal cell.
 ALAT       =     6.9077769333
 C/A-ratio  =     3.3939410937
  
  Lattice vectors:
  
 A1 = (   3.4538890000,  -5.9823100000,   0.0000000000)
 A2 = (  -6.9077770000,   0.0000000000,   0.0000000000)
 A3 = (   0.0000000000,   0.0000000000, -23.4445880000)


Analysis of symmetry for initial positions (statically):
=====================================================================
 Subroutine PRICEL returns:
 Original cell was already a primitive cell.
 

 Routine SETGRP: Setting up the symmetry group for a 
 hexagonal supercell.


 Subroutine GETGRP returns: Found  3 space group operations
 (whereof  3 operations were pure point group operations)
 out of a pool of 24 trial point group operations.


The static configuration has the point symmetry C_3 .


Analysis of symmetry for dynamics (positions and initial velocities):
=====================================================================
 Subroutine PRICEL returns:
 Original cell was already a primitive cell.
 

 Routine SETGRP: Setting up the symmetry group for a 
 hexagonal supercell.


 Subroutine GETGRP returns: Found  3 space group operations
 (whereof  3 operations were pure point group operations)
 out of a pool of 24 trial point group operations.


The dynamic configuration has the point symmetry C_3 .


Analysis of constrained symmetry for selective dynamics:
=====================================================================
 Subroutine PRICEL returns:
 Original cell was already a primitive cell.
 

 Routine SETGRP: Setting up the symmetry group for a 
 hexagonal supercell.


 Subroutine GETGRP returns: Found  3 space group operations
 (whereof  3 operations were pure point group operations)
 out of a pool of 24 trial point group operations.


The constrained configuration has the point symmetry C_3 .


Analysis of structural, dynamic, and magnetic symmetry:
=====================================================================
 Subroutine PRICEL returns:
 Original cell was already a primitive cell.
 

 Routine SETGRP: Setting up the symmetry group for a 
 hexagonal supercell.


 Subroutine GETGRP returns: Found  3 space group operations
 (whereof  3 operations were pure point group operations)
 out of a pool of 24 trial point group operations.


The magnetic configuration has the point symmetry C_3 .


 Subroutine INISYM returns: Found  3 space group operations
 (whereof  3 operations are pure point group operations),
 and found     1 'primitive' translations



 KPOINTS: Kpoints from vasprun.xml                

Automatic generation of k-mesh.
Space group operators:
 irot       det(A)        alpha          n_x          n_y          n_z        tau_x        tau_y        tau_z
    1     1.000000     0.000000     1.000000     0.000000     0.000000     0.000000     0.000000     0.000000
    2     1.000000   120.000000     0.000000     0.000000     1.000000     0.000000     0.000000     0.000000
    3     1.000000   120.000000     0.000000     0.000000    -1.000000     0.000000     0.000000     0.000000
 
 Subroutine IBZKPT returns following result:
 ===========================================
 
 Found      5 irreducible k-points:
 
 Following reciprocal coordinates:
            Coordinates               Weight
  0.000000  0.000000  0.000000      1.000000
  0.200000  0.000000  0.000000      6.000000
  0.400000  0.000000  0.000000      6.000000
  0.400000  0.200000  0.000000      6.000000
 -0.400000  0.200000  0.000000      6.000000
 
 Following cartesian coordinates:
            Coordinates               Weight
  0.000000  0.000000  0.000000      1.000000
  0.028953 -0.016716  0.000000      6.000000
  0.057906 -0.033432  0.000000      6.000000
  0.057906  0.000000  0.000000      6.000000
 -0.057906  0.066864  0.000000      6.000000
 
 TETIRR: Found     15 inequivalent tetrahedra from      150


--------------------------------------------------------------------------------------------------------




 Dimension of arrays:
   k-points           NKPTS =      5   k-points in BZ     NKDIM =      5   number of bands    NBANDS=     48
   number of dos      NEDOS =    301   number of ions     NIONS =     10
   non local maximal  LDIM  =      6   non local SUM 2l+1 LMDIM =     18
   total plane-waves  NPLWV = 524880
   max r-space proj   IRMAX =   8238   max aug-charges    IRDMAX=  23823
   dimension x,y,z NGX =    54 NGY =   54 NGZ =  180
   dimension x,y,z NGXF=   108 NGYF=  108 NGZF=  360
   support grid    NGXF=   108 NGYF=  108 NGZF=  360
   ions per type =               2   1   1   6
   NGX,Y,Z   is equivalent  to a cutoff of  13.00, 13.00, 12.76 a.u.
   NGXF,Y,Z  is equivalent  to a cutoff of  25.99, 25.99, 25.53 a.u.

 SYSTEM =  unknown system                          
 POSCAR =  Fe2 Si P Se6                            

 Startparameter for this run:
   NWRITE =      2    write-flag & timer
   PREC   = accura    normal or accurate (medium, high low for compatibility)
   ISTART =      0    job   : 0-new  1-cont  2-samecut
   ICHARG =      2    charge: 1-file 2-atom 10-const
   ISPIN  =      2    spin polarized calculation?
   LNONCOLLINEAR =      F non collinear calculations
   LSORBIT =      F    spin-orbit coupling
   INIWAV =      1    electr: 0-lowe 1-rand  2-diag
   LASPH  =      F    aspherical Exc in radial PAW
   METAGGA=      F    non-selfconsistent MetaGGA calc.

 Electronic Relaxation 1
   ENCUT  =  520.0 eV  38.22 Ry    6.18 a.u.  12.84 12.84 43.59*2*pi/ulx,y,z
   ENINI  =  520.0     initial cutoff
   ENAUG  =  511.4 eV  augmentation charge cutoff
   NELM   =    400;   NELMIN=  2; NELMDL=  0     # of ELM steps 
   EDIFF  = 0.1E-03   stopping-criterion for ELM
   LREAL  =      T    real-space projection
   NLSPLINE    = F    spline interpolate recip. space projectors
   LCOMPAT=      F    compatible to vasp.4.4
   GGA_COMPAT  = T    GGA compatible to vasp.4.4-vasp.4.6
   LMAXPAW     = -100 max onsite density
   LMAXMIX     =    2 max onsite mixed and CHGCAR
   VOSKOWN=      0    Vosko Wilk Nusair interpolation
   ROPT   =   -0.00025  -0.00025  -0.00025  -0.00025
 Ionic relaxation
   EDIFFG = 0.1E-02   stopping-criterion for IOM
   NSW    =     99    number of steps for IOM
   NBLOCK =      1;   KBLOCK =     99    inner block; outer block 
   IBRION =      2    ionic relax: 0-MD 1-quasi-New 2-CG
   NFREE  =      1    steps in history (QN), initial steepest desc. (CG)
   ISIF   =      3    stress and relaxation
   IWAVPR =     11    prediction:  0-non 1-charg 2-wave 3-comb
   ISYM   =      2    0-nonsym 1-usesym 2-fastsym
   LCORR  =      T    Harris-Foulkes like correction to forces

   POTIM  = 0.5000    time-step for ionic-motion
   TEIN   =    0.0    initial temperature
   TEBEG  =    0.0;   TEEND  =   0.0 temperature during run
   SMASS  =  -3.00    Nose mass-parameter (am)
   estimated Nose-frequenzy (Omega)   =  0.10E-29 period in steps =****** mass=  -0.109E-26a.u.
   SCALEE = 1.0000    scale energy and forces
   NPACO  =    256;   APACO  = 16.0  distance and # of slots for P.C.
   PSTRESS=    0.0 pullay stress

  Mass of Ions in am
   POMASS =  55.85 28.09 30.97 78.96
  Ionic Valenz
   ZVAL   =   8.00  4.00  5.00  6.00
  Atomic Wigner-Seitz radii
   RWIGS  =  -1.00 -1.00 -1.00 -1.00
  virtual crystal weights 
   VCA    =   1.00  1.00  1.00  1.00
   NELECT =      61.0000    total number of electrons
   NUPDOWN=      -1.0000    fix difference up-down

 DOS related values:
   EMIN   =  10.00;   EMAX   =-10.00  energy-range for DOS
   EFERMI =   0.00
   ISMEAR =    -5;   SIGMA  =   0.05  broadening in eV -4-tet -1-fermi 0-gaus

 Electronic relaxation 2 (details)
   IALGO  =     38    algorithm
   LDIAG  =      T    sub-space diagonalisation (order eigenvalues)
   LSUBROT=      F    optimize rotation matrix (better conditioning)
   TURBO    =      0    0=normal 1=particle mesh
   IRESTART =      0    0=no restart 2=restart with 2 vectors
   NREBOOT  =      0    no. of reboots
   NMIN     =      0    reboot dimension
   EREF     =   0.00    reference energy to select bands
   IMIX   =      4    mixing-type and parameters
     AMIX     =   0.40;   BMIX     =  1.00
     AMIX_MAG =   1.60;   BMIX_MAG =  1.00
     AMIN     =   0.01
     WC   =   100.;   INIMIX=   1;  MIXPRE=   1;  MAXMIX= -45

 Intra band minimization:
   WEIMIN = 0.0010     energy-eigenvalue tresh-hold
   EBREAK =  0.52E-06  absolut break condition
   DEPER  =   0.30     relativ break condition  

   TIME   =   0.40     timestep for ELM

  volume/ion in A,a.u.               =      96.88       653.80
  Fermi-wavevector in a.u.,A,eV,Ry     =   0.651281  1.230742  5.771135  0.424166
  Thomas-Fermi vector in A             =   1.720830

 Write flags
   LWAVE        =      F    write WAVECAR
   LDOWNSAMPLE  =      F    k-point downsampling of WAVECAR
   LCHARG       =      T    write CHGCAR
   LVTOT        =      F    write LOCPOT, total local potential
   LVHAR        =      F    write LOCPOT, Hartree potential only
   LELF         =      F    write electronic localiz. function (ELF)
   LORBIT       =     11    0 simple, 1 ext, 2 COOP (PROOUT), +10 PAW based schemes


 Dipole corrections
   LMONO  =      F    monopole corrections only (constant potential shift)
   LDIPOL =      F    correct potential (dipole corrections)
   IDIPOL =      0    1-x, 2-y, 3-z, 4-all directions 
   EPSILON=  1.0000000 bulk dielectric constant

 Exchange correlation treatment:
   GGA     =    BO    GGA type
   LEXCH   =    42    internal setting for exchange type
   VOSKOWN=      0    Vosko Wilk Nusair interpolation
   LHFCALC =     F    Hartree Fock is set to
   LHFONE  =     F    Hartree Fock one center treatment
   AEXX    =    0.0000 exact exchange contribution

 vdW DFT:
   LUSE_VDW   =     T    switch on vdW DFT
   Zab_VDW    =-.8491    correlation parameter
   PARAM1     =0.1833
   PARAM2     =0.2200
   PARAM3     =0.0000
   -- rVV10 --
   BPARAM     = 6.3000
   CPARAM     = 0.0093

 Linear response parameters
   LEPSILON=     F    determine dielectric tensor
   LRPA    =     F    only Hartree local field effects (RPA)
   LNABLA  =     F    use nabla operator in PAW spheres
   LVEL    =     F    velocity operator in full k-point grid
   LINTERFAST=   F  fast interpolation
   KINTER  =     0    interpolate to denser k-point grid
   CSHIFT  =0.1000    complex shift for real part using Kramers Kronig
   OMEGAMAX=  -1.0    maximum frequency
   DEG_THRESHOLD= 0.2000000E-02 threshold for treating states as degnerate
   RTIME   =   -0.100 relaxation time in fs
  (WPLASMAI=    0.000 imaginary part of plasma frequency in eV, 0.658/RTIME)
   DFIELD  = 0.0000000 0.0000000 0.0000000 field for delta impulse in time

 Orbital magnetization related:
   ORBITALMAG=     F  switch on orbital magnetization
   LCHIMAG   =     F  perturbation theory with respect to B field
   DQ        =  0.001000  dq finite difference perturbation B field
   LLRAUG    =     F  two centre corrections for induced B field



--------------------------------------------------------------------------------------------------------


 conjugate gradient relaxation of ions
   using selective dynamics as specified on POSCAR
 charge density and potential will be updated during run
 spin polarized calculation
 Variant of blocked Davidson
 Davidson routine will perform the subspace rotation
 perform sub-space diagonalisation
    after iterative eigenvector-optimisation
 modified Broyden-mixing scheme, WC =      100.0
 initial mixing is a Kerker type mixing with AMIX =  0.4000 and BMIX =      1.0000
 Hartree-type preconditioning will be used
 using additional bands           17
 real space projection scheme for non local part
 use partial core corrections
 calculate Harris-corrections to forces   (improved forces if not selfconsistent)
 use gradient corrections 
 use of overlap-Matrix (Vanderbilt PP)
 Fermi weights with tetrahedron method with Bloechl corrections


--------------------------------------------------------------------------------------------------------


  energy-cutoff  :      520.00
  volume of cell :      968.84
      direct lattice vectors                 reciprocal lattice vectors
     6.907777000 -0.000000000  0.000000000     0.144764372 -0.083579742  0.000000000
     3.453888000  5.982310000  0.000000000     0.000000000  0.167159509 -0.000000000
     0.000000000  0.000000000 23.444588000    -0.000000000  0.000000000  0.042653767

  length of vectors
     6.907777000  6.907776433 23.444588000     0.167159495  0.167159509  0.042653767



 k-points in units of 2pi/SCALE and weight: Kpoints from vasprun.xml                
   0.00000000  0.00000000  0.00000000       0.040
   0.02895287 -0.01671595  0.00000000       0.240
   0.05790575 -0.03343190  0.00000000       0.240
   0.05790575  0.00000000  0.00000000       0.240
  -0.05790575  0.06686380  0.00000000       0.240

 k-points in reciprocal lattice and weights: Kpoints from vasprun.xml                
   0.00000000  0.00000000  0.00000000       0.040
   0.20000000  0.00000000  0.00000000       0.240
   0.40000000  0.00000000  0.00000000       0.240
   0.40000000  0.20000000  0.00000000       0.240
  -0.40000000  0.20000000  0.00000000       0.240

 position of ions in fractional coordinates (direct lattice) 
   0.33333300  0.33333300  0.49992500
   0.66666700  0.66666700  0.50007500
   0.00000000  0.00000000  0.44821600
   0.00000000  0.00000000  0.55178400
   0.62635700  0.00042000  0.57375200
   0.00042000  0.37322400  0.57375200
   0.37322400  0.62635700  0.57375200
   0.37364300  0.99958000  0.42624800
   0.99958000  0.62677600  0.42624800
   0.62677600  0.37364300  0.42624800

 position of ions in cartesian coordinates  (Angst):
   3.45388488  1.99410134 11.72053566
   6.90778012  3.98820866 11.72405234
   0.00000000  0.00000000 10.50823946
   0.00000000  0.00000000 12.93634854
   4.32818511  0.00251257 13.45137925
   1.29197516  2.23274167 13.45137925
   4.74151509  3.74706174 13.45137925
   6.03347989  5.97979743  9.99320875
   9.06968984  3.74956833  9.99320875
   5.62014991  2.23524826  9.99320875



--------------------------------------------------------------------------------------------------------


 k-point  1 :   0.0000 0.0000 0.0000  plane waves:   26073
 k-point  2 :   0.2000 0.0000 0.0000  plane waves:   26070
 k-point  3 :   0.4000 0.0000 0.0000  plane waves:   26086
 k-point  4 :   0.4000 0.2000 0.0000  plane waves:   26085
 k-point  5 :  -0.4000 0.2000 0.0000  plane waves:   26115

 maximum and minimum number of plane-waves per node :     26115    26070

 maximum number of plane-waves:     26115
 maximum index in each direction: 
   IXMAX=   13   IYMAX=   12   IZMAX=   43
   IXMIN=  -13   IYMIN=  -13   IZMIN=  -43


 serial   3D FFT for wavefunctions
 parallel 3D FFT for charge:
    minimum data exchange during FFTs selected (reduces bandwidth)


 total amount of memory used by VASP MPI-rank0   129886. kBytes
=======================================================================

   base      :      30000. kBytes
   nonlr-proj:       7386. kBytes
   fftplans  :      11247. kBytes
   grid      :      68332. kBytes
   one-center:        311. kBytes
   wavefun   :      12610. kBytes

     INWAV:  cpu time    0.0000: real time    0.0004
 Broyden mixing: mesh for mixing (old mesh)
   NGX = 25   NGY = 25   NGZ = 87
  (NGX  =108   NGY  =108   NGZ  =360)
  gives a total of  54375 points

 initial charge density was supplied:
 charge density of overlapping atoms calculated
 number of electron      61.0000000 magnetization       7.2600000
 keeping initial charge density in first step


--------------------------------------------------------------------------------------------------------


 Maximum index for non-local projection operator         7925
 Maximum index for augmentation-charges         1715 (set IRDMAX)


--------------------------------------------------------------------------------------------------------


 First call to EWALD:  gamma=   0.179
 Maximum number of real-space cells 4x 4x 1
 Maximum number of reciprocal cells 2x 2x 6

    FEWALD:  cpu time    0.0000: real time    0.0015


--------------------------------------- Iteration      1(   1)  ---------------------------------------


vdW kernel read from vdw_kernel.bindat
  0.0000  0.2424  0.5071  0.7962  1.1119  1.4567  1.8333  2.2446  2.6937  3.1842
  3.7199  4.3049  4.9438  5.6415  6.4036  7.2358  8.1446  9.1372 10.2212 11.4050
 12.6979 14.1099 15.6519 17.3360 19.1751 21.1837 23.3773 25.7729 28.3892 31.2465
 34.3669 37.7748 41.4965 45.5611 50.0000

    POTLOK:  cpu time   52.7600: real time   52.9839
    SETDIJ:  cpu time    0.0400: real time    0.0425
     EDDAV:  cpu time   22.2400: real time   22.8522
 BZINTS: Fermi energy:  5.109765; 61.000000 electrons
         Band energy: -25.567469;  BLOECHL correction: -0.032913
       DOS:  cpu time    0.0080: real time    0.0081
    --------------------------------------------
      LOOP:  cpu time   75.0480: real time   75.8867

 eigenvalue-minimisations  :   960
 total energy-change (2. order) : 0.4134833E+03  (-0.1804766E+04)
 number of electron      61.0000000 magnetization       7.2600000
 augmentation part       61.0000000 magnetization       7.2600000

 Free energy of the ion-electron system (eV)
  ---------------------------------------------------
  alpha Z        PSCENC =        34.61145375
  Ewald energy   TEWEN  =      7259.79945079
  -Hartree energ DENC   =     -9969.65472485
  -exchange      EXHF   =         0.00000000
  -V(xc)+E(xc)   XCENC  =       -10.48851139
  PAW double counting   =      1671.50101530    -1570.88583900
  entropy T*S    EENTRO =         0.00000000
  eigenvalues    EBANDS =       -25.56746938
  atomic energy  EATOM  =      3024.16793347
  Solvation  Ediel_sol  =         0.00000000
  ---------------------------------------------------
  free energy    TOTEN  =       413.48330868 eV

  energy without entropy =      413.48330868  energy(sigma->0) =      413.48330868


--------------------------------------------------------------------------------------------------------




--------------------------------------- Iteration      1(   2)  ---------------------------------------


     EDDAV:  cpu time   28.8040: real time   28.9952
 BZINTS: Fermi energy: -1.208161; 61.000000 electrons
         Band energy:-415.851362;  BLOECHL correction: -0.141020
       DOS:  cpu time    0.0040: real time    0.0050
    --------------------------------------------
      LOOP:  cpu time   28.8080: real time   29.0001

 eigenvalue-minimisations  :  1248
 total energy-change (2. order) :-0.3902839E+03  (-0.3650013E+03)
 number of electron      61.0000000 magnetization       7.2600000
 augmentation part       61.0000000 magnetization       7.2600000

 Free energy of the ion-electron system (eV)
  ---------------------------------------------------
  alpha Z        PSCENC =        34.61145375
  Ewald energy   TEWEN  =      7259.79945079
  -Hartree energ DENC   =     -9969.65472485
  -exchange      EXHF   =         0.00000000
  -V(xc)+E(xc)   XCENC  =       -10.48851139
  PAW double counting   =      1671.50101530    -1570.88583900
  entropy T*S    EENTRO =         0.00000000
  eigenvalues    EBANDS =      -415.85136176
  atomic energy  EATOM  =      3024.16793347
  Solvation  Ediel_sol  =         0.00000000
  ---------------------------------------------------
  free energy    TOTEN  =        23.19941630 eV

  energy without entropy =       23.19941630  energy(sigma->0) =       23.19941630


--------------------------------------------------------------------------------------------------------




--------------------------------------- Iteration      1(   3)  ---------------------------------------


     EDDAV:  cpu time   28.4280: real time   28.9428
 BZINTS: Fermi energy: -2.597209; 61.000000 electrons
         Band energy:-484.453507;  BLOECHL correction: -0.009994
       DOS:  cpu time    0.0080: real time    0.0050
    --------------------------------------------
      LOOP:  cpu time   28.4360: real time   28.9478

 eigenvalue-minimisations  :  1248
 total energy-change (2. order) :-0.6860215E+02  (-0.6693790E+02)
 number of electron      61.0000000 magnetization       7.2600000
 augmentation part       61.0000000 magnetization       7.2600000

 Free energy of the ion-electron system (eV)
  ---------------------------------------------------
  alpha Z        PSCENC =        34.61145375
  Ewald energy   TEWEN  =      7259.79945079
  -Hartree energ DENC   =     -9969.65472485
  -exchange      EXHF   =         0.00000000
  -V(xc)+E(xc)   XCENC  =       -10.48851139
  PAW double counting   =      1671.50101530    -1570.88583900
  entropy T*S    EENTRO =         0.00000000
  eigenvalues    EBANDS =      -484.45350727
  atomic energy  EATOM  =      3024.16793347
  Solvation  Ediel_sol  =         0.00000000
  ---------------------------------------------------
  free energy    TOTEN  =       -45.40272922 eV

  energy without entropy =      -45.40272922  energy(sigma->0) =      -45.40272922


--------------------------------------------------------------------------------------------------------




--------------------------------------- Iteration      1(   4)  ---------------------------------------


     EDDAV:  cpu time   27.8160: real time   28.2129
 BZINTS: Fermi energy: -2.633659; 61.000000 electrons
         Band energy:-487.464223;  BLOECHL correction: -0.012042
       DOS:  cpu time    0.0040: real time    0.0054
    --------------------------------------------
      LOOP:  cpu time   27.8200: real time   28.2183

 eigenvalue-minimisations  :  1216
 total energy-change (2. order) :-0.3010716E+01  (-0.2962874E+01)
 number of electron      61.0000000 magnetization       7.2600000
 augmentation part       61.0000000 magnetization       7.2600000

 Free energy of the ion-electron system (eV)
  ---------------------------------------------------
  alpha Z        PSCENC =        34.61145375
  Ewald energy   TEWEN  =      7259.79945079
  -Hartree energ DENC   =     -9969.65472485
  -exchange      EXHF   =         0.00000000
  -V(xc)+E(xc)   XCENC  =       -10.48851139
  PAW double counting   =      1671.50101530    -1570.88583900
  entropy T*S    EENTRO =         0.00000000
  eigenvalues    EBANDS =      -487.46422318
  atomic energy  EATOM  =      3024.16793347
  Solvation  Ediel_sol  =         0.00000000
  ---------------------------------------------------
  free energy    TOTEN  =       -48.41344512 eV

  energy without entropy =      -48.41344512  energy(sigma->0) =      -48.41344512


--------------------------------------------------------------------------------------------------------




--------------------------------------- Iteration      1(   5)  ---------------------------------------


     EDDAV:  cpu time   28.3040: real time   28.4416
 BZINTS: Fermi energy: -2.634082; 61.000000 electrons
         Band energy:-487.540560;  BLOECHL correction: -0.012014
       DOS:  cpu time    0.0040: real time    0.0061
    CHARGE:  cpu time    2.0400: real time    2.0460
    MIXING:  cpu time    0.0600: real time    0.0597
    --------------------------------------------
      LOOP:  cpu time   30.4080: real time   30.5535

 eigenvalue-minimisations  :  1232
 total energy-change (2. order) :-0.7633726E-01  (-0.7628915E-01)
 number of electron      61.0000002 magnetization       7.2439033
 augmentation part       -2.6944844 magnetization       5.1657532

 Broyden mixing:
  rms(total) = 0.25213E+01    rms(broyden)= 0.25212E+01
  rms(prec ) = 0.27843E+01
  weight for this iteration     100.00

 Free energy of the ion-electron system (eV)
  ---------------------------------------------------
  alpha Z        PSCENC =        34.61145375
  Ewald energy   TEWEN  =      7259.79945079
  -Hartree energ DENC   =     -9969.65472485
  -exchange      EXHF   =         0.00000000
  -V(xc)+E(xc)   XCENC  =       -10.48851139
  PAW double counting   =      1671.50101530    -1570.88583900
  entropy T*S    EENTRO =         0.00000000
  eigenvalues    EBANDS =      -487.54056044
  atomic energy  EATOM  =      3024.16793347
  Solvation  Ediel_sol  =         0.00000000
  ---------------------------------------------------
  free energy    TOTEN  =       -48.48978238 eV

  energy without entropy =      -48.48978238  energy(sigma->0) =      -48.48978238


--------------------------------------------------------------------------------------------------------




--------------------------------------- Iteration      1(   6)  ---------------------------------------


    POTLOK:  cpu time   52.2360: real time   52.3822
    SETDIJ:  cpu time    0.0440: real time    0.0435
     EDDAV:  cpu time   26.8400: real time   27.0153
 BZINTS: Fermi energy: -4.660073; 61.000000 electrons
         Band energy:-661.856043;  BLOECHL correction: -0.017026
       DOS:  cpu time    0.0040: real time    0.0074
    CHARGE:  cpu time    2.0200: real time    2.0209
    MIXING:  cpu time    0.0440: real time    0.0414
    --------------------------------------------
      LOOP:  cpu time   81.1880: real time   81.5106

 eigenvalue-minimisations  :  1152
 total energy-change (2. order) :-0.5715932E+02  (-0.3312513E+02)
 number of electron      61.0000011 magnetization       7.0331892
 augmentation part        8.1917689 magnetization       6.9220776

 Broyden mixing:
  rms(total) = 0.63991E+01    rms(broyden)= 0.63990E+01
  rms(prec ) = 0.68610E+01
  weight for this iteration     100.00

 eigenvalues of (default mixing * dielectric matrix)
  average eigenvalue GAMMA=   0.2282
  0.2282

 Free energy of the ion-electron system (eV)
  ---------------------------------------------------
  alpha Z        PSCENC =        34.61145375
  Ewald energy   TEWEN  =      7259.79945079
  -Hartree energ DENC   =     -9865.48891766
  -exchange      EXHF   =         0.00000000
  -V(xc)+E(xc)   XCENC  =       -10.15905486
  PAW double counting   =      1505.36055249    -1392.08447613
  entropy T*S    EENTRO =         0.00000000
  eigenvalues    EBANDS =      -661.85604299
  atomic energy  EATOM  =      3024.16793347
  Solvation  Ediel_sol  =         0.00000000
  ---------------------------------------------------
  free energy    TOTEN  =      -105.64910115 eV

  energy without entropy =     -105.64910115  energy(sigma->0) =     -105.64910115


--------------------------------------------------------------------------------------------------------




--------------------------------------- Iteration      1(   7)  ---------------------------------------


    POTLOK:  cpu time   51.9320: real time   52.2272
    SETDIJ:  cpu time    0.0680: real time    0.0697
     EDDAV:  cpu time   28.6000: real time   29.0513
 BZINTS: Fermi energy: -4.598127; 61.030503 electrons
         Band energy:-524.623697;  BLOECHL correction: -0.019600
       DOS:  cpu time    0.0080: real time    0.0090
    CHARGE:  cpu time    2.0560: real time    2.0750
    MIXING:  cpu time    0.0400: real time    0.0407
    --------------------------------------------
      LOOP:  cpu time   82.7040: real time   83.4728

 eigenvalue-minimisations  :  1248
 total energy-change (2. order) : 0.6042786E+02  (-0.6405413E+01)
 number of electron      61.0305040 magnetization       6.7425853
 augmentation part        5.1654429 magnetization       6.9598897

 Broyden mixing:
  rms(total) = 0.32426E+01    rms(broyden)= 0.32425E+01
  rms(prec ) = 0.35267E+01
  weight for this iteration     100.00

 eigenvalues of (default mixing * dielectric matrix)
  average eigenvalue GAMMA=   0.4815
  0.4815  0.4815

 Free energy of the ion-electron system (eV)
  ---------------------------------------------------
  alpha Z        PSCENC =        34.61145375
  Ewald energy   TEWEN  =      7259.79945079
  -Hartree energ DENC   =     -9928.99486303
  -exchange      EXHF   =         0.00000000
  -V(xc)+E(xc)   XCENC  =       -11.88196680
  PAW double counting   =      1618.64122764    -1516.94077556
  entropy T*S    EENTRO =         0.00000000
  eigenvalues    EBANDS =      -524.62369700
  atomic energy  EATOM  =      3024.16793347
  Solvation  Ediel_sol  =         0.00000000
  ---------------------------------------------------
  free energy    TOTEN  =       -45.22123674 eV

  energy without entropy =      -45.22123674  energy(sigma->0) =      -45.22123674


--------------------------------------------------------------------------------------------------------




--------------------------------------- Iteration      1(   8)  ---------------------------------------


    POTLOK:  cpu time   52.1160: real time   52.4321
    SETDIJ:  cpu time    0.0320: real time    0.0366
     EDDAV:  cpu time   29.2960: real time   30.1370
 BZINTS: Fermi energy: -3.023584; 61.000000 electrons
         Band energy:-488.687426;  BLOECHL correction: -0.013683
       DOS:  cpu time    0.0080: real time    0.0068
    CHARGE:  cpu time    2.0600: real time    2.0663
    MIXING:  cpu time    0.0520: real time    0.0528
    --------------------------------------------
      LOOP:  cpu time   83.5640: real time   84.7316

 eigenvalue-minimisations  :  1312
 total energy-change (2. order) : 0.3218757E+01  (-0.4089787E+01)
 number of electron      61.0000002 magnetization       6.8466075
 augmentation part       -1.1737460 magnetization       3.9973897

 Broyden mixing:
  rms(total) = 0.23294E+01    rms(broyden)= 0.23292E+01
  rms(prec ) = 0.24354E+01
  weight for this iteration     100.00

 eigenvalues of (default mixing * dielectric matrix)
  average eigenvalue GAMMA=   0.4062
  0.4879  0.3654  0.3654

 Free energy of the ion-electron system (eV)
  ---------------------------------------------------
  alpha Z        PSCENC =        34.61145375
  Ewald energy   TEWEN  =      7259.79945079
  -Hartree energ DENC   =     -9960.06533674
  -exchange      EXHF   =         0.00000000
  -V(xc)+E(xc)   XCENC  =       -11.83961491
  PAW double counting   =      1677.28476928    -1577.27370900
  entropy T*S    EENTRO =         0.00000000
  eigenvalues    EBANDS =      -488.68742605
  atomic energy  EATOM  =      3024.16793347
  Solvation  Ediel_sol  =         0.00000000
  ---------------------------------------------------
  free energy    TOTEN  =       -42.00247941 eV

  energy without entropy =      -42.00247941  energy(sigma->0) =      -42.00247941


--------------------------------------------------------------------------------------------------------




--------------------------------------- Iteration      1(   9)  ---------------------------------------


    POTLOK:  cpu time   52.0840: real time   52.2149
    SETDIJ:  cpu time    0.0440: real time    0.0430
     EDDAV:  cpu time   31.4040: real time   31.6998
 BZINTS: Fermi energy: -3.586197; 61.000000 electrons
         Band energy:-502.691477;  BLOECHL correction: -0.020610
       DOS:  cpu time    0.0040: real time    0.0069
    CHARGE:  cpu time    2.0280: real time    2.0488
    MIXING:  cpu time    0.0440: real time    0.0443
    --------------------------------------------
      LOOP:  cpu time   85.6080: real time   86.0576

 eigenvalue-minimisations  :  1392
 total energy-change (2. order) : 0.1250455E+01  (-0.6961344E+00)
 number of electron      61.0000004 magnetization       6.8649972
 augmentation part        0.6662315 magnetization       4.2259533

 Broyden mixing:
  rms(total) = 0.80280E+00    rms(broyden)= 0.80274E+00
  rms(prec ) = 0.81427E+00
  weight for this iteration     100.00

 eigenvalues of (default mixing * dielectric matrix)
  average eigenvalue GAMMA=   0.3125
  0.4708  0.3606  0.3606  0.0580

 Free energy of the ion-electron system (eV)
  ---------------------------------------------------
  alpha Z        PSCENC =        34.61145375
  Ewald energy   TEWEN  =      7259.79945079
  -Hartree energ DENC   =     -9945.18994845
  -exchange      EXHF   =         0.00000000
  -V(xc)+E(xc)   XCENC  =       -11.23047193
  PAW double counting   =      1650.83231131    -1551.05127542
  entropy T*S    EENTRO =         0.00000000
  eigenvalues    EBANDS =      -502.69147749
  atomic energy  EATOM  =      3024.16793347
  Solvation  Ediel_sol  =         0.00000000
  ---------------------------------------------------
  free energy    TOTEN  =       -40.75202397 eV

  energy without entropy =      -40.75202397  energy(sigma->0) =      -40.75202397


--------------------------------------------------------------------------------------------------------




--------------------------------------- Iteration      1(  10)  ---------------------------------------


    POTLOK:  cpu time   50.4160: real time   51.2858
    SETDIJ:  cpu time    0.0480: real time    0.0477
     EDDAV:  cpu time   32.9320: real time   33.5126
 BZINTS: Fermi energy: -3.621118; 61.000000 electrons
         Band energy:-503.133611;  BLOECHL correction: -0.020989
       DOS:  cpu time    0.0080: real time    0.0071
    CHARGE:  cpu time    2.0320: real time    2.0499
    MIXING:  cpu time    0.0400: real time    0.0426
    --------------------------------------------
      LOOP:  cpu time   85.4760: real time   86.9456

 eigenvalue-minimisations  :  1488
 total energy-change (2. order) :-0.7167034E-01  (-0.7137901E-01)
 number of electron      61.0000004 magnetization       6.8869466
 augmentation part        0.7586634 magnetization       4.3121952

 Broyden mixing:
  rms(total) = 0.84879E+00    rms(broyden)= 0.84874E+00
  rms(prec ) = 0.87379E+00
  weight for this iteration     100.00

 eigenvalues of (default mixing * dielectric matrix)
  average eigenvalue GAMMA=   0.2684
  0.4234  0.3535  0.3535  0.1501  0.0612

 Free energy of the ion-electron system (eV)
  ---------------------------------------------------
  alpha Z        PSCENC =        34.61145375
  Ewald energy   TEWEN  =      7259.79945079
  -Hartree energ DENC   =     -9944.85400930
  -exchange      EXHF   =         0.00000000
  -V(xc)+E(xc)   XCENC  =       -11.13124329
  PAW double counting   =      1650.28179914    -1550.56546757
  entropy T*S    EENTRO =         0.00000000
  eigenvalues    EBANDS =      -503.13361130
  atomic energy  EATOM  =      3024.16793347
  Solvation  Ediel_sol  =         0.00000000
  ---------------------------------------------------
  free energy    TOTEN  =       -40.82369431 eV

  energy without entropy =      -40.82369431  energy(sigma->0) =      -40.82369431


--------------------------------------------------------------------------------------------------------




--------------------------------------- Iteration      1(  11)  ---------------------------------------


    POTLOK:  cpu time   50.9080: real time   51.0598
    SETDIJ:  cpu time    0.0480: real time    0.0483
     EDDAV:  cpu time   28.0520: real time   28.2434
 BZINTS: Fermi energy: -3.632554; 61.000000 electrons
         Band energy:-503.576823;  BLOECHL correction: -0.020202
       DOS:  cpu time    0.0040: real time    0.0078
    CHARGE:  cpu time    1.9840: real time    2.0404
    MIXING:  cpu time    0.0520: real time    0.0507
    --------------------------------------------
      LOOP:  cpu time   81.0480: real time   81.4504

 eigenvalue-minimisations  :  1232
 total energy-change (2. order) :-0.1074838E-01  (-0.3322339E-01)
 number of electron      61.0000004 magnetization       7.0433806
 augmentation part        0.7903515 magnetization       4.4610366

 Broyden mixing:
  rms(total) = 0.64957E+00    rms(broyden)= 0.64954E+00
  rms(prec ) = 0.65712E+00
  weight for this iteration     100.00

 eigenvalues of (default mixing * dielectric matrix)
  average eigenvalue GAMMA=   0.4925
  0.7541  0.7541  0.5666  0.4198  0.4198  0.0407

 Free energy of the ion-electron system (eV)
  ---------------------------------------------------
  alpha Z        PSCENC =        34.61145375
  Ewald energy   TEWEN  =      7259.79945079
  -Hartree energ DENC   =     -9944.47574795
  -exchange      EXHF   =         0.00000000
  -V(xc)+E(xc)   XCENC  =       -11.01043393
  PAW double counting   =      1649.67171648    -1550.02199234
  entropy T*S    EENTRO =         0.00000000
  eigenvalues    EBANDS =      -503.57682295
  atomic energy  EATOM  =      3024.16793347
  Solvation  Ediel_sol  =         0.00000000
  ---------------------------------------------------
  free energy    TOTEN  =       -40.83444268 eV

  energy without entropy =      -40.83444268  energy(sigma->0) =      -40.83444268


--------------------------------------------------------------------------------------------------------




--------------------------------------- Iteration      1(  12)  ---------------------------------------


    POTLOK:  cpu time   50.6240: real time   51.0620
    SETDIJ:  cpu time    0.0440: real time    0.0437
     EDDAV:  cpu time   29.7800: real time   30.2620
 BZINTS: Fermi energy: -3.724285; 61.000000 electrons
         Band energy:-506.278214;  BLOECHL correction: -0.016971
       DOS:  cpu time    0.0040: real time    0.0067
    CHARGE:  cpu time    2.0440: real time    2.1047
    MIXING:  cpu time    0.0480: real time    0.0445
    --------------------------------------------
      LOOP:  cpu time   82.5440: real time   83.5237

 eigenvalue-minimisations  :  1328
 total energy-change (2. order) :-0.3399393E+00  (-0.1430910E+00)
 number of electron      61.0000004 magnetization       7.0762185
 augmentation part        0.9988321 magnetization       4.6684299

 Broyden mixing:
  rms(total) = 0.95864E+00    rms(broyden)= 0.95851E+00
  rms(prec ) = 0.10276E+01
  weight for this iteration     100.00

 eigenvalues of (default mixing * dielectric matrix)
  average eigenvalue GAMMA=   0.5177
  0.8901  0.8901  0.4223  0.4223  0.5734  0.3845  0.0414

 Free energy of the ion-electron system (eV)
  ---------------------------------------------------
  alpha Z        PSCENC =        34.61145375
  Ewald energy   TEWEN  =      7259.79945079
  -Hartree energ DENC   =     -9942.45328065
  -exchange      EXHF   =         0.00000000
  -V(xc)+E(xc)   XCENC  =       -10.11801614
  PAW double counting   =      1646.97044945    -1547.87415892
  entropy T*S    EENTRO =         0.00000000
  eigenvalues    EBANDS =      -506.27821377
  atomic energy  EATOM  =      3024.16793347
  Solvation  Ediel_sol  =         0.00000000
  ---------------------------------------------------
  free energy    TOTEN  =       -41.17438202 eV

  energy without entropy =      -41.17438202  energy(sigma->0) =      -41.17438202


--------------------------------------------------------------------------------------------------------




--------------------------------------- Iteration      1(  13)  ---------------------------------------


    POTLOK:  cpu time   50.8400: real time   51.1140
    SETDIJ:  cpu time    0.0640: real time    0.0637
     EDDAV:  cpu time   32.0520: real time   32.3509
 BZINTS: Fermi energy: -3.622183; 61.000000 electrons
         Band energy:-505.998210;  BLOECHL correction: -0.023514
       DOS:  cpu time    0.0040: real time    0.0062
    CHARGE:  cpu time    2.0680: real time    2.0796
    MIXING:  cpu time    0.0480: real time    0.0452
    --------------------------------------------
      LOOP:  cpu time   85.0760: real time   85.6597

 eigenvalue-minimisations  :  1424
 total energy-change (2. order) : 0.1313782E+00  (-0.3359179E-01)
 number of electron      61.0000004 magnetization       7.2005405
 augmentation part        0.7279554 magnetization       4.5269859

 Broyden mixing:
  rms(total) = 0.55538E+00    rms(broyden)= 0.55536E+00
  rms(prec ) = 0.58389E+00
  weight for this iteration     100.00

 eigenvalues of (default mixing * dielectric matrix)
  average eigenvalue GAMMA=   0.5826
  1.0508  1.0508  0.4353  0.4353  0.5923  0.5923  0.4624  0.0414

 Free energy of the ion-electron system (eV)
  ---------------------------------------------------
  alpha Z        PSCENC =        34.61145375
  Ewald energy   TEWEN  =      7259.79945079
  -Hartree energ DENC   =     -9942.61453839
  -exchange      EXHF   =         0.00000000
  -V(xc)+E(xc)   XCENC  =        -9.86353803
  PAW double counting   =      1648.66234124    -1549.80789647
  entropy T*S    EENTRO =         0.00000000
  eigenvalues    EBANDS =      -505.99821021
  atomic energy  EATOM  =      3024.16793347
  Solvation  Ediel_sol  =         0.00000000
  ---------------------------------------------------
  free energy    TOTEN  =       -41.04300386 eV

  energy without entropy =      -41.04300386  energy(sigma->0) =      -41.04300386


--------------------------------------------------------------------------------------------------------




--------------------------------------- Iteration      1(  14)  ---------------------------------------


    POTLOK:  cpu time   50.7480: real time   51.0382
    SETDIJ:  cpu time    0.0440: real time    0.0424
     EDDAV:  cpu time   30.5800: real time   30.8007
 BZINTS: Fermi energy: -3.543722; 61.000000 electrons
         Band energy:-506.496374;  BLOECHL correction: -0.006197
       DOS:  cpu time    0.0040: real time    0.0071
    CHARGE:  cpu time    2.0200: real time    2.0354
    MIXING:  cpu time    0.0440: real time    0.0456
    --------------------------------------------
      LOOP:  cpu time   83.4400: real time   83.9694

 eigenvalue-minimisations  :  1360
 total energy-change (2. order) :-0.5614642E-01  (-0.5017686E-01)
 number of electron      61.0000003 magnetization       7.2789749
 augmentation part        0.3952725 magnetization       3.9758458

 Broyden mixing:
  rms(total) = 0.55438E+00    rms(broyden)= 0.55424E+00
  rms(prec ) = 0.57837E+00
  weight for this iteration     100.00

 eigenvalues of (default mixing * dielectric matrix)
  average eigenvalue GAMMA=   0.6038
  1.1398  1.1398  0.5589  0.5589  0.4439  0.4439  0.5537  0.5537  0.0414

 Free energy of the ion-electron system (eV)
  ---------------------------------------------------
  alpha Z        PSCENC =        34.61145375
  Ewald energy   TEWEN  =      7259.79945079
  -Hartree energ DENC   =     -9942.27592719
  -exchange      EXHF   =         0.00000000
  -V(xc)+E(xc)   XCENC  =        -9.19562714
  PAW double counting   =      1649.85944840    -1551.56950835
  entropy T*S    EENTRO =         0.00000000
  eigenvalues    EBANDS =      -506.49637401
  atomic energy  EATOM  =      3024.16793347
  Solvation  Ediel_sol  =         0.00000000
  ---------------------------------------------------
  free energy    TOTEN  =       -41.09915029 eV

  energy without entropy =      -41.09915029  energy(sigma->0) =      -41.09915029


--------------------------------------------------------------------------------------------------------




--------------------------------------- Iteration      1(  15)  ---------------------------------------


    POTLOK:  cpu time   51.8840: real time   52.3444
    SETDIJ:  cpu time    0.0440: real time    0.0423
     EDDAV:  cpu time   29.7680: real time   30.2325
 BZINTS: Fermi energy: -3.501395; 61.000000 electrons
         Band energy:-505.918559;  BLOECHL correction: -0.001886
       DOS:  cpu time    0.0040: real time    0.0069
    CHARGE:  cpu time    2.0360: real time    2.0581
    MIXING:  cpu time    0.0480: real time    0.0502
    --------------------------------------------
      LOOP:  cpu time   83.7840: real time   84.7345

 eigenvalue-minimisations  :  1328
 total energy-change (2. order) :-0.5934767E-01  (-0.6239202E-02)
 number of electron      61.0000003 magnetization       7.4110713
 augmentation part        0.2927687 magnetization       4.0274701

 Broyden mixing:
  rms(total) = 0.60833E+00    rms(broyden)= 0.60832E+00
  rms(prec ) = 0.64014E+00
  weight for this iteration     100.00

 eigenvalues of (default mixing * dielectric matrix)
  average eigenvalue GAMMA=   0.7025
  1.3897  1.3897  0.7407  0.7407  0.4364  0.4364  0.6882  0.6882  0.4739  0.0414

 Free energy of the ion-electron system (eV)
  ---------------------------------------------------
  alpha Z        PSCENC =        34.61145375
  Ewald energy   TEWEN  =      7259.79945079
  -Hartree energ DENC   =     -9942.85087071
  -exchange      EXHF   =         0.00000000
  -V(xc)+E(xc)   XCENC  =        -9.03395229
  PAW double counting   =      1651.03755944    -1552.97151376
  entropy T*S    EENTRO =         0.00000000
  eigenvalues    EBANDS =      -505.91855865
  atomic energy  EATOM  =      3024.16793347
  Solvation  Ediel_sol  =         0.00000000
  ---------------------------------------------------
  free energy    TOTEN  =       -41.15849796 eV

  energy without entropy =      -41.15849796  energy(sigma->0) =      -41.15849796


--------------------------------------------------------------------------------------------------------




--------------------------------------- Iteration      1(  16)  ---------------------------------------


    POTLOK:  cpu time   50.8440: real time   51.0725
    SETDIJ:  cpu time    0.0320: real time    0.0319
     EDDAV:  cpu time   28.8320: real time   29.0708
 BZINTS: Fermi energy: -3.504346; 61.000000 electrons
         Band energy:-506.346859;  BLOECHL correction: -0.001469
       DOS:  cpu time    0.0040: real time    0.0070
    CHARGE:  cpu time    1.9640: real time    2.0308
    MIXING:  cpu time    0.0560: real time    0.0523
    --------------------------------------------
      LOOP:  cpu time   81.7320: real time   82.2652

 eigenvalue-minimisations  :  1280
 total energy-change (2. order) : 0.3099051E-01  (-0.2441051E-02)
 number of electron      61.0000003 magnetization       7.6168037
 augmentation part        0.3421105 magnetization       4.2043241

 Broyden mixing:
  rms(total) = 0.51823E+00    rms(broyden)= 0.51822E+00
  rms(prec ) = 0.54763E+00
  weight for this iteration     100.00

 eigenvalues of (default mixing * dielectric matrix)
  average eigenvalue GAMMA=   0.7755
  1.5204  1.5204  1.2428  0.7711  0.7711  0.4363  0.4363  0.6537  0.6537  0.4837
  0.0414

 Free energy of the ion-electron system (eV)
  ---------------------------------------------------
  alpha Z        PSCENC =        34.61145375
  Ewald energy   TEWEN  =      7259.79945079
  -Hartree energ DENC   =     -9942.38833556
  -exchange      EXHF   =         0.00000000
  -V(xc)+E(xc)   XCENC  =        -8.81182959
  PAW double counting   =      1650.19756959    -1552.35689059
  entropy T*S    EENTRO =         0.00000000
  eigenvalues    EBANDS =      -506.34685930
  atomic energy  EATOM  =      3024.16793347
  Solvation  Ediel_sol  =         0.00000000
  ---------------------------------------------------
  free energy    TOTEN  =       -41.12750744 eV

  energy without entropy =      -41.12750744  energy(sigma->0) =      -41.12750744


--------------------------------------------------------------------------------------------------------




--------------------------------------- Iteration      1(  17)  ---------------------------------------


    POTLOK:  cpu time   50.9240: real time   51.1251
    SETDIJ:  cpu time    0.0440: real time    0.0424
     EDDAV:  cpu time   29.0920: real time   29.4599
 BZINTS: Fermi energy: -3.554153; 61.000000 electrons
         Band energy:-507.309501;  BLOECHL correction: -0.003178
       DOS:  cpu time    0.0040: real time    0.0072
    CHARGE:  cpu time    2.0720: real time    2.0776
    MIXING:  cpu time    0.0520: real time    0.0521
    --------------------------------------------
      LOOP:  cpu time   82.1880: real time   82.7644

 eigenvalue-minimisations  :  1296
 total energy-change (2. order) : 0.4452006E-01  (-0.4693517E-02)
 number of electron      61.0000003 magnetization       7.8232060
 augmentation part        0.4823314 magnetization       4.3542391

 Broyden mixing:
  rms(total) = 0.37965E+00    rms(broyden)= 0.37965E+00
  rms(prec ) = 0.40112E+00
  weight for this iteration     100.00

 eigenvalues of (default mixing * dielectric matrix)
  average eigenvalue GAMMA=   0.8582
  1.9396  1.9396  1.2470  0.7740  0.7740  0.4368  0.4368  0.7800  0.7800  0.6649
  0.4846  0.0414

 Free energy of the ion-electron system (eV)
  ---------------------------------------------------
  alpha Z        PSCENC =        34.61145375
  Ewald energy   TEWEN  =      7259.79945079
  -Hartree energ DENC   =     -9941.32166785
  -exchange      EXHF   =         0.00000000
  -V(xc)+E(xc)   XCENC  =        -8.66030748
  PAW double counting   =      1648.27202108    -1550.64236981
  entropy T*S    EENTRO =         0.00000000
  eigenvalues    EBANDS =      -507.30950133
  atomic energy  EATOM  =      3024.16793347
  Solvation  Ediel_sol  =         0.00000000
  ---------------------------------------------------
  free energy    TOTEN  =       -41.08298738 eV

  energy without entropy =      -41.08298738  energy(sigma->0) =      -41.08298738


--------------------------------------------------------------------------------------------------------




--------------------------------------- Iteration      1(  18)  ---------------------------------------


    POTLOK:  cpu time   50.8040: real time   50.9938
    SETDIJ:  cpu time    0.0440: real time    0.0438
     EDDAV:  cpu time   29.4160: real time   29.7817
 BZINTS: Fermi energy: -3.603336; 61.000000 electrons
         Band energy:-508.440097;  BLOECHL correction: -0.012458
       DOS:  cpu time    0.0040: real time    0.0073
    CHARGE:  cpu time    2.0120: real time    2.0308
    MIXING:  cpu time    0.0480: real time    0.0507
    --------------------------------------------
      LOOP:  cpu time   82.3280: real time   82.9082

 eigenvalue-minimisations  :  1312
 total energy-change (2. order) : 0.1925948E-01  (-0.4143423E-02)
 number of electron      61.0000003 magnetization       7.8580186
 augmentation part        0.6980209 magnetization       4.5555187

 Broyden mixing:
  rms(total) = 0.22687E+00    rms(broyden)= 0.22686E+00
  rms(prec ) = 0.23882E+00
  weight for this iteration     100.00

 eigenvalues of (default mixing * dielectric matrix)
  average eigenvalue GAMMA=   0.8552
  1.9593  1.9593  1.1721  0.9616  0.9616  0.7679  0.7679  0.4367  0.4367  0.6191
  0.4792  0.5550  0.0414

 Free energy of the ion-electron system (eV)
  ---------------------------------------------------
  alpha Z        PSCENC =        34.61145375
  Ewald energy   TEWEN  =      7259.79945079
  -Hartree energ DENC   =     -9940.10334763
  -exchange      EXHF   =         0.00000000
  -V(xc)+E(xc)   XCENC  =        -8.69351185
  PAW double counting   =      1646.34299758    -1548.74860726
  entropy T*S    EENTRO =         0.00000000
  eigenvalues    EBANDS =      -508.44009674
  atomic energy  EATOM  =      3024.16793347
  Solvation  Ediel_sol  =         0.00000000
  ---------------------------------------------------
  free energy    TOTEN  =       -41.06372790 eV

  energy without entropy =      -41.06372790  energy(sigma->0) =      -41.06372790


--------------------------------------------------------------------------------------------------------




--------------------------------------- Iteration      1(  19)  ---------------------------------------


    POTLOK:  cpu time   50.7400: real time   51.0000
    SETDIJ:  cpu time    0.0400: real time    0.0432
     EDDAV:  cpu time   25.5800: real time   25.7446
 BZINTS: Fermi energy: -3.620726; 61.000000 electrons
         Band energy:-508.842378;  BLOECHL correction: -0.017193
       DOS:  cpu time    0.0040: real time    0.0073
    CHARGE:  cpu time    2.0200: real time    2.0286
    MIXING:  cpu time    0.0520: real time    0.0511
    --------------------------------------------
      LOOP:  cpu time   78.4360: real time   78.8749

 eigenvalue-minimisations  :  1120
 total energy-change (2. order) :-0.1276846E-01  (-0.1671786E-02)
 number of electron      61.0000003 magnetization       7.9295618
 augmentation part        0.7395944 magnetization       4.6961249

 Broyden mixing:
  rms(total) = 0.23420E+00    rms(broyden)= 0.23420E+00
  rms(prec ) = 0.24796E+00
  weight for this iteration     100.00

 eigenvalues of (default mixing * dielectric matrix)
  average eigenvalue GAMMA=   0.9129
  2.0829  2.0829  1.3008  1.2173  1.2173  0.7605  0.7605  0.4367  0.4367  0.6695
  0.6695  0.6210  0.4831  0.0414

 Free energy of the ion-electron system (eV)
  ---------------------------------------------------
  alpha Z        PSCENC =        34.61145375
  Ewald energy   TEWEN  =      7259.79945079
  -Hartree energ DENC   =     -9939.76136723
  -exchange      EXHF   =         0.00000000
  -V(xc)+E(xc)   XCENC  =        -8.72145931
  PAW double counting   =      1646.17135654    -1548.50148635
  entropy T*S    EENTRO =         0.00000000
  eigenvalues    EBANDS =      -508.84237802
  atomic energy  EATOM  =      3024.16793347
  Solvation  Ediel_sol  =         0.00000000
  ---------------------------------------------------
  free energy    TOTEN  =       -41.07649636 eV

  energy without entropy =      -41.07649636  energy(sigma->0) =      -41.07649636


--------------------------------------------------------------------------------------------------------




--------------------------------------- Iteration      1(  20)  ---------------------------------------


    POTLOK:  cpu time   50.7000: real time   51.0003
    SETDIJ:  cpu time    0.0480: real time    0.0442
     EDDAV:  cpu time   27.0760: real time   27.4620
 BZINTS: Fermi energy: -3.634260; 61.000000 electrons
         Band energy:-509.295398;  BLOECHL correction: -0.019437
       DOS:  cpu time    0.0040: real time    0.0073
    CHARGE:  cpu time    2.0720: real time    2.0780
    MIXING:  cpu time    0.0520: real time    0.0522
    --------------------------------------------
      LOOP:  cpu time   79.9520: real time   80.6441

 eigenvalue-minimisations  :  1200
 total energy-change (2. order) :-0.7026168E-03  (-0.1050118E-02)
 number of electron      61.0000003 magnetization       8.0352434
 augmentation part        0.7782392 magnetization       4.8388753

 Broyden mixing:
  rms(total) = 0.17708E+00    rms(broyden)= 0.17707E+00
  rms(prec ) = 0.18806E+00
  weight for this iteration     100.00

 eigenvalues of (default mixing * dielectric matrix)
  average eigenvalue GAMMA=   0.9971
  2.3290  2.3290  1.6641  1.4220  1.4220  0.7655  0.7655  0.4367  0.4367  0.7522
  0.7522  0.6786  0.6786  0.4831  0.0414

 Free energy of the ion-electron system (eV)
  ---------------------------------------------------
  alpha Z        PSCENC =        34.61145375
  Ewald energy   TEWEN  =      7259.79945079
  -Hartree energ DENC   =     -9939.36587021
  -exchange      EXHF   =         0.00000000
  -V(xc)+E(xc)   XCENC  =        -8.70916709
  PAW double counting   =      1645.96109201    -1548.24669413
  entropy T*S    EENTRO =         0.00000000
  eigenvalues    EBANDS =      -509.29539756
  atomic energy  EATOM  =      3024.16793347
  Solvation  Ediel_sol  =         0.00000000
  ---------------------------------------------------
  free energy    TOTEN  =       -41.07719897 eV

  energy without entropy =      -41.07719897  energy(sigma->0) =      -41.07719897


--------------------------------------------------------------------------------------------------------




--------------------------------------- Iteration      1(  21)  ---------------------------------------


    POTLOK:  cpu time   50.5840: real time   50.8949
    SETDIJ:  cpu time    0.0440: real time    0.0424
     EDDAV:  cpu time   27.9200: real time   28.1509
 BZINTS: Fermi energy: -3.642860; 61.000000 electrons
         Band energy:-509.558456;  BLOECHL correction: -0.020355
       DOS:  cpu time    0.0080: real time    0.0068
    CHARGE:  cpu time    2.0400: real time    2.0450
    MIXING:  cpu time    0.0520: real time    0.0529
    --------------------------------------------
      LOOP:  cpu time   80.6480: real time   81.1929

 eigenvalue-minimisations  :  1232
 total energy-change (2. order) :-0.3570188E-02  (-0.6990543E-02)
 number of electron      61.0000003 magnetization       8.0388802
 augmentation part        0.8019755 magnetization       4.8646546

 Broyden mixing:
  rms(total) = 0.16475E+00    rms(broyden)= 0.16467E+00
  rms(prec ) = 0.17324E+00
  weight for this iteration     100.00

 eigenvalues of (default mixing * dielectric matrix)
  average eigenvalue GAMMA=   0.9565
  2.2677  2.2677  1.6649  1.3971  1.0228  1.0228  0.7686  0.7686  0.4367  0.4367
  0.7396  0.7396  0.7243  0.4804  0.5248  0.0414

 Free energy of the ion-electron system (eV)
  ---------------------------------------------------
  alpha Z        PSCENC =        34.61145375
  Ewald energy   TEWEN  =      7259.79945079
  -Hartree energ DENC   =     -9939.14222907
  -exchange      EXHF   =         0.00000000
  -V(xc)+E(xc)   XCENC  =        -8.72081047
  PAW double counting   =      1646.14697381    -1548.38508558
  entropy T*S    EENTRO =         0.00000000
  eigenvalues    EBANDS =      -509.55845587
  atomic energy  EATOM  =      3024.16793347
  Solvation  Ediel_sol  =         0.00000000
  ---------------------------------------------------
  free energy    TOTEN  =       -41.08076916 eV

  energy without entropy =      -41.08076916  energy(sigma->0) =      -41.08076916


--------------------------------------------------------------------------------------------------------




--------------------------------------- Iteration      1(  22)  ---------------------------------------


    POTLOK:  cpu time   50.7640: real time   50.8176
    SETDIJ:  cpu time    0.0680: real time    0.0691
     EDDAV:  cpu time   26.0520: real time   26.1880
 BZINTS: Fermi energy: -3.642656; 61.000000 electrons
         Band energy:-509.582415;  BLOECHL correction: -0.020213
       DOS:  cpu time    0.0040: real time    0.0071
    CHARGE:  cpu time    2.0080: real time    2.0226
    MIXING:  cpu time    0.0640: real time    0.0659
    --------------------------------------------
      LOOP:  cpu time   78.9600: real time   79.1704

 eigenvalue-minimisations  :  1136
 total energy-change (2. order) :-0.1893417E-02  (-0.4035472E-03)
 number of electron      61.0000003 magnetization       8.0788119
 augmentation part        0.7958266 magnetization       4.9036190

 Broyden mixing:
  rms(total) = 0.17829E+00    rms(broyden)= 0.17828E+00
  rms(prec ) = 0.18839E+00
  weight for this iteration     100.00

 eigenvalues of (default mixing * dielectric matrix)
  average eigenvalue GAMMA=   0.9882
  2.0968  2.0968  1.9671  1.9671  1.1292  1.1292  0.7638  0.7638  0.4367  0.4367
  0.7493  0.7493  0.4827  0.6595  0.6595  0.6698  0.0414

 Free energy of the ion-electron system (eV)
  ---------------------------------------------------
  alpha Z        PSCENC =        34.61145375
  Ewald energy   TEWEN  =      7259.79945079
  -Hartree energ DENC   =     -9939.12538022
  -exchange      EXHF   =         0.00000000
  -V(xc)+E(xc)   XCENC  =        -8.71684764
  PAW double counting   =      1646.16851284    -1548.40537066
  entropy T*S    EENTRO =         0.00000000
  eigenvalues    EBANDS =      -509.58241490
  atomic energy  EATOM  =      3024.16793347
  Solvation  Ediel_sol  =         0.00000000
[...]
     34      -0.8314      0.00000
     35      -0.7299      0.00000
     36      -0.6783      0.00000
     37       0.3183      0.00000
     38       0.5917      0.00000
     39       0.7097      0.00000
     40       1.6665      0.00000
     41       1.9208      0.00000
     42       1.9793      0.00000
     43       2.5037      0.00000
     44       2.8220      0.00000
     45       3.3041      0.00000
     46       3.6590      0.00000
     47       3.6739      0.00000
     48       3.8324      0.00000

 k-point     5 :      -0.4000    0.2000    0.0000
  band No.  band energies     occupation 
      1     -16.8249      1.00000
      2     -16.3039      1.00000
      3     -15.9292      1.00000
      4     -15.6782      1.00000
      5     -15.4317      1.00000
      6     -15.2812      1.00000
      7     -12.4927      1.00000
      8      -9.7168      1.00000
      9      -8.0994      1.00000
     10      -7.5668      1.00000
     11      -7.3599      1.00000
     12      -6.7627      1.00000
     13      -6.7074      1.00000
     14      -6.1752      1.00000
     15      -6.0588      1.00000
     16      -5.8503      1.00000
     17      -5.6543      1.00000
     18      -5.3208      1.00000
     19      -5.2468      1.00000
     20      -5.0071      1.00000
     21      -4.9679      1.00000
     22      -4.3261      1.00000
     23      -4.0363      1.00000
     24      -3.9698      1.00000
     25      -3.7309      1.00000
     26      -3.4252      1.00000
     27      -2.8508      1.00000
     28      -2.7800      1.00000
     29      -2.5634      1.00000
     30      -2.4332      1.00000
     31      -2.2146      0.00000
     32      -1.7631      0.00000
     33      -1.1942      0.00000
     34      -1.0005      0.00000
     35      -0.7360      0.00000
     36      -0.5316      0.00000
     37       0.0502      0.00000
     38       0.3824      0.00000
     39       0.5168      0.00000
     40       1.4532      0.00000
     41       1.7442      0.00000
     42       1.8101      0.00000
     43       3.0115      0.00000
     44       3.1561      0.00000
     45       3.2299      0.00000
     46       3.3882      0.00000
     47       3.5705      0.00000
     48       4.0871      0.00000


--------------------------------------------------------------------------------------------------------


 soft charge-density along one line, spin component           1
         0         1         2         3         4         5         6         7         8         9
 total charge-density along one line

 soft charge-density along one line, spin component           2
         0         1         2         3         4         5         6         7         8         9
 total charge-density along one line

 pseudopotential strength for first ion, spin component:           1
-10.330  -0.103  -0.000   0.010   0.000   0.717   0.030   0.000
 -0.103 -10.600   0.000   0.000   0.010   0.030   0.797  -0.000
 -0.000   0.000 -11.057   0.000   0.000   0.000  -0.000   0.928
  0.010   0.000   0.000 -10.600   0.103  -0.003  -0.000  -0.000
  0.000   0.010   0.000   0.103 -10.330  -0.000  -0.003  -0.000
  0.717   0.030   0.000  -0.003  -0.000   0.529  -0.009  -0.000
  0.030   0.797  -0.000  -0.000  -0.003  -0.009   0.505   0.000
  0.000  -0.000   0.928  -0.000  -0.000  -0.000   0.000   0.468
 -0.003  -0.000  -0.000   0.797  -0.030   0.001   0.000   0.000
 -0.000  -0.003  -0.000  -0.030   0.717   0.000   0.001   0.000
 -0.000  -0.000   0.084  -0.000   0.000  -0.000  -0.000  -0.021
  0.000   0.000  -0.009   0.000  -0.000  -0.000  -0.000   0.002
  0.000   0.008   0.000  -0.000   0.002   0.000  -0.002  -0.000
 -0.000  -0.000   0.007  -0.000   0.000  -0.000   0.000  -0.001
  0.002  -0.000   0.000   0.008  -0.000  -0.000  -0.000  -0.000
 -0.000  -0.004  -0.000   0.000  -0.002   0.000   0.001   0.000
  0.000   0.000  -0.004   0.000  -0.000  -0.000  -0.000   0.001
 -0.002   0.000  -0.000  -0.004   0.000   0.000  -0.000   0.000
 pseudopotential strength for first ion, spin component:           2
 -9.636  -0.025  -0.000  -0.014   0.000   0.510   0.008   0.000
 -0.025  -9.973   0.000   0.000  -0.014   0.008   0.604  -0.000
 -0.000   0.000  -9.620   0.000   0.000   0.000  -0.000   0.508
 -0.014   0.000   0.000  -9.973   0.025   0.004  -0.000  -0.000
  0.000  -0.014   0.000   0.025  -9.636  -0.000   0.004  -0.000
  0.510   0.008   0.000   0.004  -0.000   0.591  -0.004  -0.000
  0.008   0.604  -0.000  -0.000   0.004  -0.004   0.564   0.000
  0.000  -0.000   0.508  -0.000  -0.000  -0.000   0.000   0.589
  0.004  -0.000  -0.000   0.604  -0.008  -0.001   0.000   0.000
 -0.000   0.004  -0.000  -0.008   0.510   0.000  -0.001   0.000
 -0.000  -0.000   0.013  -0.000   0.000  -0.000  -0.000  -0.007
  0.000   0.000  -0.003   0.000  -0.000  -0.000  -0.000   0.001
  0.001   0.008   0.000  -0.000   0.002  -0.000  -0.002  -0.000
 -0.000  -0.000   0.009  -0.000  -0.000  -0.000   0.000  -0.002
  0.002  -0.000   0.000   0.008  -0.001  -0.000  -0.000  -0.000
 -0.001  -0.005  -0.000   0.000  -0.002   0.000   0.001   0.000
  0.000   0.000  -0.004   0.000   0.000  -0.000  -0.000   0.001
 -0.002   0.000  -0.000  -0.005   0.001   0.000  -0.000   0.000
 total augmentation occupancy for first ion, spin component:           1
  1.537  -0.339   0.000   0.006  -0.000   0.115   0.198   0.000   0.014   0.000   0.000   0.000   0.004   0.000   0.019  -0.001
 -0.339   1.389  -0.000  -0.000   0.006   0.156   0.226   0.000   0.000   0.014   0.000   0.000   0.021   0.000   0.009   0.001
  0.000  -0.000   1.169  -0.000  -0.000   0.000   0.000  -0.062   0.000  -0.000   0.013   0.058  -0.000   0.001   0.000  -0.000
  0.006  -0.000  -0.000   1.389   0.339   0.014  -0.000   0.000   0.226  -0.156   0.000   0.000  -0.009  -0.000   0.021   0.000
 -0.000   0.006  -0.000   0.339   1.537  -0.000   0.014  -0.000  -0.198   0.115  -0.000  -0.000   0.019  -0.000  -0.004   0.000
  0.115   0.156   0.000   0.014  -0.000   0.128   0.068   0.000   0.006  -0.000   0.000  -0.000   0.006   0.000   0.016  -0.001
  0.198   0.226   0.000  -0.000   0.014   0.068   0.186   0.000  -0.000   0.006  -0.000  -0.000   0.013  -0.000  -0.007  -0.001
  0.000   0.000  -0.062   0.000  -0.000   0.000   0.000   0.115   0.000  -0.000   0.033  -0.018  -0.000   0.001   0.000   0.000
  0.014   0.000   0.000   0.226  -0.198   0.006  -0.000   0.000   0.186  -0.068  -0.000  -0.000   0.007   0.000   0.013  -0.000
  0.000   0.014  -0.000  -0.156   0.115  -0.000   0.006  -0.000  -0.068   0.128  -0.000   0.000   0.016  -0.000  -0.006  -0.003
  0.000   0.000   0.013   0.000  -0.000   0.000  -0.000   0.033  -0.000  -0.000   1.102  -0.260   0.000   0.024  -0.000   0.000
  0.000   0.000   0.058   0.000  -0.000  -0.000  -0.000  -0.018  -0.000   0.000  -0.260   0.125   0.000  -0.009  -0.000   0.000
  0.004   0.021  -0.000  -0.009   0.019   0.006   0.013  -0.000   0.007   0.016   0.000   0.000   0.191   0.000  -0.000  -0.012
  0.000   0.000   0.001  -0.000  -0.000   0.000   0.000   0.001   0.000  -0.000   0.024  -0.009   0.000   0.196  -0.000  -0.000
  0.019   0.009   0.000   0.021  -0.004   0.016  -0.007   0.000   0.013  -0.006  -0.000  -0.000  -0.000  -0.000   0.191   0.000
 -0.001   0.001  -0.000   0.000   0.000  -0.001  -0.001   0.000  -0.000  -0.003   0.000   0.000  -0.012  -0.000   0.000   0.001
  0.000   0.000   0.002   0.000  -0.000  -0.000  -0.000  -0.000  -0.000   0.000  -0.002   0.001  -0.000  -0.013   0.000   0.000
  0.000  -0.000  -0.000   0.001   0.001  -0.003   0.000  -0.000  -0.001   0.001  -0.000  -0.000  -0.000   0.000  -0.012  -0.000
 total augmentation occupancy for first ion, spin component:           2
  0.134   0.055   0.000  -0.020  -0.000  -0.075  -0.007  -0.000   0.007  -0.002   0.000   0.000   0.003   0.000  -0.000   0.000
  0.055   0.083   0.000  -0.000  -0.020   0.008  -0.056   0.000  -0.002   0.004   0.000   0.000   0.000   0.000   0.004   0.000
  0.000   0.000   0.767   0.000  -0.000  -0.000  -0.000  -0.188   0.000   0.000   0.004   0.062   0.000   0.009   0.000   0.000
 -0.020  -0.000   0.000   0.083  -0.055   0.004   0.002   0.000  -0.056  -0.008   0.000   0.000  -0.004   0.000   0.000  -0.000
 -0.000  -0.020  -0.000  -0.055   0.134   0.002   0.007   0.000   0.007  -0.075  -0.000  -0.000  -0.000  -0.000  -0.003   0.000
 -0.075   0.008  -0.000   0.004   0.002  -0.004  -0.016   0.000  -0.002  -0.000   0.000  -0.000  -0.001  -0.000  -0.002   0.000
 -0.007  -0.056  -0.000   0.002   0.007  -0.016  -0.020  -0.000   0.000  -0.002   0.000  -0.000  -0.002  -0.000  -0.003   0.000
 -0.000   0.000  -0.188   0.000   0.000   0.000  -0.000   0.035  -0.000  -0.000   0.012  -0.010   0.000  -0.001  -0.000   0.000
  0.007  -0.002   0.000  -0.056   0.007  -0.002   0.000  -0.000  -0.020   0.016  -0.000  -0.000   0.003   0.000  -0.002   0.000
 -0.002   0.004   0.000  -0.008  -0.075  -0.000  -0.002  -0.000   0.016  -0.004  -0.000   0.000  -0.002   0.000   0.001  -0.000
  0.000   0.000   0.004   0.000  -0.000   0.000   0.000   0.012  -0.000  -0.000   0.047   0.038   0.000   0.001  -0.000   0.000
  0.000   0.000   0.062   0.000  -0.000  -0.000  -0.000  -0.010  -0.000   0.000   0.038  -0.014   0.000   0.001  -0.000   0.000
  0.003   0.000   0.000  -0.004  -0.000  -0.001  -0.002   0.000   0.003  -0.002   0.000   0.000   0.004   0.000  -0.000   0.001
  0.000   0.000   0.009   0.000  -0.000  -0.000   0.000  -0.001   0.000   0.000   0.001   0.001  -0.000   0.008  -0.000   0.000
 -0.000   0.004   0.000   0.000  -0.003  -0.002  -0.003  -0.000  -0.002   0.001  -0.000  -0.000  -0.000  -0.000   0.004   0.000
  0.000   0.000   0.000  -0.000   0.000   0.000   0.000   0.000   0.000  -0.000   0.000   0.000   0.001   0.000   0.000  -0.000
  0.000   0.000   0.001  -0.000  -0.000  -0.000  -0.000  -0.000   0.000   0.000   0.000  -0.000   0.000   0.001  -0.000  -0.000
  0.000   0.000   0.000   0.000  -0.000  -0.000  -0.000   0.000   0.000  -0.000  -0.000  -0.000  -0.000  -0.000   0.001   0.000


------------------------ aborting loop because EDIFF is reached ----------------------------------------





 total charge     

# of ion       s       p       d       tot
------------------------------------------
    1        0.376   0.468   6.329   7.174
    2        0.373   0.478   6.443   7.293
    3        0.754   0.855   0.000   1.609
    4        1.067   1.386   0.000   2.453
    5        1.494   2.259   0.060   3.813
    6        1.486   2.258   0.062   3.806
    7        1.494   2.255   0.061   3.809
    8        1.480   2.307   0.047   3.835
    9        1.474   2.331   0.049   3.854
   10        1.478   2.327   0.048   3.853
--------------------------------------------------
tot         11.475  16.925  13.100  41.500



 magnetization (x)

# of ion       s       p       d       tot
------------------------------------------
    1        0.009   0.009   1.203   1.221
    2        0.001   0.005  -0.161  -0.156
    3        0.000   0.003   0.000   0.003
    4       -0.000   0.005   0.000   0.005
    5        0.000  -0.021   0.000  -0.020
    6       -0.000  -0.011   0.000  -0.010
    7        0.000  -0.015   0.000  -0.015
    8        0.001  -0.014  -0.000  -0.013
    9       -0.000  -0.007  -0.000  -0.007
   10        0.000  -0.014   0.000  -0.013
--------------------------------------------------
tot          0.012  -0.061   1.042   0.994

    CHARGE:  cpu time    2.0280: real time    2.0343
    FORLOC:  cpu time    0.0680: real time    0.0688
    FORNL :  cpu time    6.7400: real time    6.8029
    STRESS:  cpu time   20.0560: real time   20.3648
    FORCOR:  cpu time   51.3200: real time   51.6547
    FORHAR:  cpu time    0.3320: real time    0.3321
    MIXING:  cpu time    0.0440: real time    0.0427
    OFIELD:  cpu time    0.0000: real time    0.0000

  FORCE on cell =-STRESS in cart. coord.  units (eV):
  Direction    XX          YY          ZZ          XY          YZ          ZX
  --------------------------------------------------------------------------------------
  Alpha Z    47.78186    47.78186    47.78186
  Ewald   10313.21530 10313.21259-12253.97515    -0.00182    -0.00056    -0.00102
  Hartree 10798.46995 10798.47070-10481.99532    -0.00020     0.00007     0.00011
  E(xc)    -245.71622  -245.71620  -245.24743     0.00000     0.00000     0.00001
  Local  -21877.36488-21877.36427 21936.06613     0.00158     0.00030     0.00055
  n-local   285.45645   285.45463   293.86435    -0.07368     0.12981     0.13812
  augment    36.38034    36.38046    29.24269    -0.00117     0.00003     0.00004
  Kinetic   644.15457   639.39566   674.66568    -2.73944     1.12839     1.43890
  Fock        0.00000     0.00000     0.00000     0.00000     0.00000     0.00000
  -------------------------------------------------------------------------------------
  Total      -0.00360    -0.00360     0.40281     0.00000     0.00000     0.00000
  in kB      -0.00821    -0.00821     0.91962     0.00000     0.00000     0.00000
  external pressure =        0.30 kB  Pullay stress =        0.00 kB


 VOLUME and BASIS-vectors are now :
 -----------------------------------------------------------------------------
  energy-cutoff  :      520.00
  volume of cell :      701.79
      direct lattice vectors                 reciprocal lattice vectors
     6.198706210 -0.000000331 -0.000000000     0.161323982 -0.093140450  0.000000000
     3.099353053  5.368236634 -0.000000000     0.000000010  0.186280903 -0.000000000
    -0.000000000  0.000000000 21.089867711     0.000000000 -0.000000000  0.047416134

  length of vectors
     6.198706210  6.198705825 21.089867711     0.186280892  0.186280903  0.047416134


 FORCES acting on ions
    electron-ion (+dipol)            ewald-force                    non-local-force                 convergence-correction
 -----------------------------------------------------------------------------------------------
   -.797E-04 -.787E-04 0.177E+02   0.642E-03 0.381E-03 -.182E+02   0.311E-17 0.753E-17 0.533E+00   0.572E-06 0.652E-07 0.570E-02
   0.730E-04 0.363E-04 0.164E+02   -.608E-03 -.362E-03 -.168E+02   -.142E-16 0.283E-16 0.454E+00   0.573E-06 -.837E-06 -.434E-03
   -.454E-04 -.291E-04 0.223E+03   -.172E-03 -.963E-04 -.220E+03   -.115E-16 -.179E-16 -.363E+01   -.185E-06 -.108E-06 0.303E-01
   0.387E-04 0.353E-04 -.309E+03   0.238E-03 0.133E-03 0.307E+03   0.185E-17 0.271E-17 0.243E+01   -.265E-06 -.150E-06 -.408E-01
   -.161E+02 -.531E+01 -.472E+03   0.136E+02 0.521E+01 0.474E+03   0.246E+01 0.116E+00 -.226E+01   -.104E-01 0.938E-02 -.656E-01
   0.345E+01 0.166E+02 -.472E+03   -.231E+01 -.144E+02 0.474E+03   -.113E+01 -.219E+01 -.226E+01   0.133E-01 0.432E-02 -.656E-01
   0.127E+02 -.113E+02 -.472E+03   -.113E+02 0.921E+01 0.474E+03   -.133E+01 0.207E+01 -.226E+01   -.292E-02 -.137E-01 -.656E-01
   0.186E+02 -.234E+01 0.489E+03   -.166E+02 0.230E+01 -.491E+03   -.204E+01 0.648E-01 0.250E+01   0.657E-02 0.788E-02 0.758E-01
   -.113E+02 -.149E+02 0.489E+03   0.103E+02 0.132E+02 -.491E+03   0.107E+01 0.173E+01 0.250E+01   0.354E-02 -.963E-02 0.758E-01
   -.726E+01 0.173E+02 0.489E+03   0.632E+01 -.155E+02 -.491E+03   0.962E+00 -.180E+01 0.250E+01   -.101E-01 0.175E-02 0.758E-01
 -----------------------------------------------------------------------------------------------
   0.140E-03 0.657E-04 -.533E+00   -.151E-13 0.533E-14 0.114E-12   0.666E-15 0.666E-15 0.508E+00   0.885E-06 -.896E-06 0.252E-01


 POSITION                                       TOTAL-FORCE (eV/Angst)
 -----------------------------------------------------------------------------------
      3.09935      1.78941     10.54553         0.000000      0.000000     -0.003050
      6.19871      3.57883     10.55926         0.000000      0.000000      0.003988
     -0.00000      0.00000      9.52772         0.000000     -0.000000     -0.120195
     -0.00000      0.00000     11.74308        -0.000000      0.000000      0.203653
      3.83204     -0.02023     11.97550        -0.014404      0.024469      0.023833
      1.16582      2.05972     11.97550         0.028393      0.000239      0.023833
      4.30022      3.32876     11.97550        -0.013989     -0.024708      0.023833
      5.36913      5.35311      9.04908        -0.063573      0.029951     -0.051964
      8.15007      3.41011      9.04908         0.057725      0.040080     -0.051964
      5.07691      1.97325      9.04908         0.005848     -0.070031     -0.051964
 -----------------------------------------------------------------------------------
    total drift:                                0.000141      0.000065      0.000469


--------------------------------------------------------------------------------------------------------



  FREE ENERGIE OF THE ION-ELECTRON SYSTEM (eV)
  ---------------------------------------------------
  free  energy   TOTEN  =       -45.06095663 eV

  energy  without entropy=      -45.06095663  energy(sigma->0) =      -45.06095663

 d Force = 0.1375288E-02[ 0.128E-02, 0.147E-02]  d Energy = 0.2433905E-03 0.113E-02
 d Force = 0.3524803E+01[ 0.354E+01, 0.351E+01]  d Ewald  = 0.2669280E+02-0.232E+02


--------------------------------------------------------------------------------------------------------


    POTLOK:  cpu time   51.7080: real time   51.8630


--------------------------------------------------------------------------------------------------------




--------------------------------------------------------------------------------------------------------


  
 reached required accuracy - stopping structural energy minimisation
     LOOP+:  cpu time  601.1040: real time  604.7015
    4ORBIT:  cpu time    0.0000: real time    0.0000



 total charge     

# of ion       s       p       d       tot
------------------------------------------
    1        0.376   0.468   6.329   7.174
    2        0.373   0.478   6.443   7.293
    3        0.754   0.855   0.000   1.609
    4        1.067   1.386   0.000   2.453
    5        1.494   2.259   0.060   3.813
    6        1.486   2.258   0.062   3.806
    7        1.494   2.255   0.061   3.809
    8        1.480   2.307   0.047   3.835
    9        1.474   2.331   0.049   3.854
   10        1.478   2.327   0.048   3.853
--------------------------------------------------
tot         11.475  16.925  13.100  41.500



 magnetization (x)

# of ion       s       p       d       tot
------------------------------------------
    1        0.009   0.009   1.203   1.221
    2        0.001   0.005  -0.161  -0.156
    3        0.000   0.003   0.000   0.003
    4       -0.000   0.005   0.000   0.005
    5        0.000  -0.021   0.000  -0.020
    6       -0.000  -0.011   0.000  -0.010
    7        0.000  -0.015   0.000  -0.015
    8        0.001  -0.014  -0.000  -0.013
    9       -0.000  -0.007  -0.000  -0.007
   10        0.000  -0.014   0.000  -0.013
--------------------------------------------------
tot          0.012  -0.061   1.042   0.994

 BZINTS: Fermi energy: -2.339456; 61.000000 electrons
         Band energy:-462.895327;  BLOECHL correction:  0.000000

 total amount of memory used by VASP MPI-rank0   132208. kBytes
=======================================================================

   base      :      30000. kBytes
   nonlr-proj:       9708. kBytes
   fftplans  :      11247. kBytes
   grid      :      68332. kBytes
   one-center:        311. kBytes
   wavefun   :      12610. kBytes

  
  
 General timing and accounting informations for this job:
 ========================================================
  
                  Total CPU time used (sec):    32079.852
                            User time (sec):    31339.148
                          System time (sec):      740.704
                         Elapsed time (sec):    32313.994
  
                   Maximum memory used (kb):      396420.
                   Average memory used (kb):           0.
  
                          Minor page faults:     29423805
                          Major page faults:            8
                 Voluntary context switches:         1159
