 vasp.5.4.4.18Apr17-6-g9f103f2a35 (build May  1 2020 15:48:39) complex           
 executed on             LinuxGNU date 2020.06.30  20:36:19
 running on   16 total cores
 distrk:  each k-point on   16 cores,    1 groups
 distr:  one band on NCORES_PER_BAND=   1 cores,   16 groups


--------------------------------------------------------------------------------------------------------


 INCAR:
 POTCAR:   PAW_PBE Cr 06Sep2000                   
 POTCAR:   PAW_PBE Ge 05Jan2001                   
 POTCAR:    PAW_PBE P 17Jan2003                   
 POTCAR:   PAW_PBE Te 08Apr2002                   

 ----------------------------------------------------------------------------- 
|                                                                             |
|           W    W    AA    RRRRR   N    N  II  N    N   GGGG   !!!           |
|           W    W   A  A   R    R  NN   N  II  NN   N  G    G  !!!           |
|           W    W  A    A  R    R  N N  N  II  N N  N  G       !!!           |
|           W WW W  AAAAAA  RRRRR   N  N N  II  N  N N  G  GGG   !            |
|           WW  WW  A    A  R   R   N   NN  II  N   NN  G    G                |
|           W    W  A    A  R    R  N    N  II  N    N   GGGG   !!!           |
|                                                                             |
|      For optimal performance we recommend to set                            |
|        NCORE= 4 - approx SQRT( number of cores)                             |
|      NCORE specifies how many cores store one orbital (NPAR=cpu/NCORE).     |
|      This setting can  greatly improve the performance of VASP for DFT.     |
|      The default,   NCORE=1            might be grossly inefficient         |
|      on modern multi-core architectures or massively parallel machines.     |
|      Do your own testing !!!!                                               |
|      Unfortunately you need to use the default for GW and RPA calculations. |
|      (for HF NCORE is supported but not extensively tested yet)             |
|                                                                             |
 ----------------------------------------------------------------------------- 


 ----------------------------------------------------------------------------- 
|                                                                             |
|  ADVICE TO THIS USER RUNNING 'VASP/VAMP'   (HEAR YOUR MASTER'S VOICE ...):  |
|                                                                             |
|      You have switched on vdW-DFT.                                          |
|      This routine was written and supplied by Jiri Klimes.                  |
|      We recommed that you carefully read and cite the following             |
|      publication                                                            |
|      J. Klimes, D.R. Bowler, A. Michelides                                  |
|        J. Phys.: Cond Matt. 22 022201 (2010)                                |
|      J. Klimes, D.R. Bowler, A. Michelides                                  |
|        Phys. Rev. B. 83, 195131 (2011)                                      |
|      and references therein.                                                |
|                                                                             |
 ----------------------------------------------------------------------------- 

 POTCAR:   PAW_PBE Cr 06Sep2000                   
   VRHFIN =Cr : d5 s1                                                           
   LEXCH  = PE                                                                  
   EATOM  =   276.9744 eV,   20.3570 Ry                                         
                                                                                
   TITEL  = PAW_PBE Cr 06Sep2000                                                
   LULTRA =        F    use ultrasoft PP ?                                      
   IUNSCR =        1    unscreen: 0-lin 1-nonlin 2-no                           
   RPACOR =    2.080    partial core radius                                     
   POMASS =   51.996; ZVAL   =    6.000    mass and valenz                      
   RCORE  =    2.500    outmost cutoff radius                                   
   RWIGS  =    2.500; RWIGS  =    1.323    wigner-seitz radius (au A)           
   ENMAX  =  227.082; ENMIN  =  170.311 eV                                      
   RCLOC  =    1.721    cutoff for local pot                                    
   LCOR   =        T    correct aug charges                                     
   LPAW   =        T    paw PP                                                  
   EAUG   =  402.108                                                            
   DEXC   =    -.035                                                            
   RMAX   =    3.060    core radius for proj-oper                               
   RAUG   =    1.300    factor for augmentation sphere                          
   RDEP   =    2.609    radius for radial grids                                 
   QCUT   =   -4.085; QGAM   =    8.171    optimization parameters              
                                                                                
   Description                                                                  
     l     E      TYP  RCUT    TYP  RCUT                                        
     2   .000     23  2.500                                                     
     2   .000     23  2.500                                                     
     0   .000     23  2.500                                                     
     0   .000     23  2.500                                                     
     1  -.400     23  2.500                                                     
     1  2.000     23  2.500                                                     
     3   .000      7   .000                                                     
  local pseudopotential read in
  partial core-charges read in
  atomic valenz-charges read in
  non local Contribution for L=           2  read in
    real space projection operators read in
  non local Contribution for L=           2  read in
    real space projection operators read in
  non local Contribution for L=           0  read in
    real space projection operators read in
  non local Contribution for L=           0  read in
    real space projection operators read in
  non local Contribution for L=           1  read in
    real space projection operators read in
  non local Contribution for L=           1  read in
    real space projection operators read in
    PAW grid and wavefunctions read in

   number of l-projection  operators is LMAX  =           6
   number of lm-projection operators is LMMAX =          18

 POTCAR:   PAW_PBE Ge 05Jan2001                   
   VRHFIN =Ge: s2p2                                                             
   LEXCH  = PE                                                                  
   EATOM  =   104.9960 eV,    7.7170 Ry                                         
                                                                                
   TITEL  = PAW_PBE Ge 05Jan2001                                                
   LULTRA =        F    use ultrasoft PP ?                                      
   IUNSCR =        1    unscreen: 0-lin 1-nonlin 2-no                           
   RPACOR =    2.170    partial core radius                                     
   POMASS =   72.610; ZVAL   =    4.000    mass and valenz                      
   RCORE  =    2.300    outmost cutoff radius                                   
   RWIGS  =    2.300; RWIGS  =    1.217    wigner-seitz radius (au A)           
   ENMAX  =  173.807; ENMIN  =  130.355 eV                                      
   ICORE  =        3    local potential                                         
   LCOR   =        T    correct aug charges                                     
   LPAW   =        T    paw PP                                                  
   EAUG   =  385.843                                                            
   DEXC   =    -.138                                                            
   RMAX   =    3.497    core radius for proj-oper                               
   RAUG   =    1.300    factor for augmentation sphere                          
   RDEP   =    2.318    radius for radial grids                                 
   QCUT   =   -3.574; QGAM   =    7.148    optimization parameters              
                                                                                
   Description                                                                  
     l     E      TYP  RCUT    TYP  RCUT                                        
     0   .000     23  2.300                                                     
     0   .000     23  2.300                                                     
     1   .000     23  2.300                                                     
     1   .000     23  2.300                                                     
     2   .000     23  2.300                                                     
     3  -.100      7  2.300                                                     
  local pseudopotential read in
  partial core-charges read in
  atomic valenz-charges read in
  non local Contribution for L=           0  read in
    real space projection operators read in
  non local Contribution for L=           0  read in
    real space projection operators read in
  non local Contribution for L=           1  read in
    real space projection operators read in
  non local Contribution for L=           1  read in
    real space projection operators read in
  non local Contribution for L=           2  read in
    real space projection operators read in
    PAW grid and wavefunctions read in

   number of l-projection  operators is LMAX  =           5
   number of lm-projection operators is LMMAX =          13

 POTCAR:    PAW_PBE P 17Jan2003                   
   VRHFIN =P : s2p3                                                             
   LEXCH  = PE                                                                  
   EATOM  =   176.0430 eV,   12.9388 Ry                                         
                                                                                
   TITEL  = PAW_PBE P 17Jan2003                                                 
   LULTRA =        F    use ultrasoft PP ?                                      
   IUNSCR =        1    unscreen: 0-lin 1-nonlin 2-no                           
   RPACOR =    1.500    partial core radius                                     
   POMASS =   30.974; ZVAL   =    5.000    mass and valenz                      
   RCORE  =    1.900    outmost cutoff radius                                   
   RWIGS  =    2.330; RWIGS  =    1.233    wigner-seitz radius (au A)           
   ENMAX  =  270.000; ENMIN  =  191.280 eV                                      
   ICORE  =        2    local potential                                         
   LCOR   =        T    correct aug charges                                     
   LPAW   =        T    paw PP                                                  
   EAUG   =  342.924                                                            
   DEXC   =    -.002                                                            
   RMAX   =    2.887    core radius for proj-oper                               
   RAUG   =    1.300    factor for augmentation sphere                          
   RDEP   =    1.931    radius for radial grids                                 
   QCUT   =   -4.330; QGAM   =    8.659    optimization parameters              
                                                                                
   Description                                                                  
     l     E      TYP  RCUT    TYP  RCUT                                        
     0   .000     23  1.900                                                     
     0   .000     23  1.900                                                     
     1   .000     23  1.900                                                     
     1   .000     23  1.900                                                     
     2   .000     23  1.900                                                     
  local pseudopotential read in
  partial core-charges read in
  atomic valenz-charges read in
  non local Contribution for L=           0  read in
    real space projection operators read in
  non local Contribution for L=           0  read in
    real space projection operators read in
  non local Contribution for L=           1  read in
    real space projection operators read in
  non local Contribution for L=           1  read in
    real space projection operators read in
    PAW grid and wavefunctions read in

   number of l-projection  operators is LMAX  =           4
   number of lm-projection operators is LMMAX =           8

 POTCAR:   PAW_PBE Te 08Apr2002                   
   VRHFIN =Te: s2p4                                                             
   LEXCH  = PE                                                                  
   EATOM  =   223.2721 eV,   16.4100 Ry                                         
                                                                                
   TITEL  = PAW_PBE Te 08Apr2002                                                
   LULTRA =        F    use ultrasoft PP ?                                      
   IUNSCR =        1    unscreen: 0-lin 1-nonlin 2-no                           
   RPACOR =    2.200    partial core radius                                     
   POMASS =  127.600; ZVAL   =    6.000    mass and valenz                      
   RCORE  =    2.300    outmost cutoff radius                                   
   RWIGS  =    2.900; RWIGS  =    1.535    wigner-seitz radius (au A)           
   ENMAX  =  174.982; ENMIN  =  131.236 eV                                      
   ICORE  =        3    local potential                                         
   LCOR   =        T    correct aug charges                                     
   LPAW   =        T    paw PP                                                  
   EAUG   =  368.792                                                            
   DEXC   =    -.169                                                            
   RMAX   =    3.486    core radius for proj-oper                               
   RAUG   =    1.300    factor for augmentation sphere                          
   RDEP   =    2.397    radius for radial grids                                 
   QCUT   =   -3.586; QGAM   =    7.172    optimization parameters              
                                                                                
   Description                                                                  
     l     E      TYP  RCUT    TYP  RCUT                                        
     0   .000     23  2.300                                                     
     0   .000     23  2.300                                                     
     1   .000     23  2.300                                                     
     1   .000     23  2.300                                                     
     2   .000     23  2.300                                                     
     3  -.100     23  2.300                                                     
  local pseudopotential read in
  partial core-charges read in
  atomic valenz-charges read in
  non local Contribution for L=           0  read in
    real space projection operators read in
  non local Contribution for L=           0  read in
    real space projection operators read in
  non local Contribution for L=           1  read in
    real space projection operators read in
  non local Contribution for L=           1  read in
    real space projection operators read in
  non local Contribution for L=           2  read in
    real space projection operators read in
    PAW grid and wavefunctions read in

   number of l-projection  operators is LMAX  =           5
   number of lm-projection operators is LMMAX =          13

 Optimization of the real space projectors (new method)

 maximal supplied QI-value         = 15.12
 optimisation between [QCUT,QGAM] = [ 11.64, 23.28] = [ 37.95,151.78] Ry 
 Optimized for a Real-space Cutoff    1.49 Angstroem

   l    n(q)    QCUT    max X(q) W(low)/X(q) W(high)/X(q)  e(spline) 
   2      9    11.641     4.777    0.25E-04    0.21E-05    0.63E-07
   2      9    11.641    31.132    0.13E-03    0.22E-03    0.64E-06
   0     10    11.641    20.416    0.11E-04    0.74E-05    0.19E-07
   0     10    11.641    45.408    0.10E-03    0.85E-04    0.30E-06
   1     10    11.641     7.848    0.22E-04    0.23E-04    0.56E-07
   1     10    11.641     9.895    0.85E-04    0.54E-04    0.16E-06
 Optimization of the real space projectors (new method)

 maximal supplied QI-value         = 16.25
 optimisation between [QCUT,QGAM] = [ 11.54, 23.24] = [ 37.28,151.24] Ry 
 Optimized for a Real-space Cutoff    1.28 Angstroem

   l    n(q)    QCUT    max X(q) W(low)/X(q) W(high)/X(q)  e(spline) 
   0      9    11.539     8.651    0.22E-04    0.16E-04    0.10E-07
   0      9    11.539    33.192    0.11E-03    0.16E-03    0.65E-07
   1      8    11.539     5.899    0.37E-04    0.28E-04    0.43E-07
   1      8    11.539    27.289    0.22E-03    0.28E-04    0.14E-06
   2      8    11.539     4.673    0.11E-03    0.18E-03    0.58E-07
 Optimization of the real space projectors (new method)

 maximal supplied QI-value         = 19.84
 optimisation between [QCUT,QGAM] = [ 11.51, 23.22] = [ 37.09,150.92] Ry 
 Optimized for a Real-space Cutoff    1.21 Angstroem

   l    n(q)    QCUT    max X(q) W(low)/X(q) W(high)/X(q)  e(spline) 
   0      8    11.508     6.651    0.19E-04    0.31E-05    0.49E-08
   0      8    11.508    90.285    0.95E-04    0.17E-03    0.51E-07
   1      8    11.508     4.328    0.14E-04    0.32E-04    0.22E-07
   1      8    11.508    54.583    0.16E-03    0.71E-04    0.89E-07
 Optimization of the real space projectors (new method)

 maximal supplied QI-value         = 16.25
 optimisation between [QCUT,QGAM] = [ 11.54, 23.24] = [ 37.28,151.24] Ry 
 Optimized for a Real-space Cutoff    1.36 Angstroem

   l    n(q)    QCUT    max X(q) W(low)/X(q) W(high)/X(q)  e(spline) 
   0      9    11.539     7.090    0.13E-04    0.25E-05    0.51E-08
   0      9    11.539   101.654    0.53E-04    0.69E-04    0.12E-06
   1      9    11.539     5.276    0.20E-04    0.98E-05    0.24E-07
   1      9    11.539    81.891    0.24E-03    0.13E-04    0.15E-06
   2      9    11.539     5.599    0.30E-04    0.97E-04    0.54E-07

 ----------------------------------------------------------------------------- 
|                                                                             |
|  ADVICE TO THIS USER RUNNING 'VASP/VAMP'   (HEAR YOUR MASTER'S VOICE ...):  |
|                                                                             |
|      You enforced a specific xc-type in the INCAR file,                     |
|      a different type was found on the POTCAR file                          |
|          I HOPE YOU KNOW, WHAT YOU ARE  DOING                               |
|                                                                             |
 ----------------------------------------------------------------------------- 

 PAW_PBE Cr 06Sep2000                   :
 energy of atom  1       EATOM= -276.9744
 kinetic energy error for atom=    0.0010 (will be added to EATOM!!)
 PAW_PBE Ge 05Jan2001                   :
 energy of atom  2       EATOM= -104.9960
 kinetic energy error for atom=    0.0002 (will be added to EATOM!!)
  PAW_PBE P 17Jan2003                   :
 energy of atom  3       EATOM= -176.0430
 kinetic energy error for atom=    0.0011 (will be added to EATOM!!)
 PAW_PBE Te 08Apr2002                   :
 energy of atom  4       EATOM= -223.2721
 kinetic energy error for atom=    0.0007 (will be added to EATOM!!)


 POSCAR: Cr2 Ge P Te6                            
  positions in direct lattice
  velocities in cartesian coordinates
  No initial velocities read in
 exchange correlation table for  LEXCH =       42
   RHO(1)=    0.500       N(1)  =     2000
   RHO(2)=  100.500       N(2)  =     4000



--------------------------------------------------------------------------------------------------------


 ion  position               nearest neighbor table
   1  0.333  0.333  0.500-   6 2.78   5 2.78   7 2.78   8 2.78  10 2.78   9 2.78
   2  0.667  0.667  0.500-   9 2.78   8 2.78  10 2.78   5 2.78   7 2.78   6 2.78
   3  0.000  0.000  0.448-   4 2.43   8 2.63  10 2.63   9 2.63
   4  0.000  0.000  0.552-   3 2.43   5 2.63   7 2.63   6 2.63
   5  0.626  0.000  0.574-   4 2.63   1 2.78   2 2.78
   6  0.000  0.373  0.574-   4 2.63   1 2.78   2 2.78
   7  0.373  0.626  0.574-   4 2.63   1 2.78   2 2.78
   8  0.374  1.000  0.426-   3 2.63   2 2.78   1 2.78
   9  1.000  0.627  0.426-   3 2.63   2 2.78   1 2.78
  10  0.627  0.374  0.426-   3 2.63   2 2.78   1 2.78

  LATTYP: Found a hexagonal cell.
 ALAT       =     6.9077769333
 C/A-ratio  =     3.3939410937
  
  Lattice vectors:
  
 A1 = (   3.4538890000,  -5.9823100000,   0.0000000000)
 A2 = (  -6.9077770000,   0.0000000000,   0.0000000000)
 A3 = (   0.0000000000,   0.0000000000, -23.4445880000)


Analysis of symmetry for initial positions (statically):
=====================================================================
 Subroutine PRICEL returns:
 Original cell was already a primitive cell.
 

 Routine SETGRP: Setting up the symmetry group for a 
 hexagonal supercell.


 Subroutine GETGRP returns: Found  3 space group operations
 (whereof  3 operations were pure point group operations)
 out of a pool of 24 trial point group operations.


The static configuration has the point symmetry C_3 .


Analysis of symmetry for dynamics (positions and initial velocities):
=====================================================================
 Subroutine PRICEL returns:
 Original cell was already a primitive cell.
 

 Routine SETGRP: Setting up the symmetry group for a 
 hexagonal supercell.


 Subroutine GETGRP returns: Found  3 space group operations
 (whereof  3 operations were pure point group operations)
 out of a pool of 24 trial point group operations.


The dynamic configuration has the point symmetry C_3 .


Analysis of constrained symmetry for selective dynamics:
=====================================================================
 Subroutine PRICEL returns:
 Original cell was already a primitive cell.
 

 Routine SETGRP: Setting up the symmetry group for a 
 hexagonal supercell.


 Subroutine GETGRP returns: Found  3 space group operations
 (whereof  3 operations were pure point group operations)
 out of a pool of 24 trial point group operations.


The constrained configuration has the point symmetry C_3 .


Analysis of structural, dynamic, and magnetic symmetry:
=====================================================================
 Subroutine PRICEL returns:
 Original cell was already a primitive cell.
 

 Routine SETGRP: Setting up the symmetry group for a 
 hexagonal supercell.


 Subroutine GETGRP returns: Found  3 space group operations
 (whereof  3 operations were pure point group operations)
 out of a pool of 24 trial point group operations.


The magnetic configuration has the point symmetry C_3 .


 Subroutine INISYM returns: Found  3 space group operations
 (whereof  3 operations are pure point group operations),
 and found     1 'primitive' translations



 KPOINTS: Kpoints from vasprun.xml                

Automatic generation of k-mesh.
Space group operators:
 irot       det(A)        alpha          n_x          n_y          n_z        tau_x        tau_y        tau_z
    1     1.000000     0.000000     1.000000     0.000000     0.000000     0.000000     0.000000     0.000000
    2     1.000000   120.000000     0.000000     0.000000     1.000000     0.000000     0.000000     0.000000
    3     1.000000   120.000000     0.000000     0.000000    -1.000000     0.000000     0.000000     0.000000
 
 Subroutine IBZKPT returns following result:
 ===========================================
 
 Found      5 irreducible k-points:
 
 Following reciprocal coordinates:
            Coordinates               Weight
  0.000000  0.000000  0.000000      1.000000
  0.200000  0.000000  0.000000      6.000000
  0.400000  0.000000  0.000000      6.000000
  0.400000  0.200000  0.000000      6.000000
 -0.400000  0.200000  0.000000      6.000000
 
 Following cartesian coordinates:
            Coordinates               Weight
  0.000000  0.000000  0.000000      1.000000
  0.028953 -0.016716  0.000000      6.000000
  0.057906 -0.033432  0.000000      6.000000
  0.057906  0.000000  0.000000      6.000000
 -0.057906  0.066864  0.000000      6.000000
 
 TETIRR: Found     15 inequivalent tetrahedra from      150


--------------------------------------------------------------------------------------------------------




 Dimension of arrays:
   k-points           NKPTS =      5   k-points in BZ     NKDIM =      5   number of bands    NBANDS=     48
   number of dos      NEDOS =    301   number of ions     NIONS =     10
   non local maximal  LDIM  =      6   non local SUM 2l+1 LMDIM =     18
   total plane-waves  NPLWV = 524880
   max r-space proj   IRMAX =   7543   max aug-charges    IRDMAX=  31706
   dimension x,y,z NGX =    54 NGY =   54 NGZ =  180
   dimension x,y,z NGXF=   108 NGYF=  108 NGZF=  360
   support grid    NGXF=   108 NGYF=  108 NGZF=  360
   ions per type =               2   1   1   6
   NGX,Y,Z   is equivalent  to a cutoff of  13.00, 13.00, 12.76 a.u.
   NGXF,Y,Z  is equivalent  to a cutoff of  25.99, 25.99, 25.53 a.u.

 SYSTEM =  unknown system                          
 POSCAR =  Cr2 Ge P Te6                            

 Startparameter for this run:
   NWRITE =      2    write-flag & timer
   PREC   = accura    normal or accurate (medium, high low for compatibility)
   ISTART =      0    job   : 0-new  1-cont  2-samecut
   ICHARG =      2    charge: 1-file 2-atom 10-const
   ISPIN  =      2    spin polarized calculation?
   LNONCOLLINEAR =      F non collinear calculations
   LSORBIT =      F    spin-orbit coupling
   INIWAV =      1    electr: 0-lowe 1-rand  2-diag
   LASPH  =      F    aspherical Exc in radial PAW
   METAGGA=      F    non-selfconsistent MetaGGA calc.

 Electronic Relaxation 1
   ENCUT  =  520.0 eV  38.22 Ry    6.18 a.u.  12.84 12.84 43.59*2*pi/ulx,y,z
   ENINI  =  520.0     initial cutoff
   ENAUG  =  402.1 eV  augmentation charge cutoff
   NELM   =    400;   NELMIN=  2; NELMDL=  0     # of ELM steps 
   EDIFF  = 0.1E-03   stopping-criterion for ELM
   LREAL  =      T    real-space projection
   NLSPLINE    = F    spline interpolate recip. space projectors
   LCOMPAT=      F    compatible to vasp.4.4
   GGA_COMPAT  = T    GGA compatible to vasp.4.4-vasp.4.6
   LMAXPAW     = -100 max onsite density
   LMAXMIX     =    2 max onsite mixed and CHGCAR
   VOSKOWN=      0    Vosko Wilk Nusair interpolation
   ROPT   =   -0.00025  -0.00025  -0.00025  -0.00025
 Ionic relaxation
   EDIFFG = 0.1E-02   stopping-criterion for IOM
   NSW    =     99    number of steps for IOM
   NBLOCK =      1;   KBLOCK =     99    inner block; outer block 
   IBRION =      2    ionic relax: 0-MD 1-quasi-New 2-CG
   NFREE  =      1    steps in history (QN), initial steepest desc. (CG)
   ISIF   =      3    stress and relaxation
   IWAVPR =     11    prediction:  0-non 1-charg 2-wave 3-comb
   ISYM   =      2    0-nonsym 1-usesym 2-fastsym
   LCORR  =      T    Harris-Foulkes like correction to forces

   POTIM  = 0.5000    time-step for ionic-motion
   TEIN   =    0.0    initial temperature
   TEBEG  =    0.0;   TEEND  =   0.0 temperature during run
   SMASS  =  -3.00    Nose mass-parameter (am)
   estimated Nose-frequenzy (Omega)   =  0.10E-29 period in steps =****** mass=  -0.109E-26a.u.
   SCALEE = 1.0000    scale energy and forces
   NPACO  =    256;   APACO  = 16.0  distance and # of slots for P.C.
   PSTRESS=    0.0 pullay stress

  Mass of Ions in am
   POMASS =  52.00 72.61 30.97127.60
  Ionic Valenz
   ZVAL   =   6.00  4.00  5.00  6.00
  Atomic Wigner-Seitz radii
   RWIGS  =  -1.00 -1.00 -1.00 -1.00
  virtual crystal weights 
   VCA    =   1.00  1.00  1.00  1.00
   NELECT =      57.0000    total number of electrons
   NUPDOWN=      -1.0000    fix difference up-down

 DOS related values:
   EMIN   =  10.00;   EMAX   =-10.00  energy-range for DOS
   EFERMI =   0.00
   ISMEAR =    -5;   SIGMA  =   0.05  broadening in eV -4-tet -1-fermi 0-gaus

 Electronic relaxation 2 (details)
   IALGO  =     38    algorithm
   LDIAG  =      T    sub-space diagonalisation (order eigenvalues)
   LSUBROT=      F    optimize rotation matrix (better conditioning)
   TURBO    =      0    0=normal 1=particle mesh
   IRESTART =      0    0=no restart 2=restart with 2 vectors
   NREBOOT  =      0    no. of reboots
   NMIN     =      0    reboot dimension
   EREF     =   0.00    reference energy to select bands
   IMIX   =      4    mixing-type and parameters
     AMIX     =   0.40;   BMIX     =  1.00
     AMIX_MAG =   1.60;   BMIX_MAG =  1.00
     AMIN     =   0.01
     WC   =   100.;   INIMIX=   1;  MIXPRE=   1;  MAXMIX= -45

 Intra band minimization:
   WEIMIN = 0.0010     energy-eigenvalue tresh-hold
   EBREAK =  0.52E-06  absolut break condition
   DEPER  =   0.30     relativ break condition  

   TIME   =   0.40     timestep for ELM

  volume/ion in A,a.u.               =      96.88       653.80
  Fermi-wavevector in a.u.,A,eV,Ry     =   0.636722  1.203230  5.516004  0.405415
  Thomas-Fermi vector in A             =   1.701488

 Write flags
   LWAVE        =      F    write WAVECAR
   LDOWNSAMPLE  =      F    k-point downsampling of WAVECAR
   LCHARG       =      T    write CHGCAR
   LVTOT        =      F    write LOCPOT, total local potential
   LVHAR        =      F    write LOCPOT, Hartree potential only
   LELF         =      F    write electronic localiz. function (ELF)
   LORBIT       =     11    0 simple, 1 ext, 2 COOP (PROOUT), +10 PAW based schemes


 Dipole corrections
   LMONO  =      F    monopole corrections only (constant potential shift)
   LDIPOL =      F    correct potential (dipole corrections)
   IDIPOL =      0    1-x, 2-y, 3-z, 4-all directions 
   EPSILON=  1.0000000 bulk dielectric constant

 Exchange correlation treatment:
   GGA     =    BO    GGA type
   LEXCH   =    42    internal setting for exchange type
   VOSKOWN=      0    Vosko Wilk Nusair interpolation
   LHFCALC =     F    Hartree Fock is set to
   LHFONE  =     F    Hartree Fock one center treatment
   AEXX    =    0.0000 exact exchange contribution

 vdW DFT:
   LUSE_VDW   =     T    switch on vdW DFT
   Zab_VDW    =-.8491    correlation parameter
   PARAM1     =0.1833
   PARAM2     =0.2200
   PARAM3     =0.0000
   -- rVV10 --
   BPARAM     = 6.3000
   CPARAM     = 0.0093

 Linear response parameters
   LEPSILON=     F    determine dielectric tensor
   LRPA    =     F    only Hartree local field effects (RPA)
   LNABLA  =     F    use nabla operator in PAW spheres
   LVEL    =     F    velocity operator in full k-point grid
   LINTERFAST=   F  fast interpolation
   KINTER  =     0    interpolate to denser k-point grid
   CSHIFT  =0.1000    complex shift for real part using Kramers Kronig
   OMEGAMAX=  -1.0    maximum frequency
   DEG_THRESHOLD= 0.2000000E-02 threshold for treating states as degnerate
   RTIME   =   -0.100 relaxation time in fs
  (WPLASMAI=    0.000 imaginary part of plasma frequency in eV, 0.658/RTIME)
   DFIELD  = 0.0000000 0.0000000 0.0000000 field for delta impulse in time

 Orbital magnetization related:
   ORBITALMAG=     F  switch on orbital magnetization
   LCHIMAG   =     F  perturbation theory with respect to B field
   DQ        =  0.001000  dq finite difference perturbation B field
   LLRAUG    =     F  two centre corrections for induced B field



--------------------------------------------------------------------------------------------------------


 conjugate gradient relaxation of ions
   using selective dynamics as specified on POSCAR
 charge density and potential will be updated during run
 spin polarized calculation
 Variant of blocked Davidson
 Davidson routine will perform the subspace rotation
 perform sub-space diagonalisation
    after iterative eigenvector-optimisation
 modified Broyden-mixing scheme, WC =      100.0
 initial mixing is a Kerker type mixing with AMIX =  0.4000 and BMIX =      1.0000
 Hartree-type preconditioning will be used
 using additional bands           19
 real space projection scheme for non local part
 use partial core corrections
 calculate Harris-corrections to forces   (improved forces if not selfconsistent)
 use gradient corrections 
 use of overlap-Matrix (Vanderbilt PP)
 Fermi weights with tetrahedron method with Bloechl corrections


--------------------------------------------------------------------------------------------------------


  energy-cutoff  :      520.00
  volume of cell :      968.84
      direct lattice vectors                 reciprocal lattice vectors
     6.907777000 -0.000000000  0.000000000     0.144764372 -0.083579742  0.000000000
     3.453888000  5.982310000  0.000000000     0.000000000  0.167159509 -0.000000000
     0.000000000  0.000000000 23.444588000    -0.000000000  0.000000000  0.042653767

  length of vectors
     6.907777000  6.907776433 23.444588000     0.167159495  0.167159509  0.042653767



 k-points in units of 2pi/SCALE and weight: Kpoints from vasprun.xml                
   0.00000000  0.00000000  0.00000000       0.040
   0.02895287 -0.01671595  0.00000000       0.240
   0.05790575 -0.03343190  0.00000000       0.240
   0.05790575  0.00000000  0.00000000       0.240
  -0.05790575  0.06686380  0.00000000       0.240

 k-points in reciprocal lattice and weights: Kpoints from vasprun.xml                
   0.00000000  0.00000000  0.00000000       0.040
   0.20000000  0.00000000  0.00000000       0.240
   0.40000000  0.00000000  0.00000000       0.240
   0.40000000  0.20000000  0.00000000       0.240
  -0.40000000  0.20000000  0.00000000       0.240

 position of ions in fractional coordinates (direct lattice) 
   0.33333300  0.33333300  0.49992500
   0.66666700  0.66666700  0.50007500
   0.00000000  0.00000000  0.44821600
   0.00000000  0.00000000  0.55178400
   0.62635700  0.00042000  0.57375200
   0.00042000  0.37322400  0.57375200
   0.37322400  0.62635700  0.57375200
   0.37364300  0.99958000  0.42624800
   0.99958000  0.62677600  0.42624800
   0.62677600  0.37364300  0.42624800

 position of ions in cartesian coordinates  (Angst):
   3.45388488  1.99410134 11.72053566
   6.90778012  3.98820866 11.72405234
   0.00000000  0.00000000 10.50823946
   0.00000000  0.00000000 12.93634854
   4.32818511  0.00251257 13.45137925
   1.29197516  2.23274167 13.45137925
   4.74151509  3.74706174 13.45137925
   6.03347989  5.97979743  9.99320875
   9.06968984  3.74956833  9.99320875
   5.62014991  2.23524826  9.99320875



--------------------------------------------------------------------------------------------------------


 k-point  1 :   0.0000 0.0000 0.0000  plane waves:   26073
 k-point  2 :   0.2000 0.0000 0.0000  plane waves:   26070
 k-point  3 :   0.4000 0.0000 0.0000  plane waves:   26086
 k-point  4 :   0.4000 0.2000 0.0000  plane waves:   26085
 k-point  5 :  -0.4000 0.2000 0.0000  plane waves:   26115

 maximum and minimum number of plane-waves per node :     26115    26070

 maximum number of plane-waves:     26115
 maximum index in each direction: 
   IXMAX=   13   IYMAX=   12   IZMAX=   43
   IXMIN=  -13   IYMIN=  -13   IZMIN=  -43


 serial   3D FFT for wavefunctions
 parallel 3D FFT for charge:
    minimum data exchange during FFTs selected (reduces bandwidth)


 total amount of memory used by VASP MPI-rank0   130713. kBytes
=======================================================================

   base      :      30000. kBytes
   nonlr-proj:       8213. kBytes
   fftplans  :      11247. kBytes
   grid      :      68332. kBytes
   one-center:        311. kBytes
   wavefun   :      12610. kBytes

     INWAV:  cpu time    0.0000: real time    0.0006
 Broyden mixing: mesh for mixing (old mesh)
   NGX = 25   NGY = 25   NGZ = 87
  (NGX  =108   NGY  =108   NGZ  =360)
  gives a total of  54375 points

 initial charge density was supplied:
 charge density of overlapping atoms calculated
 number of electron      57.0000000 magnetization       6.0000000
 keeping initial charge density in first step


--------------------------------------------------------------------------------------------------------


 Maximum index for non-local projection operator         7247
 Maximum index for augmentation-charges         2278 (set IRDMAX)


--------------------------------------------------------------------------------------------------------


 First call to EWALD:  gamma=   0.179
 Maximum number of real-space cells 4x 4x 1
 Maximum number of reciprocal cells 2x 2x 6

    FEWALD:  cpu time    0.0000: real time    0.0015


--------------------------------------- Iteration      1(   1)  ---------------------------------------


vdW kernel read from vdw_kernel.bindat
  0.0000  0.2424  0.5071  0.7962  1.1119  1.4567  1.8333  2.2446  2.6937  3.1842
  3.7199  4.3049  4.9438  5.6415  6.4036  7.2358  8.1446  9.1372 10.2212 11.4050
 12.6979 14.1099 15.6519 17.3360 19.1751 21.1837 23.3773 25.7729 28.3892 31.2465
 34.3669 37.7748 41.4965 45.5611 50.0000

    POTLOK:  cpu time   51.2160: real time   52.8638
    SETDIJ:  cpu time    0.0360: real time    0.0442
     EDDAV:  cpu time   22.8560: real time   23.5256
 BZINTS: Fermi energy:  6.359638; 57.000000 electrons
         Band energy:  31.397710;  BLOECHL correction: -0.040135
       DOS:  cpu time    0.0080: real time    0.0067
    --------------------------------------------
      LOOP:  cpu time   74.1160: real time   76.4404

 eigenvalue-minimisations  :   960
 total energy-change (2. order) : 0.3862083E+03  (-0.1604132E+04)
 number of electron      57.0000000 magnetization       6.0000000
 augmentation part       57.0000000 magnetization       6.0000000

 Free energy of the ion-electron system (eV)
  ---------------------------------------------------
  alpha Z        PSCENC =        13.62040840
  Ewald energy   TEWEN  =      6221.61188061
  -Hartree energ DENC   =     -8151.90115098
  -exchange      EXHF   =         0.00000000
  -V(xc)+E(xc)   XCENC  =      -219.68044053
  PAW double counting   =      1170.15196040     -864.35372691
  entropy T*S    EENTRO =         0.00000000
  eigenvalues    EBANDS =        31.39771011
  atomic energy  EATOM  =      2185.36163785
  Solvation  Ediel_sol  =         0.00000000
  ---------------------------------------------------
  free energy    TOTEN  =       386.20827896 eV

  energy without entropy =      386.20827896  energy(sigma->0) =      386.20827896


--------------------------------------------------------------------------------------------------------




--------------------------------------- Iteration      1(   2)  ---------------------------------------


     EDDAV:  cpu time   26.2840: real time   26.4594
 BZINTS: Fermi energy: -0.297953; 57.000000 electrons
         Band energy:-343.015337;  BLOECHL correction: -0.069322
       DOS:  cpu time    0.0080: real time    0.0063
    --------------------------------------------
      LOOP:  cpu time   26.2920: real time   26.4657

 eigenvalue-minimisations  :  1104
 total energy-change (2. order) :-0.3744130E+03  (-0.3471362E+03)
 number of electron      57.0000000 magnetization       6.0000000
 augmentation part       57.0000000 magnetization       6.0000000

 Free energy of the ion-electron system (eV)
  ---------------------------------------------------
  alpha Z        PSCENC =        13.62040840
  Ewald energy   TEWEN  =      6221.61188061
  -Hartree energ DENC   =     -8151.90115098
  -exchange      EXHF   =         0.00000000
  -V(xc)+E(xc)   XCENC  =      -219.68044053
  PAW double counting   =      1170.15196040     -864.35372691
  entropy T*S    EENTRO =         0.00000000
  eigenvalues    EBANDS =      -343.01533719
  atomic energy  EATOM  =      2185.36163785
  Solvation  Ediel_sol  =         0.00000000
  ---------------------------------------------------
  free energy    TOTEN  =        11.79523166 eV

  energy without entropy =       11.79523166  energy(sigma->0) =       11.79523166


--------------------------------------------------------------------------------------------------------




--------------------------------------- Iteration      1(   3)  ---------------------------------------


     EDDAV:  cpu time   30.1000: real time   30.7068
 BZINTS: Fermi energy: -1.673196; 57.000000 electrons
         Band energy:-396.386868;  BLOECHL correction: -0.036828
       DOS:  cpu time    0.0040: real time    0.0068
    --------------------------------------------
      LOOP:  cpu time   30.1040: real time   30.7136

 eigenvalue-minimisations  :  1296
 total energy-change (2. order) :-0.5337153E+02  (-0.5141614E+02)
 number of electron      57.0000000 magnetization       6.0000000
 augmentation part       57.0000000 magnetization       6.0000000

 Free energy of the ion-electron system (eV)
  ---------------------------------------------------
  alpha Z        PSCENC =        13.62040840
  Ewald energy   TEWEN  =      6221.61188061
  -Hartree energ DENC   =     -8151.90115098
  -exchange      EXHF   =         0.00000000
  -V(xc)+E(xc)   XCENC  =      -219.68044053
  PAW double counting   =      1170.15196040     -864.35372691
  entropy T*S    EENTRO =         0.00000000
  eigenvalues    EBANDS =      -396.38686818
  atomic energy  EATOM  =      2185.36163785
  Solvation  Ediel_sol  =         0.00000000
  ---------------------------------------------------
  free energy    TOTEN  =       -41.57629933 eV

  energy without entropy =      -41.57629933  energy(sigma->0) =      -41.57629933


--------------------------------------------------------------------------------------------------------




--------------------------------------- Iteration      1(   4)  ---------------------------------------


     EDDAV:  cpu time   29.5160: real time   29.9528
 BZINTS: Fermi energy: -1.735266; 57.000000 electrons
         Band energy:-399.149461;  BLOECHL correction: -0.031745
       DOS:  cpu time    0.0040: real time    0.0050
    --------------------------------------------
      LOOP:  cpu time   29.5200: real time   29.9578

 eigenvalue-minimisations  :  1264
 total energy-change (2. order) :-0.2762592E+01  (-0.2736643E+01)
 number of electron      57.0000000 magnetization       6.0000000
 augmentation part       57.0000000 magnetization       6.0000000

 Free energy of the ion-electron system (eV)
  ---------------------------------------------------
  alpha Z        PSCENC =        13.62040840
  Ewald energy   TEWEN  =      6221.61188061
  -Hartree energ DENC   =     -8151.90115098
  -exchange      EXHF   =         0.00000000
  -V(xc)+E(xc)   XCENC  =      -219.68044053
  PAW double counting   =      1170.15196040     -864.35372691
  entropy T*S    EENTRO =         0.00000000
  eigenvalues    EBANDS =      -399.14946064
  atomic energy  EATOM  =      2185.36163785
  Solvation  Ediel_sol  =         0.00000000
  ---------------------------------------------------
  free energy    TOTEN  =       -44.33889179 eV

  energy without entropy =      -44.33889179  energy(sigma->0) =      -44.33889179


--------------------------------------------------------------------------------------------------------




--------------------------------------- Iteration      1(   5)  ---------------------------------------


     EDDAV:  cpu time   32.1680: real time   33.7863
 BZINTS: Fermi energy: -1.737792; 57.000000 electrons
         Band energy:-399.269992;  BLOECHL correction: -0.031490
       DOS:  cpu time    0.0040: real time    0.0058
    CHARGE:  cpu time    1.8800: real time    1.9655
    MIXING:  cpu time    0.0400: real time    0.0434
    --------------------------------------------
      LOOP:  cpu time   34.0920: real time   35.8011

 eigenvalue-minimisations  :  1440
 total energy-change (2. order) :-0.1205319E+00  (-0.1205372E+00)
 number of electron      57.0000000 magnetization       5.9075775
 augmentation part       -5.0292382 magnetization       3.6868624

 Broyden mixing:
  rms(total) = 0.13010E+01    rms(broyden)= 0.13010E+01
  rms(prec ) = 0.14318E+01
  weight for this iteration     100.00

 Free energy of the ion-electron system (eV)
  ---------------------------------------------------
  alpha Z        PSCENC =        13.62040840
  Ewald energy   TEWEN  =      6221.61188061
  -Hartree energ DENC   =     -8151.90115098
  -exchange      EXHF   =         0.00000000
  -V(xc)+E(xc)   XCENC  =      -219.68044053
  PAW double counting   =      1170.15196040     -864.35372691
  entropy T*S    EENTRO =         0.00000000
  eigenvalues    EBANDS =      -399.26999249
  atomic energy  EATOM  =      2185.36163785
  Solvation  Ediel_sol  =         0.00000000
  ---------------------------------------------------
  free energy    TOTEN  =       -44.45942364 eV

  energy without entropy =      -44.45942364  energy(sigma->0) =      -44.45942364


--------------------------------------------------------------------------------------------------------




--------------------------------------- Iteration      1(   6)  ---------------------------------------


    POTLOK:  cpu time   52.2680: real time   52.8661
    SETDIJ:  cpu time    0.0520: real time    0.0550
     EDDAV:  cpu time   31.0320: real time   31.6432
 BZINTS: Fermi energy: -3.798670; 57.000000 electrons
         Band energy:-446.141915;  BLOECHL correction: -0.019652
       DOS:  cpu time    0.0080: real time    0.0071
    CHARGE:  cpu time    1.9240: real time    1.9733
    MIXING:  cpu time    0.0640: real time    0.0640
    --------------------------------------------
      LOOP:  cpu time   85.3480: real time   86.6086

 eigenvalue-minimisations  :  1344
 total energy-change (2. order) :-0.1403727E+02  (-0.7921198E+01)
 number of electron      56.9999997 magnetization       5.8088025
 augmentation part        4.2185809 magnetization       4.8679659

 Broyden mixing:
  rms(total) = 0.43110E+01    rms(broyden)= 0.43110E+01
  rms(prec ) = 0.48472E+01
  weight for this iteration     100.00

 eigenvalues of (default mixing * dielectric matrix)
  average eigenvalue GAMMA=   0.2034
  0.2034

 Free energy of the ion-electron system (eV)
  ---------------------------------------------------
  alpha Z        PSCENC =        13.62040840
  Ewald energy   TEWEN  =      6221.61188061
  -Hartree energ DENC   =     -8123.94647932
  -exchange      EXHF   =         0.00000000
  -V(xc)+E(xc)   XCENC  =      -219.24475704
  PAW double counting   =      1146.78528072     -836.54275140
  entropy T*S    EENTRO =         0.00000000
  eigenvalues    EBANDS =      -446.14191478
  atomic energy  EATOM  =      2185.36163785
  Solvation  Ediel_sol  =         0.00000000
  ---------------------------------------------------
  free energy    TOTEN  =       -58.49669495 eV

  energy without entropy =      -58.49669495  energy(sigma->0) =      -58.49669495


--------------------------------------------------------------------------------------------------------




--------------------------------------- Iteration      1(   7)  ---------------------------------------


    POTLOK:  cpu time   52.0360: real time   52.7028
    SETDIJ:  cpu time    0.0600: real time    0.0612
     EDDAV:  cpu time   29.5200: real time   29.8420
 BZINTS: Fermi energy: -1.859348; 57.000000 electrons
         Band energy:-396.319234;  BLOECHL correction: -0.026303
       DOS:  cpu time    0.0040: real time    0.0068
    CHARGE:  cpu time    1.8640: real time    1.9688
    MIXING:  cpu time    0.0560: real time    0.0527
    --------------------------------------------
      LOOP:  cpu time   83.5400: real time   84.6342

 eigenvalue-minimisations  :  1264
 total energy-change (2. order) : 0.1663571E+02  (-0.1268468E+02)
 number of electron      56.9999999 magnetization       5.7770849
 augmentation part       -3.6488626 magnetization       3.7137404

 Broyden mixing:
  rms(total) = 0.83947E+00    rms(broyden)= 0.83939E+00
  rms(prec ) = 0.86626E+00
  weight for this iteration     100.00

 eigenvalues of (default mixing * dielectric matrix)
  average eigenvalue GAMMA=   0.3136
  0.4545  0.1728

 Free energy of the ion-electron system (eV)
  ---------------------------------------------------
  alpha Z        PSCENC =        13.62040840
  Ewald energy   TEWEN  =      6221.61188061
  -Hartree energ DENC   =     -8151.66433725
  -exchange      EXHF   =         0.00000000
  -V(xc)+E(xc)   XCENC  =      -219.85503915
  PAW double counting   =      1202.37912328     -896.99542014
  entropy T*S    EENTRO =         0.00000000
  eigenvalues    EBANDS =      -396.31923365
  atomic energy  EATOM  =      2185.36163785
  Solvation  Ediel_sol  =         0.00000000
  ---------------------------------------------------
  free energy    TOTEN  =       -41.86098004 eV

  energy without entropy =      -41.86098004  energy(sigma->0) =      -41.86098004


--------------------------------------------------------------------------------------------------------




--------------------------------------- Iteration      1(   8)  ---------------------------------------


    POTLOK:  cpu time   52.4800: real time   52.8825
    SETDIJ:  cpu time    0.0600: real time    0.0586
     EDDAV:  cpu time   27.2360: real time   27.6541
 BZINTS: Fermi energy: -1.850515; 57.000000 electrons
         Band energy:-396.426070;  BLOECHL correction: -0.026495
       DOS:  cpu time    0.0040: real time    0.0071
    CHARGE:  cpu time    1.8960: real time    1.9308
    MIXING:  cpu time    0.0440: real time    0.0433
    --------------------------------------------
      LOOP:  cpu time   81.7200: real time   82.5763

 eigenvalue-minimisations  :  1168
 total energy-change (2. order) :-0.9092343E+00  (-0.5183543E+00)
 number of electron      57.0000000 magnetization       5.6564038
 augmentation part       -3.9356596 magnetization       3.5707566

 Broyden mixing:
  rms(total) = 0.67273E+00    rms(broyden)= 0.67272E+00
  rms(prec ) = 0.72273E+00
  weight for this iteration     100.00

 eigenvalues of (default mixing * dielectric matrix)
  average eigenvalue GAMMA=   0.6326
  1.1476  0.2024  0.5476

 Free energy of the ion-electron system (eV)
  ---------------------------------------------------
  alpha Z        PSCENC =        13.62040840
  Ewald energy   TEWEN  =      6221.61188061
  -Hartree energ DENC   =     -8152.70369832
  -exchange      EXHF   =         0.00000000
  -V(xc)+E(xc)   XCENC  =      -219.26899991
  PAW double counting   =      1211.15223529     -906.11760835
  entropy T*S    EENTRO =         0.00000000
  eigenvalues    EBANDS =      -396.42606995
  atomic energy  EATOM  =      2185.36163785
  Solvation  Ediel_sol  =         0.00000000
  ---------------------------------------------------
  free energy    TOTEN  =       -42.77021437 eV

  energy without entropy =      -42.77021437  energy(sigma->0) =      -42.77021437


--------------------------------------------------------------------------------------------------------




--------------------------------------- Iteration      1(   9)  ---------------------------------------


    POTLOK:  cpu time   51.0520: real time   51.3979
    SETDIJ:  cpu time    0.0680: real time    0.0645
     EDDAV:  cpu time   31.2520: real time   31.5974
 BZINTS: Fermi energy: -1.853592; 57.000000 electrons
         Band energy:-394.152187;  BLOECHL correction: -0.025006
       DOS:  cpu time    0.0040: real time    0.0070
    CHARGE:  cpu time    1.9320: real time    1.9396
    MIXING:  cpu time    0.0560: real time    0.0588
    --------------------------------------------
      LOOP:  cpu time   84.3640: real time   85.0652

 eigenvalue-minimisations  :  1360
 total energy-change (2. order) : 0.3050554E+00  (-0.9114991E-01)
 number of electron      56.9999999 magnetization       5.5963372
 augmentation part       -3.3843880 magnetization       3.8687787

 Broyden mixing:
  rms(total) = 0.34970E+00    rms(broyden)= 0.34970E+00
  rms(prec ) = 0.36289E+00
  weight for this iteration     100.00

 eigenvalues of (default mixing * dielectric matrix)
  average eigenvalue GAMMA=   0.9116
  1.9088  1.0908  0.2005  0.4464

 Free energy of the ion-electron system (eV)
  ---------------------------------------------------
  alpha Z        PSCENC =        13.62040840
  Ewald energy   TEWEN  =      6221.61188061
  -Hartree energ DENC   =     -8155.18695611
  -exchange      EXHF   =         0.00000000
  -V(xc)+E(xc)   XCENC  =      -218.29385536
  PAW double counting   =      1235.32955093     -930.75563835
  entropy T*S    EENTRO =         0.00000000
  eigenvalues    EBANDS =      -394.15218696
  atomic energy  EATOM  =      2185.36163785
  Solvation  Ediel_sol  =         0.00000000
  ---------------------------------------------------
  free energy    TOTEN  =       -42.46515898 eV

  energy without entropy =      -42.46515898  energy(sigma->0) =      -42.46515898


--------------------------------------------------------------------------------------------------------




--------------------------------------- Iteration      1(  10)  ---------------------------------------


    POTLOK:  cpu time   51.8720: real time   52.6332
    SETDIJ:  cpu time    0.0520: real time    0.0515
     EDDAV:  cpu time   31.2600: real time   31.7045
 BZINTS: Fermi energy: -1.854117; 57.000000 electrons
         Band energy:-392.966584;  BLOECHL correction: -0.027535
       DOS:  cpu time    0.0040: real time    0.0070
    CHARGE:  cpu time    1.9040: real time    1.9925
    MIXING:  cpu time    0.0560: real time    0.0540
    --------------------------------------------
      LOOP:  cpu time   85.1480: real time   86.4427

 eigenvalue-minimisations  :  1376
 total energy-change (2. order) :-0.2515775E-01  (-0.2563564E-01)
 number of electron      56.9999999 magnetization       5.5852869
 augmentation part       -3.0854252 magnetization       4.0369727

 Broyden mixing:
  rms(total) = 0.17188E+00    rms(broyden)= 0.17188E+00
  rms(prec ) = 0.17308E+00
  weight for this iteration     100.00

 eigenvalues of (default mixing * dielectric matrix)
  average eigenvalue GAMMA=   0.9747
  1.7596  1.7596  0.2006  0.6533  0.5005

 Free energy of the ion-electron system (eV)
  ---------------------------------------------------
  alpha Z        PSCENC =        13.62040840
  Ewald energy   TEWEN  =      6221.61188061
  -Hartree energ DENC   =     -8156.90761258
  -exchange      EXHF   =         0.00000000
  -V(xc)+E(xc)   XCENC  =      -217.49566144
  PAW double counting   =      1241.01048822     -936.72487425
  entropy T*S    EENTRO =         0.00000000
  eigenvalues    EBANDS =      -392.96658355
  atomic energy  EATOM  =      2185.36163785
  Solvation  Ediel_sol  =         0.00000000
  ---------------------------------------------------
  free energy    TOTEN  =       -42.49031673 eV

  energy without entropy =      -42.49031673  energy(sigma->0) =      -42.49031673


--------------------------------------------------------------------------------------------------------




--------------------------------------- Iteration      1(  11)  ---------------------------------------


    POTLOK:  cpu time   51.4120: real time   51.6206
    SETDIJ:  cpu time    0.0520: real time    0.0510
     EDDAV:  cpu time   30.6080: real time   31.0127
 BZINTS: Fermi energy: -1.846360; 56.977617 electrons
         Band energy:-392.705034;  BLOECHL correction: -0.030146
       DOS:  cpu time    0.0040: real time    0.0089
    CHARGE:  cpu time    1.8800: real time    1.9313
    MIXING:  cpu time    0.0400: real time    0.0431
    --------------------------------------------
      LOOP:  cpu time   83.9960: real time   84.6677

 eigenvalue-minimisations  :  1344
 total energy-change (2. order) : 0.9675427E-02  (-0.2895661E-02)
 number of electron      56.9776172 magnetization       5.5777360
 augmentation part       -3.0679207 magnetization       4.1201051

 Broyden mixing:
  rms(total) = 0.10840E+00    rms(broyden)= 0.10840E+00
  rms(prec ) = 0.10982E+00
  weight for this iteration     100.00

 eigenvalues of (default mixing * dielectric matrix)
  average eigenvalue GAMMA=   1.0192
  2.0164  2.0164  0.2005  0.4627  0.7095  0.7095

 Free energy of the ion-electron system (eV)
  ---------------------------------------------------
  alpha Z        PSCENC =        13.62040840
  Ewald energy   TEWEN  =      6221.61188061
  -Hartree energ DENC   =     -8157.45563389
  -exchange      EXHF   =         0.00000000
  -V(xc)+E(xc)   XCENC  =      -217.12385366
  PAW double counting   =      1239.26547854     -935.05552522
  entropy T*S    EENTRO =         0.00000000
  eigenvalues    EBANDS =      -392.70503395
  atomic energy  EATOM  =      2185.36163785
  Solvation  Ediel_sol  =         0.00000000
  ---------------------------------------------------
  free energy    TOTEN  =       -42.48064130 eV

  energy without entropy =      -42.48064130  energy(sigma->0) =      -42.48064130


--------------------------------------------------------------------------------------------------------




--------------------------------------- Iteration      1(  12)  ---------------------------------------


    POTLOK:  cpu time   51.1600: real time   51.3002
    SETDIJ:  cpu time    0.0600: real time    0.0624
     EDDAV:  cpu time   32.2560: real time   32.6447
 BZINTS: Fermi energy: -1.841861; 57.036946 electrons
         Band energy:-392.822589;  BLOECHL correction: -0.029288
       DOS:  cpu time    0.0080: real time    0.0101
    CHARGE:  cpu time    1.8960: real time    1.9317
    MIXING:  cpu time    0.0400: real time    0.0444
    --------------------------------------------
      LOOP:  cpu time   85.4200: real time   85.9935

 eigenvalue-minimisations  :  1408
 total energy-change (2. order) :-0.1155410E+00  (-0.1751108E-02)
 number of electron      57.0369463 magnetization       5.5730855
 augmentation part       -3.0730790 magnetization       4.0882917

 Broyden mixing:
  rms(total) = 0.71790E-01    rms(broyden)= 0.71765E-01
  rms(prec ) = 0.75440E-01
  weight for this iteration     100.00

 eigenvalues of (default mixing * dielectric matrix)
  average eigenvalue GAMMA=   1.0677
  2.3924  2.3924  0.9103  0.8029  0.2006  0.4736  0.3019

 Free energy of the ion-electron system (eV)
  ---------------------------------------------------
  alpha Z        PSCENC =        13.62040840
  Ewald energy   TEWEN  =      6221.61188061
  -Hartree energ DENC   =     -8157.57926476
  -exchange      EXHF   =         0.00000000
  -V(xc)+E(xc)   XCENC  =      -216.93012260
  PAW double counting   =      1238.24955792     -934.10769077
  entropy T*S    EENTRO =         0.00000000
  eigenvalues    EBANDS =      -392.82258894
  atomic energy  EATOM  =      2185.36163785
  Solvation  Ediel_sol  =         0.00000000
  ---------------------------------------------------
  free energy    TOTEN  =       -42.59618228 eV

  energy without entropy =      -42.59618228  energy(sigma->0) =      -42.59618228


--------------------------------------------------------------------------------------------------------




--------------------------------------- Iteration      1(  13)  ---------------------------------------


    POTLOK:  cpu time   51.1200: real time   51.4111
    SETDIJ:  cpu time    0.0560: real time    0.0561
     EDDAV:  cpu time   32.0040: real time   32.3210
 BZINTS: Fermi energy: -1.834899; 57.000000 electrons
         Band energy:-392.487306;  BLOECHL correction: -0.031177
       DOS:  cpu time    0.0040: real time    0.0070
    CHARGE:  cpu time    1.9320: real time    1.9353
    MIXING:  cpu time    0.0400: real time    0.0449
    --------------------------------------------
      LOOP:  cpu time   85.1560: real time   85.7754

 eigenvalue-minimisations  :  1408
 total energy-change (2. order) : 0.7353575E-01  (-0.8618708E-03)
 number of electron      56.9999999 magnetization       5.5706892
 augmentation part       -3.0682430 magnetization       4.1552445

 Broyden mixing:
  rms(total) = 0.19611E-01    rms(broyden)= 0.19574E-01
  rms(prec ) = 0.21185E-01
  weight for this iteration     100.00

 eigenvalues of (default mixing * dielectric matrix)
  average eigenvalue GAMMA=   1.1124
  2.4687  2.4687  1.4433  0.7853  0.7771  0.4734  0.2006  0.2821

 Free energy of the ion-electron system (eV)
  ---------------------------------------------------
  alpha Z        PSCENC =        13.62040840
  Ewald energy   TEWEN  =      6221.61188061
  -Hartree energ DENC   =     -8158.05383901
  -exchange      EXHF   =         0.00000000
  -V(xc)+E(xc)   XCENC  =      -216.63569610
  PAW double counting   =      1237.51043626     -933.45016822
  entropy T*S    EENTRO =         0.00000000
  eigenvalues    EBANDS =      -392.48730634
  atomic energy  EATOM  =      2185.36163785
  Solvation  Ediel_sol  =         0.00000000
  ---------------------------------------------------
  free energy    TOTEN  =       -42.52264654 eV

  energy without entropy =      -42.52264654  energy(sigma->0) =      -42.52264654


--------------------------------------------------------------------------------------------------------




--------------------------------------- Iteration      1(  14)  ---------------------------------------


    POTLOK:  cpu time   50.4440: real time   51.5022
    SETDIJ:  cpu time    0.0560: real time    0.0564
     EDDAV:  cpu time   29.2640: real time   29.7615
 BZINTS: Fermi energy: -1.830376; 57.000000 electrons
         Band energy:-392.275994;  BLOECHL correction: -0.031306
       DOS:  cpu time    0.0040: real time    0.0074
    CHARGE:  cpu time    1.8160: real time    1.9334
    MIXING:  cpu time    0.0480: real time    0.0477
    --------------------------------------------
      LOOP:  cpu time   81.6320: real time   83.3085

 eigenvalue-minimisations  :  1264
 total energy-change (2. order) :-0.9775265E-02  (-0.2238789E-03)
 number of electron      56.9999999 magnetization       5.5691251
 augmentation part       -3.0722265 magnetization       4.1653679

 Broyden mixing:
  rms(total) = 0.10709E-01    rms(broyden)= 0.10709E-01
  rms(prec ) = 0.12673E-01
  weight for this iteration     100.00

 eigenvalues of (default mixing * dielectric matrix)
  average eigenvalue GAMMA=   1.1410
  2.5986  2.5986  1.7203  0.9396  0.2006  0.7991  0.4735  0.6561  0.2831

 Free energy of the ion-electron system (eV)
  ---------------------------------------------------
  alpha Z        PSCENC =        13.62040840
  Ewald energy   TEWEN  =      6221.61188061
  -Hartree energ DENC   =     -8158.29358639
  -exchange      EXHF   =         0.00000000
  -V(xc)+E(xc)   XCENC  =      -216.60571600
  PAW double counting   =      1237.44553887     -933.39659074
  entropy T*S    EENTRO =         0.00000000
  eigenvalues    EBANDS =      -392.27599441
  atomic energy  EATOM  =      2185.36163785
  Solvation  Ediel_sol  =         0.00000000
  ---------------------------------------------------
  free energy    TOTEN  =       -42.53242180 eV

  energy without entropy =      -42.53242180  energy(sigma->0) =      -42.53242180


--------------------------------------------------------------------------------------------------------




--------------------------------------- Iteration      1(  15)  ---------------------------------------


    POTLOK:  cpu time   52.0280: real time   52.5078
    SETDIJ:  cpu time    0.0480: real time    0.0510
     EDDAV:  cpu time   24.7840: real time   25.4839
 BZINTS: Fermi energy: -1.825727; 57.000000 electrons
         Band energy:-392.011189;  BLOECHL correction: -0.031429
       DOS:  cpu time    0.0040: real time    0.0072
    CHARGE:  cpu time    1.9320: real time    1.9333
    MIXING:  cpu time    0.0480: real time    0.0517
    --------------------------------------------
      LOOP:  cpu time   78.8440: real time   80.0348

 eigenvalue-minimisations  :  1056
 total energy-change (2. order) : 0.2140445E-03  (-0.5440982E-04)
 number of electron      56.9999999 magnetization       5.5682912
 augmentation part       -3.0672345 magnetization       4.1684585

 Broyden mixing:
  rms(total) = 0.50678E-02    rms(broyden)= 0.50677E-02
  rms(prec ) = 0.76682E-02
  weight for this iteration     100.00

 eigenvalues of (default mixing * dielectric matrix)
  average eigenvalue GAMMA=   1.1623
  2.5962  2.5962  2.0914  0.9995  0.9995  0.2006  0.4735  0.7430  0.6401  0.2829

 Free energy of the ion-electron system (eV)
  ---------------------------------------------------
  alpha Z        PSCENC =        13.62040840
  Ewald energy   TEWEN  =      6221.61188061
  -Hartree energ DENC   =     -8158.57431178
  -exchange      EXHF   =         0.00000000
  -V(xc)+E(xc)   XCENC  =      -216.57182117
  PAW double counting   =      1237.25864167     -933.22745454
  entropy T*S    EENTRO =         0.00000000
  eigenvalues    EBANDS =      -392.01118881
  atomic energy  EATOM  =      2185.36163785
  Solvation  Ediel_sol  =         0.00000000
  ---------------------------------------------------
  free energy    TOTEN  =       -42.53220776 eV

  energy without entropy =      -42.53220776  energy(sigma->0) =      -42.53220776


--------------------------------------------------------------------------------------------------------




--------------------------------------- Iteration      1(  16)  ---------------------------------------


    POTLOK:  cpu time   52.6960: real time   53.0289
    SETDIJ:  cpu time    0.0800: real time    0.0816
     EDDAV:  cpu time   18.9520: real time   19.3439
 BZINTS: Fermi energy: -1.821113; 57.000000 electrons
         Band energy:-391.723184;  BLOECHL correction: -0.031513
       DOS:  cpu time    0.0080: real time    0.0093
    CHARGE:  cpu time    1.9440: real time    1.9602
    MIXING:  cpu time    0.0560: real time    0.0611
    --------------------------------------------
      LOOP:  cpu time   73.7360: real time   74.4850

 eigenvalue-minimisations  :   736
 total energy-change (2. order) :-0.5923276E-03  (-0.1024935E-04)
 number of electron      56.9999999 magnetization       5.5683979
 augmentation part       -3.0637482 magnetization       4.1701465

 Broyden mixing:
  rms(total) = 0.41164E-02    rms(broyden)= 0.41164E-02
  rms(prec ) = 0.68719E-02
  weight for this iteration     100.00

 eigenvalues of (default mixing * dielectric matrix)
  average eigenvalue GAMMA=   1.2037
  2.8101  2.8101  1.7445  1.7445  0.2006  0.9106  0.9106  0.4734  0.7167  0.6374
  0.2828

 Free energy of the ion-electron system (eV)
  ---------------------------------------------------
  alpha Z        PSCENC =        13.62040840
  Ewald energy   TEWEN  =      6221.61188061
  -Hartree energ DENC   =     -8158.87018755
  -exchange      EXHF   =         0.00000000
  -V(xc)+E(xc)   XCENC  =      -216.56057054
  PAW double counting   =      1237.37587066     -933.34865510
  entropy T*S    EENTRO =         0.00000000
  eigenvalues    EBANDS =      -391.72318443
  atomic energy  EATOM  =      2185.36163785
  Solvation  Ediel_sol  =         0.00000000
  ---------------------------------------------------
  free energy    TOTEN  =       -42.53280009 eV

  energy without entropy =      -42.53280009  energy(sigma->0) =      -42.53280009


--------------------------------------------------------------------------------------------------------




--------------------------------------- Iteration      1(  17)  ---------------------------------------


    POTLOK:  cpu time   51.8000: real time   52.2294
    SETDIJ:  cpu time    0.0560: real time    0.0525
     EDDAV:  cpu time   21.9440: real time   22.3547
 BZINTS: Fermi energy: -1.811099; 57.000000 electrons
         Band energy:-391.105533;  BLOECHL correction: -0.031569
       DOS:  cpu time    0.0080: real time    0.0071
    CHARGE:  cpu time    1.9280: real time    1.9686
    MIXING:  cpu time    0.0760: real time    0.0765
    --------------------------------------------
      LOOP:  cpu time   75.8120: real time   76.6889

 eigenvalue-minimisations  :   912
 total energy-change (2. order) : 0.4344934E-03  (-0.3265170E-04)
 number of electron      56.9999999 magnetization       5.5688811
 augmentation part       -3.0614020 magnetization       4.1701458

 Broyden mixing:
  rms(total) = 0.32651E-02    rms(broyden)= 0.32650E-02
  rms(prec ) = 0.59073E-02
  weight for this iteration     100.00

 eigenvalues of (default mixing * dielectric matrix)
  average eigenvalue GAMMA=   1.2863
  3.1401  3.1401  2.0341  2.0341  1.0094  1.0094  0.2006  0.4735  0.7928  0.7009
  0.6181  0.2828

 Free energy of the ion-electron system (eV)
  ---------------------------------------------------
  alpha Z        PSCENC =        13.62040840
  Ewald energy   TEWEN  =      6221.61188061
  -Hartree energ DENC   =     -8159.48760904
  -exchange      EXHF   =         0.00000000
  -V(xc)+E(xc)   XCENC  =      -216.55752514
  PAW double counting   =      1237.44095465     -933.41657980
  entropy T*S    EENTRO =         0.00000000
  eigenvalues    EBANDS =      -391.10553314
  atomic energy  EATOM  =      2185.36163785
  Solvation  Ediel_sol  =         0.00000000
  ---------------------------------------------------
  free energy    TOTEN  =       -42.53236559 eV

  energy without entropy =      -42.53236559  energy(sigma->0) =      -42.53236559


--------------------------------------------------------------------------------------------------------




--------------------------------------- Iteration      1(  18)  ---------------------------------------


    POTLOK:  cpu time   51.0920: real time   51.6304
    SETDIJ:  cpu time    0.0520: real time    0.0529
     EDDAV:  cpu time   22.9160: real time   23.1587
 BZINTS: Fermi energy: -1.798065; 57.000000 electrons
         Band energy:-390.335481;  BLOECHL correction: -0.031597
       DOS:  cpu time    0.0040: real time    0.0075
    CHARGE:  cpu time    1.9280: real time    1.9300
    MIXING:  cpu time    0.0560: real time    0.0543
    --------------------------------------------
      LOOP:  cpu time   76.0480: real time   76.8338

 eigenvalue-minimisations  :   944
 total energy-change (2. order) : 0.7683576E-03  (-0.3052572E-04)
 number of electron      56.9999999 magnetization       5.5702041
 augmentation part       -3.0608483 magnetization       4.1709218

 Broyden mixing:
  rms(total) = 0.28202E-02    rms(broyden)= 0.28202E-02
  rms(prec ) = 0.51076E-02
  weight for this iteration     100.00

 eigenvalues of (default mixing * dielectric matrix)
  average eigenvalue GAMMA=   1.3671
  4.1683  3.0238  2.0783  2.0783  1.3776  0.2006  0.9939  0.9939  0.2828  0.4735
  0.7947  0.6845  0.6215

 Free energy of the ion-electron system (eV)
  ---------------------------------------------------
  alpha Z        PSCENC =        13.62040840
  Ewald energy   TEWEN  =      6221.61188061
  -Hartree energ DENC   =     -8160.26263763
  -exchange      EXHF   =         0.00000000
  -V(xc)+E(xc)   XCENC  =      -216.54877039
  PAW double counting   =      1237.50390199     -933.48253701
  entropy T*S    EENTRO =         0.00000000
  eigenvalues    EBANDS =      -390.33548106
  atomic energy  EATOM  =      2185.36163785
  Solvation  Ediel_sol  =         0.00000000
  ---------------------------------------------------
  free energy    TOTEN  =       -42.53159723 eV

  energy without entropy =      -42.53159723  energy(sigma->0) =      -42.53159723


--------------------------------------------------------------------------------------------------------




--------------------------------------- Iteration      1(  19)  ---------------------------------------


    POTLOK:  cpu time   52.1040: real time   52.2971
    SETDIJ:  cpu time    0.0560: real time    0.0575
     EDDAV:  cpu time   22.1400: real time   22.6308
 BZINTS: Fermi energy: -1.783167; 57.000000 electrons
         Band energy:-389.476155;  BLOECHL correction: -0.031620
       DOS:  cpu time    0.0040: real time    0.0071
    CHARGE:  cpu time    1.9040: real time    1.9294
    MIXING:  cpu time    0.0720: real time    0.0727
    --------------------------------------------
      LOOP:  cpu time   76.2800: real time   76.9946

 eigenvalue-minimisations  :   928
 total energy-change (2. order) :-0.5171001E-03  (-0.5542617E-04)
 number of electron      56.9999999 magnetization       5.5717121
 augmentation part       -3.0618892 magnetization       4.1709135

 Broyden mixing:
  rms(total) = 0.19789E-02    rms(broyden)= 0.19789E-02
  rms(prec ) = 0.40130E-02
  weight for this iteration     100.00

 eigenvalues of (default mixing * dielectric matrix)
  average eigenvalue GAMMA=   1.5914
  6.8072  3.2188  2.3578  1.9776  1.9776  0.2006  1.0855  0.9290  0.9290  0.2828
  0.4735  0.7310  0.6230  0.6866

 Free energy of the ion-electron system (eV)
  ---------------------------------------------------
  alpha Z        PSCENC =        13.62040840
  Ewald energy   TEWEN  =      6221.61188061
  -Hartree energ DENC   =     -8161.13085470
  -exchange      EXHF   =         0.00000000
  -V(xc)+E(xc)   XCENC  =      -216.54634553
  PAW double counting   =      1237.46403795     -933.43672408
  entropy T*S    EENTRO =         0.00000000
  eigenvalues    EBANDS =      -389.47615485
  atomic energy  EATOM  =      2185.36163785
  Solvation  Ediel_sol  =         0.00000000
  ---------------------------------------------------
  free energy    TOTEN  =       -42.53211433 eV

  energy without entropy =      -42.53211433  energy(sigma->0) =      -42.53211433


--------------------------------------------------------------------------------------------------------




--------------------------------------- Iteration      1(  20)  ---------------------------------------


    POTLOK:  cpu time   51.2720: real time   51.5174
    SETDIJ:  cpu time    0.0520: real time    0.0516
     EDDAV:  cpu time   24.0480: real time   24.1912
 BZINTS: Fermi energy: -1.770203; 57.000000 electrons
         Band energy:-388.726034;  BLOECHL correction: -0.031617
       DOS:  cpu time    0.0040: real time    0.0073
    CHARGE:  cpu time    1.8840: real time    1.9366
    MIXING:  cpu time    0.0840: real time    0.0841
    --------------------------------------------
      LOOP:  cpu time   77.3440: real time   77.7882

 eigenvalue-minimisations  :  1008
 total energy-change (2. order) : 0.3847030E-03  (-0.3293219E-04)
 number of electron      56.9999999 magnetization       5.5724050
 augmentation part       -3.0626336 magnetization       4.1703892

 Broyden mixing:
  rms(total) = 0.15368E-02    rms(broyden)= 0.15368E-02
  rms(prec ) = 0.32718E-02
  weight for this iteration     100.00

 eigenvalues of (default mixing * dielectric matrix)
  average eigenvalue GAMMA=   1.6916
  8.8499  3.1342  2.5454  2.0214  2.0214  0.2006  1.0271  1.0271  0.9633  0.2828
  0.4735  0.8163  0.7309  0.6228  0.6571

 Free energy of the ion-electron system (eV)
  ---------------------------------------------------
  alpha Z        PSCENC =        13.62040840
  Ewald energy   TEWEN  =      6221.61188061
  -Hartree energ DENC   =     -8161.88605172
  -exchange      EXHF   =         0.00000000
  -V(xc)+E(xc)   XCENC  =      -216.54512032
  PAW double counting   =      1237.36809940     -933.33654955
  entropy T*S    EENTRO =         0.00000000
  eigenvalues    EBANDS =      -388.72603432
  atomic energy  EATOM  =      2185.36163785
  Solvation  Ediel_sol  =         0.00000000
  ---------------------------------------------------
  free energy    TOTEN  =       -42.53172963 eV

  energy without entropy =      -42.53172963  energy(sigma->0) =      -42.53172963


--------------------------------------------------------------------------------------------------------




--------------------------------------- Iteration      1(  21)  ---------------------------------------


    POTLOK:  cpu time   51.3080: real time   51.4780
    SETDIJ:  cpu time    0.0560: real time    0.0524
     EDDAV:  cpu time   21.2880: real time   21.6297
 BZINTS: Fermi energy: -1.763719; 57.000000 electrons
         Band energy:-388.346210;  BLOECHL correction: -0.031635
       DOS:  cpu time    0.0040: real time    0.0065
    CHARGE:  cpu time    1.9440: real time    1.9451
    MIXING:  cpu time    0.0920: real time    0.0933
    --------------------------------------------
      LOOP:  cpu time   74.6920: real time   75.2049

 eigenvalue-minimisations  :   848
 total energy-change (2. order) : 0.2099437E-03  (-0.2285770E-05)
 number of electron      56.9999999 magnetization       5.5741624
 augmentation part       -3.0624208 magnetization       4.1723783

 Broyden mixing:
  rms(total) = 0.15462E-02    rms(broyden)= 0.15462E-02
  rms(prec ) = 0.29980E-02
  weight for this iteration     100.00

 eigenvalues of (default mixing * dielectric matrix)
  average eigenvalue GAMMA=   1.7216
  9.6338  3.1100  2.2929  2.2929  1.7733  1.7733  0.2006  1.0202  1.0202  0.2828
  0.4735  0.8998  0.7997  0.7076  0.6212  0.6432

 Free energy of the ion-electron system (eV)
  ---------------------------------------------------
  alpha Z        PSCENC =        13.62040840
  Ewald energy   TEWEN  =      6221.61188061
  -Hartree energ DENC   =     -8162.27220072
  -exchange      EXHF   =         0.00000000
  -V(xc)+E(xc)   XCENC  =      -216.53830472
  PAW double counting   =      1237.32262019     -933.29135143
  entropy T*S    EENTRO =         0.00000000
  eigenvalues    EBANDS =      -388.34620988
  atomic energy  EATOM  =      2185.36163785
  Solvation  Ediel_sol  =         0.00000000
  ---------------------------------------------------
  free energy    TOTEN  =       -42.53151969 eV

  energy without entropy =      -42.53151969  energy(sigma->0) =      -42.53151969


--------------------------------------------------------------------------------------------------------




--------------------------------------- Iteration      1(  22)  ---------------------------------------


    POTLOK:  cpu time   51.1760: real time   51.3703
    SETDIJ:  cpu time    0.0560: real time    0.0534
     EDDAV:  cpu time   21.1400: real time   21.3659
 BZINTS: Fermi energy: -1.750680; 57.000000 electrons
         Band energy:-387.592228;  BLOECHL correction: -0.031666
       DOS:  cpu time    0.0080: real time    0.0049
    --------------------------------------------
      LOOP:  cpu time   72.3800: real time   72.7945

 eigenvalue-minimisations  :   848
 total energy-change (2. order) : 0.3870547E-05  (-0.6213013E-05)
 number of electron      56.9999999 magnetization       5.5741624
 augmentation part       -3.0624208 magnetization       4.1723783

 Free energy of the ion-electron system (eV)
  ---------------------------------------------------
  alpha Z        PSCENC =        13.62040840
  Ewald energy   TEWEN  =      6221.61188061
  -Hartree energ DENC   =     -8163.03427537
  -exchange      EXHF   =         0.00000000
  -V(xc)+E(xc)   XCENC  =      -216.52722828
  PAW double counting   =      1237.22762766     -933.19933914
  entropy T*S    EENTRO =         0.00000000
  eigenvalues    EBANDS =      -387.59222756
  atomic energy  EATOM  =      2185.36163785
  Solvation  Ediel_sol  =         0.00000000
  ---------------------------------------------------
  free energy    TOTEN  =       -42.53151582 eV

  energy without entropy =      -42.53151582  energy(sigma->0) =      -42.53151582


[...]
     34       0.1820      0.00000
     35       0.2115      0.00000
     36       0.4441      0.00000
     37       0.5265      0.00000
     38       0.8017      0.00000
     39       0.8859      0.00000
     40       1.4786      0.00000
     41       1.8080      0.00000
     42       1.8473      0.00000
     43       2.2887      0.00000
     44       2.4945      0.00000
     45       2.8053      0.00000
     46       3.2925      0.00000
     47       3.2977      0.00000
     48       3.5966      0.00000

 k-point     5 :      -0.4000    0.2000    0.0000
  band No.  band energies     occupation 
      1     -14.6849      1.00000
      2     -13.6563      1.00000
      3     -13.5073      1.00000
      4     -13.3259      1.00000
      5     -13.0784      1.00000
      6     -12.9273      1.00000
      7     -11.1514      1.00000
      8      -9.4007      1.00000
      9      -6.7196      1.00000
     10      -6.2824      1.00000
     11      -6.1958      1.00000
     12      -5.7009      1.00000
     13      -5.5852      1.00000
     14      -5.1251      1.00000
     15      -4.7682      1.00000
     16      -4.6827      1.00000
     17      -4.5176      1.00000
     18      -4.3100      1.00000
     19      -4.1136      1.00000
     20      -4.0018      1.00000
     21      -3.6971      1.00000
     22      -3.4580      1.00000
     23      -3.2596      1.00000
     24      -3.1269      1.00000
     25      -3.1012      1.00000
     26      -2.2666      1.00000
     27      -1.4559      0.00000
     28      -1.0755      0.00000
     29      -0.9758      0.00000
     30      -0.3919      0.00000
     31      -0.3537      0.00000
     32      -0.3522      0.00000
     33      -0.0292      0.00000
     34       0.0241      0.00000
     35       0.3146      0.00000
     36       0.4719      0.00000
     37       0.5210      0.00000
     38       0.6331      0.00000
     39       0.9896      0.00000
     40       1.4421      0.00000
     41       1.6346      0.00000
     42       1.7071      0.00000
     43       2.7717      0.00000
     44       2.8720      0.00000
     45       2.8790      0.00000
     46       2.9647      0.00000
     47       3.0504      0.00000
     48       3.4657      0.00000


--------------------------------------------------------------------------------------------------------


 soft charge-density along one line, spin component           1
         0         1         2         3         4         5         6         7         8         9
 total charge-density along one line

 soft charge-density along one line, spin component           2
         0         1         2         3         4         5         6         7         8         9
 total charge-density along one line

 pseudopotential strength for first ion, spin component:           1
 -8.404   0.078  -0.000   0.003  -0.000   0.577  -0.021   0.000
  0.078  -8.314   0.000   0.000   0.003  -0.021   0.553  -0.000
 -0.000   0.000  -8.476   0.000   0.000   0.000  -0.000   0.597
  0.003   0.000   0.000  -8.314  -0.078  -0.001  -0.000  -0.000
 -0.000   0.003   0.000  -0.078  -8.404   0.000  -0.001  -0.000
  0.577  -0.021   0.000  -0.001   0.000   0.392   0.005  -0.000
 -0.021   0.553  -0.000  -0.000  -0.001   0.005   0.398   0.000
  0.000  -0.000   0.597  -0.000  -0.000  -0.000   0.000   0.387
 -0.001  -0.000  -0.000   0.553   0.021   0.000   0.000   0.000
  0.000  -0.001  -0.000   0.021   0.577  -0.000   0.000   0.000
 -0.000  -0.000  -0.002  -0.000   0.000  -0.000   0.000   0.000
  0.000   0.000   0.000   0.000  -0.000  -0.000  -0.000  -0.000
  0.000   0.000   0.000  -0.000   0.001   0.000   0.000  -0.000
 -0.000  -0.000   0.000  -0.000  -0.000   0.000   0.000  -0.000
  0.001  -0.000   0.000   0.000  -0.000  -0.000   0.000  -0.000
 -0.000  -0.000  -0.000   0.000  -0.001  -0.000   0.000   0.000
  0.000   0.000  -0.000   0.000   0.000  -0.000  -0.000   0.000
 -0.001   0.000  -0.000  -0.000   0.000   0.000  -0.000   0.000
 pseudopotential strength for first ion, spin component:           2
 -6.808  -0.149  -0.000  -0.003   0.000   0.127   0.039   0.000
 -0.149  -6.978   0.000   0.000  -0.003   0.039   0.171  -0.000
 -0.000   0.000  -6.681   0.000   0.000   0.000  -0.000   0.093
 -0.003   0.000   0.000  -6.978   0.149   0.001  -0.000  -0.000
  0.000  -0.003   0.000   0.149  -6.808  -0.000   0.001  -0.000
  0.127   0.039   0.000   0.001  -0.000   0.515  -0.010  -0.000
  0.039   0.171  -0.000  -0.000   0.001  -0.010   0.504   0.000
  0.000  -0.000   0.093  -0.000  -0.000  -0.000   0.000   0.524
  0.001  -0.000  -0.000   0.171  -0.039  -0.000   0.000   0.000
 -0.000   0.001  -0.000  -0.039   0.127   0.000  -0.000   0.000
 -0.000  -0.000   0.005  -0.000   0.000  -0.000   0.000  -0.000
  0.000   0.000  -0.001   0.000  -0.000  -0.000  -0.000   0.000
  0.000   0.000   0.000  -0.000   0.001   0.000   0.000  -0.000
 -0.000  -0.000   0.001  -0.000   0.000   0.000   0.000  -0.000
  0.001  -0.000   0.000   0.000  -0.000  -0.000   0.000  -0.000
 -0.000  -0.000  -0.000   0.000  -0.001  -0.000   0.000   0.000
  0.000   0.000  -0.000   0.000  -0.000  -0.000  -0.000   0.000
 -0.001   0.000  -0.000  -0.000   0.000   0.000  -0.000   0.000
 total augmentation occupancy for first ion, spin component:           1
  0.984  -0.050   0.000   0.007  -0.000   0.053   0.182  -0.000   0.002   0.000  -0.000  -0.000  -0.002   0.000   0.011   0.000
 -0.050   0.965  -0.000  -0.000   0.007   0.181   0.252   0.000  -0.000   0.002   0.000  -0.000  -0.002  -0.000  -0.003   0.000
  0.000  -0.000   1.025  -0.000  -0.000  -0.000   0.000  -0.087   0.000   0.000  -0.002  -0.012  -0.000   0.002   0.000  -0.000
  0.007  -0.000  -0.000   0.965   0.050   0.002   0.000   0.000   0.252  -0.181   0.000   0.000   0.003  -0.000  -0.002   0.000
 -0.000   0.007  -0.000   0.050   0.984  -0.000   0.002   0.000  -0.182   0.053   0.000   0.000   0.011  -0.000   0.002   0.000
  0.053   0.181  -0.000   0.002  -0.000   0.133   0.069   0.000  -0.001  -0.000   0.000  -0.000  -0.000  -0.000   0.018  -0.000
  0.182   0.252   0.000   0.000   0.002   0.069   0.206   0.000  -0.000  -0.001   0.000   0.000   0.001   0.000  -0.003   0.000
 -0.000   0.000  -0.087   0.000   0.000   0.000   0.000   0.119   0.000  -0.000   0.040  -0.008  -0.000  -0.000   0.000   0.000
  0.002  -0.000   0.000   0.252  -0.182  -0.001  -0.000   0.000   0.206  -0.069   0.000   0.000   0.003   0.000   0.001  -0.000
  0.000   0.002   0.000  -0.181   0.053  -0.000  -0.001  -0.000  -0.069   0.133  -0.000   0.000   0.018   0.000   0.000  -0.001
 -0.000   0.000  -0.002  -0.000   0.000   0.000   0.000   0.040   0.000  -0.000   1.053  -0.150   0.000  -0.000   0.000   0.000
 -0.000  -0.000  -0.012   0.000   0.000  -0.000   0.000  -0.008   0.000   0.000  -0.150   0.054   0.000  -0.001  -0.000   0.000
 -0.002  -0.002  -0.000   0.003   0.011  -0.000   0.001  -0.000   0.003   0.018   0.000   0.000   0.207   0.000  -0.000  -0.001
  0.000  -0.000   0.002  -0.000  -0.000  -0.000   0.000  -0.000   0.000   0.000  -0.000  -0.001   0.000   0.218   0.000  -0.000
  0.011  -0.003   0.000  -0.002   0.002   0.018  -0.003   0.000   0.001   0.000   0.000  -0.000  -0.000   0.000   0.207   0.000
  0.000   0.000  -0.000   0.000   0.000  -0.000   0.000   0.000  -0.000  -0.001   0.000   0.000  -0.001   0.000   0.000   0.000
  0.000   0.000   0.000   0.000  -0.000  -0.000   0.000  -0.000   0.000   0.000   0.000   0.000  -0.000  -0.002   0.000   0.000
  0.000  -0.000   0.000   0.000  -0.000  -0.001   0.000  -0.000   0.000   0.000  -0.000   0.000  -0.000  -0.000  -0.001  -0.000
 total augmentation occupancy for first ion, spin component:           2
  0.708  -0.254   0.000  -0.005  -0.000  -0.133   0.040  -0.000   0.000  -0.001  -0.000  -0.000   0.000   0.000  -0.001   0.000
 -0.254   0.416  -0.000  -0.000  -0.005   0.042  -0.092   0.000  -0.001  -0.000   0.000  -0.000  -0.001   0.000   0.008   0.000
  0.000  -0.000   0.913  -0.000  -0.000  -0.000   0.000  -0.183   0.000   0.000  -0.026  -0.005   0.000   0.002  -0.000  -0.000
 -0.005  -0.000  -0.000   0.416   0.254  -0.000   0.001   0.000  -0.092  -0.042  -0.000   0.000  -0.008  -0.000  -0.001   0.000
 -0.000  -0.005  -0.000   0.254   0.708   0.001   0.000   0.000  -0.040  -0.133   0.000   0.000  -0.001  -0.000  -0.000   0.001
 -0.133   0.042  -0.000  -0.000   0.001  -0.009  -0.038   0.000  -0.001  -0.000   0.000   0.000   0.000  -0.000  -0.003  -0.000
  0.040  -0.092   0.000   0.001   0.000  -0.038  -0.049  -0.000   0.000  -0.001   0.000   0.000   0.001   0.000   0.001   0.000
 -0.000   0.000  -0.183   0.000   0.000   0.000  -0.000   0.033  -0.000  -0.000   0.007   0.003   0.000  -0.000  -0.000  -0.000
  0.000  -0.001   0.000  -0.092  -0.040  -0.001   0.000  -0.000  -0.049   0.038   0.000   0.000  -0.001   0.000   0.001  -0.000
 -0.001  -0.000   0.000  -0.042  -0.133  -0.000  -0.001  -0.000   0.038  -0.009  -0.000  -0.000  -0.003   0.000  -0.000  -0.000
 -0.000  -0.000  -0.026  -0.000   0.000   0.000  -0.000   0.007   0.000  -0.000   0.172   0.061   0.000   0.000   0.000   0.000
 -0.000  -0.000  -0.005   0.000   0.000   0.000   0.000   0.003   0.000  -0.000   0.061  -0.017   0.000  -0.000  -0.000   0.000
  0.000  -0.001   0.000  -0.008  -0.001   0.000   0.001   0.000  -0.001  -0.003   0.000   0.000   0.028   0.000  -0.000   0.003
  0.000   0.000   0.002  -0.000  -0.000  -0.000   0.000  -0.000  -0.000   0.000   0.000  -0.000   0.000   0.022   0.000   0.000
 -0.001   0.008  -0.000  -0.001  -0.000  -0.003   0.001  -0.000   0.001  -0.000   0.000  -0.000  -0.000  -0.000   0.028   0.000
  0.000   0.000  -0.000   0.000   0.001  -0.000   0.000  -0.000  -0.000  -0.000   0.000   0.000   0.003   0.000   0.000   0.000
  0.000  -0.000   0.000  -0.000  -0.000  -0.000  -0.000  -0.000   0.000   0.000  -0.000  -0.000   0.000   0.002  -0.000  -0.000
  0.001  -0.000   0.000   0.000  -0.000  -0.000   0.000  -0.000   0.000   0.000  -0.000  -0.000  -0.000  -0.000   0.003  -0.000


------------------------ aborting loop because EDIFF is reached ----------------------------------------





 total charge     

# of ion       s       p       d       tot
------------------------------------------
    1        0.339   0.422   4.280   5.041
    2        0.339   0.422   4.278   5.038
    3        1.174   1.113   0.081   2.368
    4        1.097   1.329   0.000   2.426
    5        1.402   1.941   0.038   3.382
    6        1.391   1.919   0.039   3.349
    7        1.400   1.933   0.039   3.372
    8        1.394   1.986   0.035   3.415
    9        1.386   1.968   0.035   3.389
   10        1.391   1.976   0.036   3.403
--------------------------------------------------
tot         11.312  15.009   8.862  35.183



 magnetization (x)

# of ion       s       p       d       tot
------------------------------------------
    1        0.041   0.045   2.894   2.980
    2        0.041   0.045   2.893   2.979
    3        0.005   0.023  -0.002   0.025
    4       -0.016   0.002   0.000  -0.014
    5       -0.002  -0.103   0.004  -0.101
    6       -0.003  -0.099   0.004  -0.097
    7       -0.004  -0.109   0.004  -0.109
    8       -0.000  -0.093   0.005  -0.088
    9       -0.002  -0.075   0.005  -0.072
   10       -0.002  -0.089   0.005  -0.086
--------------------------------------------------
tot          0.058  -0.453   5.811   5.416

    CHARGE:  cpu time    1.8720: real time    1.9379
    FORLOC:  cpu time    0.0640: real time    0.0634
    FORNL :  cpu time    6.2920: real time    6.5112
    STRESS:  cpu time   19.2680: real time   19.4259
    FORCOR:  cpu time   51.1920: real time   51.4278
    FORHAR:  cpu time    0.3360: real time    0.3381
    MIXING:  cpu time    0.0400: real time    0.0400
    OFIELD:  cpu time    0.0000: real time    0.0000

  FORCE on cell =-STRESS in cart. coord.  units (eV):
  Direction    XX          YY          ZZ          XY          YZ          ZX
  --------------------------------------------------------------------------------------
  Alpha Z    14.01319    14.01319    14.01319
  Ewald    7594.01999  7594.01778 -9089.09988    -0.00109    -0.00040    -0.00073
  Hartree  7905.09844  7905.09884 -7764.45197    -0.00001     0.00005     0.00009
  E(xc)    -227.45890  -227.45885  -227.60664    -0.00001     0.00002     0.00002
  Local  -16371.75721-16371.75628 15943.21925     0.00083     0.00026     0.00047
  n-local   716.94983   717.77855   734.05754     0.25678     0.49290     0.49528
  augment  -108.42380  -108.42373  -116.30157     0.00006     0.00002     0.00002
  Kinetic   480.61577   473.53439   506.10479    -4.71527    -0.08697    -0.29664
  Fock        0.00000     0.00000     0.00000     0.00000     0.00000     0.00000
  -------------------------------------------------------------------------------------
  Total      -0.06940    -0.06940    -0.06527     0.00000    -0.00000    -0.00000
  in kB      -0.11808    -0.11808    -0.11105     0.00000    -0.00000    -0.00000
  external pressure =       -0.12 kB  Pullay stress =        0.00 kB


 VOLUME and BASIS-vectors are now :
 -----------------------------------------------------------------------------
  energy-cutoff  :      520.00
  volume of cell :      941.68
      direct lattice vectors                 reciprocal lattice vectors
     6.878463027 -0.000000069  0.000000000     0.145381314 -0.083935936  0.000000000
     3.439231080  5.956923325  0.000000000     0.000000002  0.167871893 -0.000000000
     0.000000000  0.000000000 22.982089610    -0.000000000 -0.000000000  0.043512144

  length of vectors
     6.878463027  6.878462468 22.982089610     0.167871879  0.167871893  0.043512144


 FORCES acting on ions
    electron-ion (+dipol)            ewald-force                    non-local-force                 convergence-correction
 -----------------------------------------------------------------------------------------------
   -.202E-04 -.208E-04 0.640E+01   0.323E-03 0.192E-03 -.646E+01   -.139E-16 0.243E-19 0.157E+00   -.125E-06 -.735E-07 -.995E-04
   0.253E-04 0.138E-04 0.508E+01   -.323E-03 -.192E-03 -.514E+01   0.633E-28 0.250E-19 0.162E+00   0.275E-08 0.131E-08 0.212E-04
   -.325E-04 -.196E-04 0.172E+03   -.142E-03 -.784E-04 -.171E+03   -.104E-16 0.692E-17 -.951E-01   -.225E-07 -.849E-08 -.277E-01
   0.342E-04 0.345E-04 -.202E+03   0.180E-03 0.997E-04 0.202E+03   0.234E-16 -.140E-18 -.909E+00   -.515E-08 0.197E-08 0.370E-01
   -.601E-01 0.167E+00 -.343E+03   -.336E+01 -.146E+00 0.347E+03   0.347E+01 -.125E-01 -.450E+01   0.517E-02 -.163E-01 0.576E-01
   0.174E+00 -.335E-01 -.343E+03   0.156E+01 0.299E+01 0.347E+03   -.174E+01 -.300E+01 -.450E+01   -.167E-01 0.366E-02 0.576E-01
   -.117E+00 -.135E+00 -.343E+03   0.181E+01 -.284E+01 0.347E+03   -.172E+01 0.301E+01 -.450E+01   0.115E-01 0.126E-01 0.576E-01
   0.743E+01 -.143E+00 0.349E+03   -.377E+01 0.153E+00 -.354E+03   -.346E+01 0.153E-01 0.443E+01   -.471E-02 -.163E-01 -.596E-01
   -.384E+01 -.636E+01 0.349E+03   0.202E+01 0.319E+01 -.354E+03   0.174E+01 0.299E+01 0.443E+01   -.118E-01 0.122E-01 -.596E-01
   -.359E+01 0.650E+01 0.349E+03   0.175E+01 -.335E+01 -.354E+03   0.172E+01 -.301E+01 0.443E+01   0.165E-01 0.407E-02 -.596E-01
 -----------------------------------------------------------------------------------------------
   0.674E-05 0.294E-04 0.898E+00   -.200E-14 -.266E-14 0.000E+00   0.444E-15 -.444E-15 -.892E+00   -.183E-06 -.107E-06 0.333E-02


 POSITION                                       TOTAL-FORCE (eV/Angst)
 -----------------------------------------------------------------------------------
      3.43923      1.98564     11.48932        -0.000000      0.000000      0.095015
      6.87847      3.97128     11.49277        -0.000000      0.000000      0.105067
      0.00000      0.00000     10.30094        -0.000000      0.000000      0.504820
      0.00000      0.00000     12.70915        -0.000000      0.000000      0.024778
      4.30982      0.00250     13.18602         0.048536     -0.006714     -0.088015
      1.28649      2.22327     13.18602        -0.030083     -0.038677     -0.088015
      4.72139      3.73116     13.18602        -0.018454      0.045391     -0.088015
      6.00788      5.95442      9.79607         0.183844      0.008555     -0.155212
      9.03120      3.73366      9.79607        -0.084513     -0.163491     -0.155212
      5.59630      2.22576      9.79607        -0.099331      0.154936     -0.155212
 -----------------------------------------------------------------------------------
    total drift:                                0.000007      0.000029      0.009510


--------------------------------------------------------------------------------------------------------



  FREE ENERGIE OF THE ION-ELECTRON SYSTEM (eV)
  ---------------------------------------------------
  free  energy   TOTEN  =       -42.56868487 eV

  energy  without entropy=      -42.56868487  energy(sigma->0) =      -42.56868487

 d Force =-0.6203217E-05[-0.780E-05,-0.460E-05]  d Energy =-0.1601195E-03 0.154E-03
 d Force =-0.6374353E-01[-0.637E-01,-0.637E-01]  d Ewald  = 0.6609835E+00-0.725E+00


--------------------------------------------------------------------------------------------------------


    POTLOK:  cpu time   51.0920: real time   51.3337


--------------------------------------------------------------------------------------------------------




--------------------------------------------------------------------------------------------------------


  
 reached required accuracy - stopping structural energy minimisation
     LOOP+:  cpu time  280.6760: real time  282.2439
    4ORBIT:  cpu time    0.0000: real time    0.0000



 total charge     

# of ion       s       p       d       tot
------------------------------------------
    1        0.339   0.422   4.280   5.041
    2        0.339   0.422   4.278   5.038
    3        1.174   1.113   0.081   2.368
    4        1.097   1.329   0.000   2.426
    5        1.402   1.941   0.038   3.382
    6        1.391   1.919   0.039   3.349
    7        1.400   1.933   0.039   3.372
    8        1.394   1.986   0.035   3.415
    9        1.386   1.968   0.035   3.389
   10        1.391   1.976   0.036   3.403
--------------------------------------------------
tot         11.312  15.009   8.862  35.183



 magnetization (x)

# of ion       s       p       d       tot
------------------------------------------
    1        0.041   0.045   2.894   2.980
    2        0.041   0.045   2.893   2.979
    3        0.005   0.023  -0.002   0.025
    4       -0.016   0.002   0.000  -0.014
    5       -0.002  -0.103   0.004  -0.101
    6       -0.003  -0.099   0.004  -0.097
    7       -0.004  -0.109   0.004  -0.109
    8       -0.000  -0.093   0.005  -0.088
    9       -0.002  -0.075   0.005  -0.072
   10       -0.002  -0.089   0.005  -0.086
--------------------------------------------------
tot          0.058  -0.453   5.811   5.416

 BZINTS: Fermi energy: -1.621638; 57.000000 electrons
         Band energy:-384.680620;  BLOECHL correction: -0.030165

 total amount of memory used by VASP MPI-rank0   130713. kBytes
=======================================================================

   base      :      30000. kBytes
   nonlr-proj:       8213. kBytes
   fftplans  :      11247. kBytes
   grid      :      68332. kBytes
   one-center:        311. kBytes
   wavefun   :      12610. kBytes

  
  
 General timing and accounting informations for this job:
 ========================================================
  
                  Total CPU time used (sec):     6560.220
                            User time (sec):     6382.240
                          System time (sec):      177.980
                         Elapsed time (sec):     6625.770
  
                   Maximum memory used (kb):      379952.
                   Average memory used (kb):           0.
  
                          Minor page faults:      6923096
                          Major page faults:            7
                 Voluntary context switches:         1025
