 vasp.5.4.4.18Apr17-6-g9f103f2a35 (build May  1 2020 15:48:39) complex           
 executed on             LinuxGNU date 2020.06.24  05:35:23
 running on   16 total cores
 distrk:  each k-point on   16 cores,    1 groups
 distr:  one band on NCORES_PER_BAND=   1 cores,   16 groups


--------------------------------------------------------------------------------------------------------


 INCAR:
 POTCAR:   PAW_PBE Co 06Sep2000                   
 POTCAR:   PAW_PBE Ge 05Jan2001                   
 POTCAR:   PAW_PBE Se 06Sep2000                   

 ----------------------------------------------------------------------------- 
|                                                                             |
|           W    W    AA    RRRRR   N    N  II  N    N   GGGG   !!!           |
|           W    W   A  A   R    R  NN   N  II  NN   N  G    G  !!!           |
|           W    W  A    A  R    R  N N  N  II  N N  N  G       !!!           |
|           W WW W  AAAAAA  RRRRR   N  N N  II  N  N N  G  GGG   !            |
|           WW  WW  A    A  R   R   N   NN  II  N   NN  G    G                |
|           W    W  A    A  R    R  N    N  II  N    N   GGGG   !!!           |
|                                                                             |
|      For optimal performance we recommend to set                            |
|        NCORE= 4 - approx SQRT( number of cores)                             |
|      NCORE specifies how many cores store one orbital (NPAR=cpu/NCORE).     |
|      This setting can  greatly improve the performance of VASP for DFT.     |
|      The default,   NCORE=1            might be grossly inefficient         |
|      on modern multi-core architectures or massively parallel machines.     |
|      Do your own testing !!!!                                               |
|      Unfortunately you need to use the default for GW and RPA calculations. |
|      (for HF NCORE is supported but not extensively tested yet)             |
|                                                                             |
 ----------------------------------------------------------------------------- 


 ----------------------------------------------------------------------------- 
|                                                                             |
|  ADVICE TO THIS USER RUNNING 'VASP/VAMP'   (HEAR YOUR MASTER'S VOICE ...):  |
|                                                                             |
|      You have switched on vdW-DFT.                                          |
|      This routine was written and supplied by Jiri Klimes.                  |
|      We recommed that you carefully read and cite the following             |
|      publication                                                            |
|      J. Klimes, D.R. Bowler, A. Michelides                                  |
|        J. Phys.: Cond Matt. 22 022201 (2010)                                |
|      J. Klimes, D.R. Bowler, A. Michelides                                  |
|        Phys. Rev. B. 83, 195131 (2011)                                      |
|      and references therein.                                                |
|                                                                             |
 ----------------------------------------------------------------------------- 

 POTCAR:   PAW_PBE Co 06Sep2000                   
   VRHFIN =Co: d8 s1                                                            
   LEXCH  = PE                                                                  
   EATOM  =   813.5563 eV,   59.7947 Ry                                         
                                                                                
   TITEL  = PAW_PBE Co 06Sep2000                                                
   LULTRA =        F    use ultrasoft PP ?                                      
   IUNSCR =        1    unscreen: 0-lin 1-nonlin 2-no                           
   RPACOR =    2.000    partial core radius                                     
   POMASS =   58.933; ZVAL   =    9.000    mass and valenz                      
   RCORE  =    2.300    outmost cutoff radius                                   
   RWIGS  =    2.460; RWIGS  =    1.302    wigner-seitz radius (au A)           
   ENMAX  =  267.969; ENMIN  =  200.977 eV                                      
   RCLOC  =    1.697    cutoff for local pot                                    
   LCOR   =        T    correct aug charges                                     
   LPAW   =        T    paw PP                                                  
   EAUG   =  477.818                                                            
   DEXC   =    -.016                                                            
   RMAX   =    2.817    core radius for proj-oper                               
   RAUG   =    1.300    factor for augmentation sphere                          
   RDEP   =    2.393    radius for radial grids                                 
   QCUT   =   -4.438; QGAM   =    8.876    optimization parameters              
                                                                                
   Description                                                                  
     l     E      TYP  RCUT    TYP  RCUT                                        
     2   .000     23  2.300                                                     
     2   .000     23  2.300                                                     
     0   .000     23  2.300                                                     
     0   .000     23  2.300                                                     
     1  -.200     23  2.300                                                     
     1   .000     23  2.300                                                     
     3   .000      7   .000                                                     
  local pseudopotential read in
  partial core-charges read in
  atomic valenz-charges read in
  non local Contribution for L=           2  read in
    real space projection operators read in
  non local Contribution for L=           2  read in
    real space projection operators read in
  non local Contribution for L=           0  read in
    real space projection operators read in
  non local Contribution for L=           0  read in
    real space projection operators read in
  non local Contribution for L=           1  read in
    real space projection operators read in
  non local Contribution for L=           1  read in
    real space projection operators read in
    PAW grid and wavefunctions read in

   number of l-projection  operators is LMAX  =           6
   number of lm-projection operators is LMMAX =          18

 POTCAR:   PAW_PBE Ge 05Jan2001                   
   VRHFIN =Ge: s2p2                                                             
   LEXCH  = PE                                                                  
   EATOM  =   104.9960 eV,    7.7170 Ry                                         
                                                                                
   TITEL  = PAW_PBE Ge 05Jan2001                                                
   LULTRA =        F    use ultrasoft PP ?                                      
   IUNSCR =        1    unscreen: 0-lin 1-nonlin 2-no                           
   RPACOR =    2.170    partial core radius                                     
   POMASS =   72.610; ZVAL   =    4.000    mass and valenz                      
   RCORE  =    2.300    outmost cutoff radius                                   
   RWIGS  =    2.300; RWIGS  =    1.217    wigner-seitz radius (au A)           
   ENMAX  =  173.807; ENMIN  =  130.355 eV                                      
   ICORE  =        3    local potential                                         
   LCOR   =        T    correct aug charges                                     
   LPAW   =        T    paw PP                                                  
   EAUG   =  385.843                                                            
   DEXC   =    -.138                                                            
   RMAX   =    3.497    core radius for proj-oper                               
   RAUG   =    1.300    factor for augmentation sphere                          
   RDEP   =    2.318    radius for radial grids                                 
   QCUT   =   -3.574; QGAM   =    7.148    optimization parameters              
                                                                                
   Description                                                                  
     l     E      TYP  RCUT    TYP  RCUT                                        
     0   .000     23  2.300                                                     
     0   .000     23  2.300                                                     
     1   .000     23  2.300                                                     
     1   .000     23  2.300                                                     
     2   .000     23  2.300                                                     
     3  -.100      7  2.300                                                     
  local pseudopotential read in
  partial core-charges read in
  atomic valenz-charges read in
  non local Contribution for L=           0  read in
    real space projection operators read in
  non local Contribution for L=           0  read in
    real space projection operators read in
  non local Contribution for L=           1  read in
    real space projection operators read in
  non local Contribution for L=           1  read in
    real space projection operators read in
  non local Contribution for L=           2  read in
    real space projection operators read in
    PAW grid and wavefunctions read in

   number of l-projection  operators is LMAX  =           5
   number of lm-projection operators is LMMAX =          13

 POTCAR:   PAW_PBE Se 06Sep2000                   
   VRHFIN =Se: s2p4                                                             
   LEXCH  = PE                                                                  
   EATOM  =   256.9644 eV,   18.8864 Ry                                         
                                                                                
   TITEL  = PAW_PBE Se 06Sep2000                                                
   LULTRA =        F    use ultrasoft PP ?                                      
   IUNSCR =        1    unscreen: 0-lin 1-nonlin 2-no                           
   RPACOR =    1.900    partial core radius                                     
   POMASS =   78.960; ZVAL   =    6.000    mass and valenz                      
   RCORE  =    2.100    outmost cutoff radius                                   
   RWIGS  =    2.200; RWIGS  =    1.164    wigner-seitz radius (au A)           
   ENMAX  =  211.534; ENMIN  =  158.651 eV                                      
   ICORE  =        3    local potential                                         
   LCOR   =        T    correct aug charges                                     
   LPAW   =        T    paw PP                                                  
   EAUG   =  446.842                                                            
   DEXC   =    -.031                                                            
   RMAX   =    3.170    core radius for proj-oper                               
   RAUG   =    1.300    factor for augmentation sphere                          
   RDEP   =    2.177    radius for radial grids                                 
   QCUT   =   -3.943; QGAM   =    7.886    optimization parameters              
                                                                                
   Description                                                                  
     l     E      TYP  RCUT    TYP  RCUT                                        
     0   .000     23  2.100                                                     
     0   .000     23  2.100                                                     
     1   .000     23  2.100                                                     
     1   .000     23  2.100                                                     
     2   .000     23  2.100                                                     
     3  -.100      7  2.100                                                     
  local pseudopotential read in
  partial core-charges read in
  atomic valenz-charges read in
  non local Contribution for L=           0  read in
    real space projection operators read in
  non local Contribution for L=           0  read in
    real space projection operators read in
  non local Contribution for L=           1  read in
    real space projection operators read in
  non local Contribution for L=           1  read in
    real space projection operators read in
  non local Contribution for L=           2  read in
    real space projection operators read in
    PAW grid and wavefunctions read in

   number of l-projection  operators is LMAX  =           5
   number of lm-projection operators is LMMAX =          13

 Optimization of the real space projectors (new method)

 maximal supplied QI-value         = 16.25
 optimisation between [QCUT,QGAM] = [ 11.54, 23.24] = [ 37.28,151.24] Ry 
 Optimized for a Real-space Cutoff    1.53 Angstroem

   l    n(q)    QCUT    max X(q) W(low)/X(q) W(high)/X(q)  e(spline) 
   2     10    11.539     4.599    0.83E-05    0.15E-04    0.45E-07
   2     10    11.539    18.158    0.10E-03    0.14E-03    0.24E-06
   0     11    11.539    15.740    0.19E-04    0.12E-05    0.17E-07
   0     11    11.539    47.662    0.48E-04    0.15E-04    0.31E-06
   1     10    11.539     5.777    0.11E-04    0.46E-05    0.25E-07
   1     10    11.539     8.007    0.46E-04    0.29E-04    0.11E-06
 Optimization of the real space projectors (new method)

 maximal supplied QI-value         = 16.25
 optimisation between [QCUT,QGAM] = [ 11.54, 23.24] = [ 37.28,151.24] Ry 
 Optimized for a Real-space Cutoff    1.28 Angstroem

   l    n(q)    QCUT    max X(q) W(low)/X(q) W(high)/X(q)  e(spline) 
   0      9    11.539     8.651    0.22E-04    0.16E-04    0.10E-07
   0      9    11.539    33.192    0.11E-03    0.16E-03    0.65E-07
   1      8    11.539     5.899    0.37E-04    0.28E-04    0.43E-07
   1      8    11.539    27.289    0.22E-03    0.28E-04    0.14E-06
   2      8    11.539     4.673    0.11E-03    0.18E-03    0.58E-07
 Optimization of the real space projectors (new method)

 maximal supplied QI-value         = 17.95
 optimisation between [QCUT,QGAM] = [ 11.67, 23.34] = [ 38.13,152.52] Ry 
 Optimized for a Real-space Cutoff    1.25 Angstroem

   l    n(q)    QCUT    max X(q) W(low)/X(q) W(high)/X(q)  e(spline) 
   0      9    11.669     6.499    0.13E-04    0.81E-05    0.11E-07
   0      9    11.669    52.623    0.18E-03    0.46E-04    0.72E-07
   1      8    11.669     4.229    0.40E-04    0.45E-04    0.31E-07
   1      8    11.669    29.991    0.22E-03    0.36E-03    0.10E-06
   2      8    11.669     3.719    0.19E-03    0.46E-04    0.50E-07

 ----------------------------------------------------------------------------- 
|                                                                             |
|  ADVICE TO THIS USER RUNNING 'VASP/VAMP'   (HEAR YOUR MASTER'S VOICE ...):  |
|                                                                             |
|      You enforced a specific xc-type in the INCAR file,                     |
|      a different type was found on the POTCAR file                          |
|          I HOPE YOU KNOW, WHAT YOU ARE  DOING                               |
|                                                                             |
 ----------------------------------------------------------------------------- 

 PAW_PBE Co 06Sep2000                   :
 energy of atom  1       EATOM= -813.5563
 kinetic energy error for atom=    0.0028 (will be added to EATOM!!)
 PAW_PBE Ge 05Jan2001                   :
 energy of atom  2       EATOM= -104.9960
 kinetic energy error for atom=    0.0002 (will be added to EATOM!!)
 PAW_PBE Se 06Sep2000                   :
 energy of atom  3       EATOM= -256.9644
 kinetic energy error for atom=    0.0007 (will be added to EATOM!!)


 POSCAR: Co2 Ge2 Se6                             
  positions in direct lattice
  velocities in cartesian coordinates
  No initial velocities read in
 exchange correlation table for  LEXCH =       42
   RHO(1)=    0.500       N(1)  =     2000
   RHO(2)=  100.500       N(2)  =     4000



--------------------------------------------------------------------------------------------------------


 ion  position               nearest neighbor table
   1  0.333  0.333  0.500-   6 2.78   5 2.78   7 2.78   8 2.78  10 2.78   9 2.78
   2  0.667  0.667  0.500-   9 2.78   8 2.78  10 2.78   5 2.78   7 2.78   6 2.78
   3  0.000  0.000  0.448-   4 2.43   8 2.63  10 2.63   9 2.63
   4  0.000  0.000  0.552-   3 2.43   5 2.63   7 2.63   6 2.63
   5  0.626  0.000  0.574-   4 2.63   1 2.78   2 2.78
   6  0.000  0.373  0.574-   4 2.63   1 2.78   2 2.78
   7  0.373  0.626  0.574-   4 2.63   1 2.78   2 2.78
   8  0.374  1.000  0.426-   3 2.63   2 2.78   1 2.78
   9  1.000  0.627  0.426-   3 2.63   2 2.78   1 2.78
  10  0.627  0.374  0.426-   3 2.63   2 2.78   1 2.78

  LATTYP: Found a hexagonal cell.
 ALAT       =     6.9077769333
 C/A-ratio  =     3.3939410937
  
  Lattice vectors:
  
 A1 = (   3.4538890000,  -5.9823100000,   0.0000000000)
 A2 = (  -6.9077770000,   0.0000000000,   0.0000000000)
 A3 = (   0.0000000000,   0.0000000000, -23.4445880000)


Analysis of symmetry for initial positions (statically):
=====================================================================
 Subroutine PRICEL returns:
 Original cell was already a primitive cell.
 

 Routine SETGRP: Setting up the symmetry group for a 
 hexagonal supercell.


 Subroutine GETGRP returns: Found  6 space group operations
 (whereof  6 operations were pure point group operations)
 out of a pool of 24 trial point group operations.


The static configuration has the point symmetry S_6 .


Analysis of symmetry for dynamics (positions and initial velocities):
=====================================================================
 Subroutine PRICEL returns:
 Original cell was already a primitive cell.
 

 Routine SETGRP: Setting up the symmetry group for a 
 hexagonal supercell.


 Subroutine GETGRP returns: Found  6 space group operations
 (whereof  6 operations were pure point group operations)
 out of a pool of 24 trial point group operations.


The dynamic configuration has the point symmetry S_6 .


Analysis of constrained symmetry for selective dynamics:
=====================================================================
 Subroutine PRICEL returns:
 Original cell was already a primitive cell.
 

 Routine SETGRP: Setting up the symmetry group for a 
 hexagonal supercell.


 Subroutine GETGRP returns: Found  6 space group operations
 (whereof  6 operations were pure point group operations)
 out of a pool of 24 trial point group operations.


The constrained configuration has the point symmetry S_6 .


Analysis of structural, dynamic, and magnetic symmetry:
=====================================================================
 Subroutine PRICEL returns:
 Original cell was already a primitive cell.
 

 Routine SETGRP: Setting up the symmetry group for a 
 hexagonal supercell.


 Subroutine GETGRP returns: Found  6 space group operations
 (whereof  6 operations were pure point group operations)
 out of a pool of 24 trial point group operations.


The magnetic configuration has the point symmetry S_6 .


 Subroutine INISYM returns: Found  6 space group operations
 (whereof  6 operations are pure point group operations),
 and found     1 'primitive' translations



 KPOINTS: Kpoints from vasprun.xml                

Automatic generation of k-mesh.
Space group operators:
 irot       det(A)        alpha          n_x          n_y          n_z        tau_x        tau_y        tau_z
    1     1.000000     0.000000     1.000000     0.000000     0.000000     0.000000     0.000000     0.000000
    2    -1.000000     0.000000     1.000000     0.000000     0.000000     0.000000     0.000000     0.000000
    3     1.000000   120.000000     0.000000     0.000000     1.000000     0.000000     0.000000     0.000000
    4    -1.000000   120.000000     0.000000     0.000000     1.000000     0.000000     0.000000     0.000000
    5     1.000000   120.000000     0.000000     0.000000    -1.000000     0.000000     0.000000     0.000000
    6    -1.000000   120.000000     0.000000     0.000000    -1.000000     0.000000     0.000000     0.000000
 
 Subroutine IBZKPT returns following result:
 ===========================================
 
 Found      5 irreducible k-points:
 
 Following reciprocal coordinates:
            Coordinates               Weight
  0.000000  0.000000  0.000000      1.000000
  0.200000  0.000000  0.000000      6.000000
  0.400000  0.000000  0.000000      6.000000
  0.400000  0.200000  0.000000      6.000000
 -0.400000  0.200000  0.000000      6.000000
 
 Following cartesian coordinates:
            Coordinates               Weight
  0.000000  0.000000  0.000000      1.000000
  0.028953 -0.016716  0.000000      6.000000
  0.057906 -0.033432  0.000000      6.000000
  0.057906  0.000000  0.000000      6.000000
 -0.057906  0.066864  0.000000      6.000000
 
 TETIRR: Found     15 inequivalent tetrahedra from      150


--------------------------------------------------------------------------------------------------------




 Dimension of arrays:
   k-points           NKPTS =      5   k-points in BZ     NKDIM =      5   number of bands    NBANDS=     48
   number of dos      NEDOS =    301   number of ions     NIONS =     10
   non local maximal  LDIM  =      6   non local SUM 2l+1 LMDIM =     18
   total plane-waves  NPLWV = 524880
   max r-space proj   IRMAX =   8238   max aug-charges    IRDMAX=  29641
   dimension x,y,z NGX =    54 NGY =   54 NGZ =  180
   dimension x,y,z NGXF=   108 NGYF=  108 NGZF=  360
   support grid    NGXF=   108 NGYF=  108 NGZF=  360
   ions per type =               2   2   6
   NGX,Y,Z   is equivalent  to a cutoff of  13.00, 13.00, 12.76 a.u.
   NGXF,Y,Z  is equivalent  to a cutoff of  25.99, 25.99, 25.53 a.u.

 SYSTEM =  unknown system                          
 POSCAR =  Co2 Ge2 Se6                             

 Startparameter for this run:
   NWRITE =      2    write-flag & timer
   PREC   = accura    normal or accurate (medium, high low for compatibility)
   ISTART =      0    job   : 0-new  1-cont  2-samecut
   ICHARG =      2    charge: 1-file 2-atom 10-const
   ISPIN  =      2    spin polarized calculation?
   LNONCOLLINEAR =      F non collinear calculations
   LSORBIT =      F    spin-orbit coupling
   INIWAV =      1    electr: 0-lowe 1-rand  2-diag
   LASPH  =      F    aspherical Exc in radial PAW
   METAGGA=      F    non-selfconsistent MetaGGA calc.

 Electronic Relaxation 1
   ENCUT  =  520.0 eV  38.22 Ry    6.18 a.u.  12.84 12.84 43.59*2*pi/ulx,y,z
   ENINI  =  520.0     initial cutoff
   ENAUG  =  477.8 eV  augmentation charge cutoff
   NELM   =    400;   NELMIN=  2; NELMDL=  0     # of ELM steps 
   EDIFF  = 0.1E-03   stopping-criterion for ELM
   LREAL  =      T    real-space projection
   NLSPLINE    = F    spline interpolate recip. space projectors
   LCOMPAT=      F    compatible to vasp.4.4
   GGA_COMPAT  = T    GGA compatible to vasp.4.4-vasp.4.6
   LMAXPAW     = -100 max onsite density
   LMAXMIX     =    2 max onsite mixed and CHGCAR
   VOSKOWN=      0    Vosko Wilk Nusair interpolation
   ROPT   =   -0.00025  -0.00025  -0.00025
 Ionic relaxation
   EDIFFG = 0.1E-02   stopping-criterion for IOM
   NSW    =     99    number of steps for IOM
   NBLOCK =      1;   KBLOCK =     99    inner block; outer block 
   IBRION =      2    ionic relax: 0-MD 1-quasi-New 2-CG
   NFREE  =      1    steps in history (QN), initial steepest desc. (CG)
   ISIF   =      3    stress and relaxation
   IWAVPR =     11    prediction:  0-non 1-charg 2-wave 3-comb
   ISYM   =      2    0-nonsym 1-usesym 2-fastsym
   LCORR  =      T    Harris-Foulkes like correction to forces

   POTIM  = 0.5000    time-step for ionic-motion
   TEIN   =    0.0    initial temperature
   TEBEG  =    0.0;   TEEND  =   0.0 temperature during run
   SMASS  =  -3.00    Nose mass-parameter (am)
   estimated Nose-frequenzy (Omega)   =  0.10E-29 period in steps =****** mass=  -0.109E-26a.u.
   SCALEE = 1.0000    scale energy and forces
   NPACO  =    256;   APACO  = 16.0  distance and # of slots for P.C.
   PSTRESS=    0.0 pullay stress

  Mass of Ions in am
   POMASS =  58.93 72.61 78.96
  Ionic Valenz
   ZVAL   =   9.00  4.00  6.00
  Atomic Wigner-Seitz radii
   RWIGS  =  -1.00 -1.00 -1.00
  virtual crystal weights 
   VCA    =   1.00  1.00  1.00
   NELECT =      62.0000    total number of electrons
   NUPDOWN=      -1.0000    fix difference up-down

 DOS related values:
   EMIN   =  10.00;   EMAX   =-10.00  energy-range for DOS
   EFERMI =   0.00
   ISMEAR =    -5;   SIGMA  =   0.05  broadening in eV -4-tet -1-fermi 0-gaus

 Electronic relaxation 2 (details)
   IALGO  =     38    algorithm
   LDIAG  =      T    sub-space diagonalisation (order eigenvalues)
   LSUBROT=      F    optimize rotation matrix (better conditioning)
   TURBO    =      0    0=normal 1=particle mesh
   IRESTART =      0    0=no restart 2=restart with 2 vectors
   NREBOOT  =      0    no. of reboots
   NMIN     =      0    reboot dimension
   EREF     =   0.00    reference energy to select bands
   IMIX   =      4    mixing-type and parameters
     AMIX     =   0.40;   BMIX     =  1.00
     AMIX_MAG =   1.60;   BMIX_MAG =  1.00
     AMIN     =   0.01
     WC   =   100.;   INIMIX=   1;  MIXPRE=   1;  MAXMIX= -45

 Intra band minimization:
   WEIMIN = 0.0010     energy-eigenvalue tresh-hold
   EBREAK =  0.52E-06  absolut break condition
   DEPER  =   0.30     relativ break condition  

   TIME   =   0.40     timestep for ELM

  volume/ion in A,a.u.               =      96.88       653.80
  Fermi-wavevector in a.u.,A,eV,Ry     =   0.654820  1.237431  5.834037  0.428790
  Thomas-Fermi vector in A             =   1.725500

 Write flags
   LWAVE        =      F    write WAVECAR
   LDOWNSAMPLE  =      F    k-point downsampling of WAVECAR
   LCHARG       =      T    write CHGCAR
   LVTOT        =      F    write LOCPOT, total local potential
   LVHAR        =      F    write LOCPOT, Hartree potential only
   LELF         =      F    write electronic localiz. function (ELF)
   LORBIT       =     11    0 simple, 1 ext, 2 COOP (PROOUT), +10 PAW based schemes


 Dipole corrections
   LMONO  =      F    monopole corrections only (constant potential shift)
   LDIPOL =      F    correct potential (dipole corrections)
   IDIPOL =      0    1-x, 2-y, 3-z, 4-all directions 
   EPSILON=  1.0000000 bulk dielectric constant

 Exchange correlation treatment:
   GGA     =    BO    GGA type
   LEXCH   =    42    internal setting for exchange type
   VOSKOWN=      0    Vosko Wilk Nusair interpolation
   LHFCALC =     F    Hartree Fock is set to
   LHFONE  =     F    Hartree Fock one center treatment
   AEXX    =    0.0000 exact exchange contribution

 vdW DFT:
   LUSE_VDW   =     T    switch on vdW DFT
   Zab_VDW    =-.8491    correlation parameter
   PARAM1     =0.1833
   PARAM2     =0.2200
   PARAM3     =0.0000
   -- rVV10 --
   BPARAM     = 6.3000
   CPARAM     = 0.0093

 Linear response parameters
   LEPSILON=     F    determine dielectric tensor
   LRPA    =     F    only Hartree local field effects (RPA)
   LNABLA  =     F    use nabla operator in PAW spheres
   LVEL    =     F    velocity operator in full k-point grid
   LINTERFAST=   F  fast interpolation
   KINTER  =     0    interpolate to denser k-point grid
   CSHIFT  =0.1000    complex shift for real part using Kramers Kronig
   OMEGAMAX=  -1.0    maximum frequency
   DEG_THRESHOLD= 0.2000000E-02 threshold for treating states as degnerate
   RTIME   =   -0.100 relaxation time in fs
  (WPLASMAI=    0.000 imaginary part of plasma frequency in eV, 0.658/RTIME)
   DFIELD  = 0.0000000 0.0000000 0.0000000 field for delta impulse in time

 Orbital magnetization related:
   ORBITALMAG=     F  switch on orbital magnetization
   LCHIMAG   =     F  perturbation theory with respect to B field
   DQ        =  0.001000  dq finite difference perturbation B field
   LLRAUG    =     F  two centre corrections for induced B field



--------------------------------------------------------------------------------------------------------


 conjugate gradient relaxation of ions
   using selective dynamics as specified on POSCAR
 charge density and potential will be updated during run
 spin polarized calculation
 Variant of blocked Davidson
 Davidson routine will perform the subspace rotation
 perform sub-space diagonalisation
    after iterative eigenvector-optimisation
 modified Broyden-mixing scheme, WC =      100.0
 initial mixing is a Kerker type mixing with AMIX =  0.4000 and BMIX =      1.0000
 Hartree-type preconditioning will be used
 using additional bands           17
 real space projection scheme for non local part
 use partial core corrections
 calculate Harris-corrections to forces   (improved forces if not selfconsistent)
 use gradient corrections 
 use of overlap-Matrix (Vanderbilt PP)
 Fermi weights with tetrahedron method with Bloechl corrections


--------------------------------------------------------------------------------------------------------


  energy-cutoff  :      520.00
  volume of cell :      968.84
      direct lattice vectors                 reciprocal lattice vectors
     6.907777000 -0.000000000  0.000000000     0.144764372 -0.083579742  0.000000000
     3.453888000  5.982310000  0.000000000     0.000000000  0.167159509 -0.000000000
     0.000000000  0.000000000 23.444588000    -0.000000000  0.000000000  0.042653767

  length of vectors
     6.907777000  6.907776433 23.444588000     0.167159495  0.167159509  0.042653767



 k-points in units of 2pi/SCALE and weight: Kpoints from vasprun.xml                
   0.00000000  0.00000000  0.00000000       0.040
   0.02895287 -0.01671595  0.00000000       0.240
   0.05790575 -0.03343190  0.00000000       0.240
   0.05790575  0.00000000  0.00000000       0.240
  -0.05790575  0.06686380  0.00000000       0.240

 k-points in reciprocal lattice and weights: Kpoints from vasprun.xml                
   0.00000000  0.00000000  0.00000000       0.040
   0.20000000  0.00000000  0.00000000       0.240
   0.40000000  0.00000000  0.00000000       0.240
   0.40000000  0.20000000  0.00000000       0.240
  -0.40000000  0.20000000  0.00000000       0.240

 position of ions in fractional coordinates (direct lattice) 
   0.33333300  0.33333300  0.49992500
   0.66666700  0.66666700  0.50007500
   0.00000000  0.00000000  0.44821600
   0.00000000  0.00000000  0.55178400
   0.62635700  0.00042000  0.57375200
   0.00042000  0.37322400  0.57375200
   0.37322400  0.62635700  0.57375200
   0.37364300  0.99958000  0.42624800
   0.99958000  0.62677600  0.42624800
   0.62677600  0.37364300  0.42624800

 position of ions in cartesian coordinates  (Angst):
   3.45388488  1.99410134 11.72053566
   6.90778012  3.98820866 11.72405234
   0.00000000  0.00000000 10.50823946
   0.00000000  0.00000000 12.93634854
   4.32818511  0.00251257 13.45137925
   1.29197516  2.23274167 13.45137925
   4.74151509  3.74706174 13.45137925
   6.03347989  5.97979743  9.99320875
   9.06968984  3.74956833  9.99320875
   5.62014991  2.23524826  9.99320875



--------------------------------------------------------------------------------------------------------


 k-point  1 :   0.0000 0.0000 0.0000  plane waves:   26073
 k-point  2 :   0.2000 0.0000 0.0000  plane waves:   26070
 k-point  3 :   0.4000 0.0000 0.0000  plane waves:   26086
 k-point  4 :   0.4000 0.2000 0.0000  plane waves:   26085
 k-point  5 :  -0.4000 0.2000 0.0000  plane waves:   26115

 maximum and minimum number of plane-waves per node :     26115    26070

 maximum number of plane-waves:     26115
 maximum index in each direction: 
   IXMAX=   13   IYMAX=   12   IZMAX=   43
   IXMIN=  -13   IYMIN=  -13   IZMIN=  -43


 serial   3D FFT for wavefunctions
 parallel 3D FFT for charge:
    minimum data exchange during FFTs selected (reduces bandwidth)


 total amount of memory used by VASP MPI-rank0   128227. kBytes
=======================================================================

   base      :      30000. kBytes
   nonlr-proj:       7917. kBytes
   fftplans  :      11247. kBytes
   grid      :      66142. kBytes
   one-center:        311. kBytes
   wavefun   :      12610. kBytes

     INWAV:  cpu time    0.0000: real time    0.0004
 Broyden mixing: mesh for mixing (old mesh)
   NGX = 25   NGY = 25   NGZ = 87
  (NGX  =108   NGY  =108   NGZ  =360)
  gives a total of  54375 points

 initial charge density was supplied:
 charge density of overlapping atoms calculated
 number of electron      62.0000000 magnetization       9.7800000
 keeping initial charge density in first step


--------------------------------------------------------------------------------------------------------


 Maximum index for non-local projection operator         7925
 Maximum index for augmentation-charges         2133 (set IRDMAX)


--------------------------------------------------------------------------------------------------------


 First call to EWALD:  gamma=   0.179
 Maximum number of real-space cells 4x 4x 1
 Maximum number of reciprocal cells 2x 2x 6

    FEWALD:  cpu time    0.0040: real time    0.0048


--------------------------------------- Iteration      1(   1)  ---------------------------------------


vdW kernel read from vdw_kernel.bindat
  0.0000  0.2424  0.5071  0.7962  1.1119  1.4567  1.8333  2.2446  2.6937  3.1842
  3.7199  4.3049  4.9438  5.6415  6.4036  7.2358  8.1446  9.1372 10.2212 11.4050
 12.6979 14.1099 15.6519 17.3360 19.1751 21.1837 23.3773 25.7729 28.3892 31.2465
 34.3669 37.7748 41.4965 45.5611 50.0000

    POTLOK:  cpu time   52.7800: real time   53.0000
    SETDIJ:  cpu time    0.0480: real time    0.0485
     EDDAV:  cpu time   21.9280: real time   22.9969
 BZINTS: Fermi energy:  4.616745; 62.000000 electrons
         Band energy: -35.185252;  BLOECHL correction: -0.032400
       DOS:  cpu time    0.0040: real time    0.0042
    --------------------------------------------
      LOOP:  cpu time   74.7600: real time   76.0496

 eigenvalue-minimisations  :   960
 total energy-change (2. order) : 0.4119466E+03  (-0.1865707E+04)
 number of electron      62.0000000 magnetization       9.7800000
 augmentation part       62.0000000 magnetization       9.7800000

 Free energy of the ion-electron system (eV)
  ---------------------------------------------------
  alpha Z        PSCENC =        41.15670033
  Ewald energy   TEWEN  =      7529.91642125
  -Hartree energ DENC   =    -10537.45023076
  -exchange      EXHF   =         0.00000000
  -V(xc)+E(xc)   XCENC  =         5.39347058
  PAW double counting   =      1985.40779224    -1972.93194454
  entropy T*S    EENTRO =         0.00000000
  eigenvalues    EBANDS =       -35.18525165
  atomic energy  EATOM  =      3395.63962523
  Solvation  Ediel_sol  =         0.00000000
  ---------------------------------------------------
  free energy    TOTEN  =       411.94658268 eV

  energy without entropy =      411.94658268  energy(sigma->0) =      411.94658268


--------------------------------------------------------------------------------------------------------




--------------------------------------- Iteration      1(   2)  ---------------------------------------


     EDDAV:  cpu time   30.2440: real time   30.4164
 BZINTS: Fermi energy: -1.698602; 62.000000 electrons
         Band energy:-418.956217;  BLOECHL correction: -0.039370
       DOS:  cpu time    0.0040: real time    0.0050
    --------------------------------------------
      LOOP:  cpu time   30.2480: real time   30.4213

 eigenvalue-minimisations  :  1312
 total energy-change (2. order) :-0.3837710E+03  (-0.3547635E+03)
 number of electron      62.0000000 magnetization       9.7800000
 augmentation part       62.0000000 magnetization       9.7800000

 Free energy of the ion-electron system (eV)
  ---------------------------------------------------
  alpha Z        PSCENC =        41.15670033
  Ewald energy   TEWEN  =      7529.91642125
  -Hartree energ DENC   =    -10537.45023076
  -exchange      EXHF   =         0.00000000
  -V(xc)+E(xc)   XCENC  =         5.39347058
  PAW double counting   =      1985.40779224    -1972.93194454
  entropy T*S    EENTRO =         0.00000000
  eigenvalues    EBANDS =      -418.95621677
  atomic energy  EATOM  =      3395.63962523
  Solvation  Ediel_sol  =         0.00000000
  ---------------------------------------------------
  free energy    TOTEN  =        28.17561756 eV

  energy without entropy =       28.17561756  energy(sigma->0) =       28.17561756


--------------------------------------------------------------------------------------------------------




--------------------------------------- Iteration      1(   3)  ---------------------------------------


     EDDAV:  cpu time   26.8440: real time   28.4064
 BZINTS: Fermi energy: -2.728652; 62.000000 electrons
         Band energy:-487.595795;  BLOECHL correction: -0.020960
       DOS:  cpu time    0.0040: real time    0.0051
    --------------------------------------------
      LOOP:  cpu time   26.8480: real time   28.4115

 eigenvalue-minimisations  :  1216
 total energy-change (2. order) :-0.6863958E+02  (-0.6599385E+02)
 number of electron      62.0000000 magnetization       9.7800000
 augmentation part       62.0000000 magnetization       9.7800000

 Free energy of the ion-electron system (eV)
  ---------------------------------------------------
  alpha Z        PSCENC =        41.15670033
  Ewald energy   TEWEN  =      7529.91642125
  -Hartree energ DENC   =    -10537.45023076
  -exchange      EXHF   =         0.00000000
  -V(xc)+E(xc)   XCENC  =         5.39347058
  PAW double counting   =      1985.40779224    -1972.93194454
  entropy T*S    EENTRO =         0.00000000
  eigenvalues    EBANDS =      -487.59579501
  atomic energy  EATOM  =      3395.63962523
  Solvation  Ediel_sol  =         0.00000000
  ---------------------------------------------------
  free energy    TOTEN  =       -40.46396068 eV

  energy without entropy =      -40.46396068  energy(sigma->0) =      -40.46396068


--------------------------------------------------------------------------------------------------------




--------------------------------------- Iteration      1(   4)  ---------------------------------------


     EDDAV:  cpu time   28.1480: real time   28.7448
 BZINTS: Fermi energy: -2.784537; 62.000000 electrons
         Band energy:-490.296880;  BLOECHL correction: -0.013525
       DOS:  cpu time    0.0040: real time    0.0048
    --------------------------------------------
      LOOP:  cpu time   28.1520: real time   28.7496

 eigenvalue-minimisations  :  1232
 total energy-change (2. order) :-0.2701085E+01  (-0.2677308E+01)
 number of electron      62.0000000 magnetization       9.7800000
 augmentation part       62.0000000 magnetization       9.7800000

 Free energy of the ion-electron system (eV)
  ---------------------------------------------------
  alpha Z        PSCENC =        41.15670033
  Ewald energy   TEWEN  =      7529.91642125
  -Hartree energ DENC   =    -10537.45023076
  -exchange      EXHF   =         0.00000000
  -V(xc)+E(xc)   XCENC  =         5.39347058
  PAW double counting   =      1985.40779224    -1972.93194454
  entropy T*S    EENTRO =         0.00000000
  eigenvalues    EBANDS =      -490.29688041
  atomic energy  EATOM  =      3395.63962523
  Solvation  Ediel_sol  =         0.00000000
  ---------------------------------------------------
  free energy    TOTEN  =       -43.16504608 eV

  energy without entropy =      -43.16504608  energy(sigma->0) =      -43.16504608


--------------------------------------------------------------------------------------------------------




--------------------------------------- Iteration      1(   5)  ---------------------------------------


     EDDAV:  cpu time   27.7320: real time   28.0517
 BZINTS: Fermi energy: -2.785582; 62.000000 electrons
         Band energy:-490.363983;  BLOECHL correction: -0.013455
       DOS:  cpu time    0.0040: real time    0.0054
    CHARGE:  cpu time    2.0920: real time    2.0968
    MIXING:  cpu time    0.0440: real time    0.0437
    --------------------------------------------
      LOOP:  cpu time   29.8720: real time   30.1976

 eigenvalue-minimisations  :  1200
 total energy-change (2. order) :-0.6710213E-01  (-0.6706830E-01)
 number of electron      61.9999990 magnetization       9.7399303
 augmentation part       -1.9009406 magnetization       6.3591010

 Broyden mixing:
  rms(total) = 0.33717E+01    rms(broyden)= 0.33717E+01
  rms(prec ) = 0.36194E+01
  weight for this iteration     100.00

 Free energy of the ion-electron system (eV)
  ---------------------------------------------------
  alpha Z        PSCENC =        41.15670033
  Ewald energy   TEWEN  =      7529.91642125
  -Hartree energ DENC   =    -10537.45023076
  -exchange      EXHF   =         0.00000000
  -V(xc)+E(xc)   XCENC  =         5.39347058
  PAW double counting   =      1985.40779224    -1972.93194454
  entropy T*S    EENTRO =         0.00000000
  eigenvalues    EBANDS =      -490.36398254
  atomic energy  EATOM  =      3395.63962523
  Solvation  Ediel_sol  =         0.00000000
  ---------------------------------------------------
  free energy    TOTEN  =       -43.23214821 eV

  energy without entropy =      -43.23214821  energy(sigma->0) =      -43.23214821


--------------------------------------------------------------------------------------------------------




--------------------------------------- Iteration      1(   6)  ---------------------------------------


    POTLOK:  cpu time   51.3640: real time   51.9112
    SETDIJ:  cpu time    0.0480: real time    0.0485
     EDDAV:  cpu time   29.1680: real time   29.3416
 BZINTS: Fermi energy: -4.483609; 62.000000 electrons
         Band energy:-727.926026;  BLOECHL correction: -0.029155
       DOS:  cpu time    0.0040: real time    0.0067
    CHARGE:  cpu time    2.0520: real time    2.1110
    MIXING:  cpu time    0.0400: real time    0.0408
    --------------------------------------------
      LOOP:  cpu time   82.6760: real time   83.4598

 eigenvalue-minimisations  :  1264
 total energy-change (2. order) :-0.6104288E+02  (-0.6716078E+02)
 number of electron      61.9999982 magnetization       9.3835017
 augmentation part        8.3838541 magnetization       9.4612544

 Broyden mixing:
  rms(total) = 0.64524E+01    rms(broyden)= 0.64523E+01
  rms(prec ) = 0.67840E+01
  weight for this iteration     100.00

 eigenvalues of (default mixing * dielectric matrix)
  average eigenvalue GAMMA=   0.3202
  0.3202

 Free energy of the ion-electron system (eV)
  ---------------------------------------------------
  alpha Z        PSCENC =        41.15670033
  Ewald energy   TEWEN  =      7529.91642125
  -Hartree energ DENC   =    -10395.91055582
  -exchange      EXHF   =         0.00000000
  -V(xc)+E(xc)   XCENC  =         8.68564437
  PAW double counting   =      1755.08144876    -1710.91828668
  entropy T*S    EENTRO =         0.00000000
  eigenvalues    EBANDS =      -727.92602616
  atomic energy  EATOM  =      3395.63962523
  Solvation  Ediel_sol  =         0.00000000
  ---------------------------------------------------
  free energy    TOTEN  =      -104.27502873 eV

  energy without entropy =     -104.27502873  energy(sigma->0) =     -104.27502873


--------------------------------------------------------------------------------------------------------




--------------------------------------- Iteration      1(   7)  ---------------------------------------


    POTLOK:  cpu time   50.7040: real time   52.4111
    SETDIJ:  cpu time    0.0560: real time    0.0536
     EDDAV:  cpu time   27.3040: real time   27.3601
 BZINTS: Fermi energy: -4.568371; 62.000000 electrons
         Band energy:-560.816261;  BLOECHL correction: -0.040701
       DOS:  cpu time    0.0040: real time    0.0072
    CHARGE:  cpu time    2.0360: real time    2.0593
    MIXING:  cpu time    0.0440: real time    0.0436
    --------------------------------------------
      LOOP:  cpu time   80.1480: real time   81.9348

 eigenvalue-minimisations  :  1168
 total energy-change (2. order) : 0.5839949E+02  (-0.7513633E+01)
 number of electron      61.9999984 magnetization       9.0817045
 augmentation part        6.6128334 magnetization       8.6325995

 Broyden mixing:
  rms(total) = 0.35754E+01    rms(broyden)= 0.35754E+01
  rms(prec ) = 0.38214E+01
  weight for this iteration     100.00

 eigenvalues of (default mixing * dielectric matrix)
  average eigenvalue GAMMA=   0.4466
  0.4466  0.4466

 Free energy of the ion-electron system (eV)
  ---------------------------------------------------
  alpha Z        PSCENC =        41.15670033
  Ewald energy   TEWEN  =      7529.91642125
  -Hartree energ DENC   =    -10475.47910943
  -exchange      EXHF   =         0.00000000
  -V(xc)+E(xc)   XCENC  =         5.07967274
  PAW double counting   =      1901.79209725    -1883.16468887
  entropy T*S    EENTRO =         0.00000000
  eigenvalues    EBANDS =      -560.81626086
  atomic energy  EATOM  =      3395.63962523
  Solvation  Ediel_sol  =         0.00000000
  ---------------------------------------------------
  free energy    TOTEN  =       -45.87554235 eV

  energy without entropy =      -45.87554235  energy(sigma->0) =      -45.87554235


--------------------------------------------------------------------------------------------------------




--------------------------------------- Iteration      1(   8)  ---------------------------------------


    POTLOK:  cpu time   51.9640: real time   52.2138
    SETDIJ:  cpu time    0.0520: real time    0.0497
     EDDAV:  cpu time   31.2880: real time   31.4486
 BZINTS: Fermi energy: -3.988747; 62.000000 electrons
         Band energy:-507.846984;  BLOECHL correction: -0.004861
       DOS:  cpu time    0.0080: real time    0.0071
    CHARGE:  cpu time    2.1160: real time    2.1308
    MIXING:  cpu time    0.0440: real time    0.0424
    --------------------------------------------
      LOOP:  cpu time   85.4720: real time   85.8924

 eigenvalue-minimisations  :  1360
 total energy-change (2. order) : 0.1080502E+02  (-0.1891522E+01)
 number of electron      61.9999986 magnetization       8.9600316
 augmentation part        2.1679972 magnetization       6.9548607

 Broyden mixing:
  rms(total) = 0.48395E+00    rms(broyden)= 0.48342E+00
  rms(prec ) = 0.49747E+00
  weight for this iteration     100.00

 eigenvalues of (default mixing * dielectric matrix)
  average eigenvalue GAMMA=   0.3821
  0.4350  0.4350  0.2764

 Free energy of the ion-electron system (eV)
  ---------------------------------------------------
  alpha Z        PSCENC =        41.15670033
  Ewald energy   TEWEN  =      7529.91642125
  -Hartree energ DENC   =    -10511.47222707
  -exchange      EXHF   =         0.00000000
  -V(xc)+E(xc)   XCENC  =         5.31462021
  PAW double counting   =      1967.05525370    -1954.83393209
  entropy T*S    EENTRO =         0.00000000
  eigenvalues    EBANDS =      -507.84698439
  atomic energy  EATOM  =      3395.63962523
  Solvation  Ediel_sol  =         0.00000000
  ---------------------------------------------------
  free energy    TOTEN  =       -35.07052283 eV

  energy without entropy =      -35.07052283  energy(sigma->0) =      -35.07052283


--------------------------------------------------------------------------------------------------------




--------------------------------------- Iteration      1(   9)  ---------------------------------------


    POTLOK:  cpu time   51.8040: real time   52.1475
    SETDIJ:  cpu time    0.0480: real time    0.0481
     EDDAV:  cpu time   26.0600: real time   26.3748
 BZINTS: Fermi energy: -4.123284; 62.000000 electrons
         Band energy:-510.956174;  BLOECHL correction: -0.005234
       DOS:  cpu time    0.0080: real time    0.0074
    CHARGE:  cpu time    2.0520: real time    2.0546
    MIXING:  cpu time    0.0400: real time    0.0417
    --------------------------------------------
      LOOP:  cpu time   80.0120: real time   80.6740

 eigenvalue-minimisations  :  1136
 total energy-change (2. order) :-0.4346671E+00  (-0.2942314E+00)
 number of electron      61.9999985 magnetization       9.1313789
 augmentation part        2.6311663 magnetization       7.9799943

 Broyden mixing:
  rms(total) = 0.60316E+00    rms(broyden)= 0.60306E+00
  rms(prec ) = 0.61959E+00
  weight for this iteration     100.00

 eigenvalues of (default mixing * dielectric matrix)
  average eigenvalue GAMMA=   0.4493
  0.5268  0.4101  0.4101  0.4504

 Free energy of the ion-electron system (eV)
  ---------------------------------------------------
  alpha Z        PSCENC =        41.15670033
  Ewald energy   TEWEN  =      7529.91642125
  -Hartree energ DENC   =    -10509.17477598
  -exchange      EXHF   =         0.00000000
  -V(xc)+E(xc)   XCENC  =         5.28293175
  PAW double counting   =      1965.41947735    -1952.78939554
  entropy T*S    EENTRO =         0.00000000
  eigenvalues    EBANDS =      -510.95617437
  atomic energy  EATOM  =      3395.63962523
  Solvation  Ediel_sol  =         0.00000000
  ---------------------------------------------------
  free energy    TOTEN  =       -35.50518997 eV

  energy without entropy =      -35.50518997  energy(sigma->0) =      -35.50518997


--------------------------------------------------------------------------------------------------------




--------------------------------------- Iteration      1(  10)  ---------------------------------------


    POTLOK:  cpu time   50.6760: real time   51.0703
    SETDIJ:  cpu time    0.0520: real time    0.0518
     EDDAV:  cpu time   28.2040: real time   28.2749
 BZINTS: Fermi energy: -4.351638; 62.000000 electrons
         Band energy:-519.703002;  BLOECHL correction: -0.014790
       DOS:  cpu time    0.0040: real time    0.0070
    CHARGE:  cpu time    2.0800: real time    2.0843
    MIXING:  cpu time    0.0440: real time    0.0471
    --------------------------------------------
      LOOP:  cpu time   81.0600: real time   81.5355

 eigenvalue-minimisations  :  1232
 total energy-change (2. order) :-0.5362312E+00  (-0.1267872E+00)
 number of electron      61.9999985 magnetization       9.1321943
 augmentation part        3.9405434 magnetization       8.7699235

 Broyden mixing:
  rms(total) = 0.16296E+01    rms(broyden)= 0.16295E+01
  rms(prec ) = 0.17121E+01
  weight for this iteration     100.00

 eigenvalues of (default mixing * dielectric matrix)
  average eigenvalue GAMMA=   0.3900
  0.5169  0.5293  0.4152  0.4152  0.0734

 Free energy of the ion-electron system (eV)
  ---------------------------------------------------
  alpha Z        PSCENC =        41.15670033
  Ewald energy   TEWEN  =      7529.91642125
  -Hartree energ DENC   =    -10501.57678241
  -exchange      EXHF   =         0.00000000
  -V(xc)+E(xc)   XCENC  =         5.36643787
  PAW double counting   =      1951.76524092    -1938.60606226
  entropy T*S    EENTRO =         0.00000000
  eigenvalues    EBANDS =      -519.70300210
  atomic energy  EATOM  =      3395.63962523
  Solvation  Ediel_sol  =         0.00000000
  ---------------------------------------------------
  free energy    TOTEN  =       -36.04142118 eV

  energy without entropy =      -36.04142118  energy(sigma->0) =      -36.04142118


--------------------------------------------------------------------------------------------------------




--------------------------------------- Iteration      1(  11)  ---------------------------------------


    POTLOK:  cpu time   51.0520: real time   51.0844
    SETDIJ:  cpu time    0.0440: real time    0.0453
     EDDAV:  cpu time   30.4360: real time   30.6172
 BZINTS: Fermi energy: -4.365836; 62.000000 electrons
         Band energy:-519.783898;  BLOECHL correction: -0.015870
       DOS:  cpu time    0.0040: real time    0.0072
    CHARGE:  cpu time    2.1120: real time    2.1183
    MIXING:  cpu time    0.0440: real time    0.0432
    --------------------------------------------
      LOOP:  cpu time   83.6920: real time   83.9155

 eigenvalue-minimisations  :  1344
 total energy-change (2. order) :-0.5620675E-01  (-0.1188596E-01)
 number of electron      61.9999985 magnetization       9.1007354
 augmentation part        3.9991696 magnetization       8.7574904

 Broyden mixing:
  rms(total) = 0.16519E+01    rms(broyden)= 0.16519E+01
  rms(prec ) = 0.17383E+01
  weight for this iteration     100.00

 eigenvalues of (default mixing * dielectric matrix)
  average eigenvalue GAMMA=   0.3325
  0.5263  0.4154  0.4154  0.4505  0.1118  0.0758

 Free energy of the ion-electron system (eV)
  ---------------------------------------------------
  alpha Z        PSCENC =        41.15670033
  Ewald energy   TEWEN  =      7529.91642125
  -Hartree energ DENC   =    -10501.51891731
  -exchange      EXHF   =         0.00000000
  -V(xc)+E(xc)   XCENC  =         5.36507279
  PAW double counting   =      1951.63279731    -1938.50542972
  entropy T*S    EENTRO =         0.00000000
  eigenvalues    EBANDS =      -519.78389781
  atomic energy  EATOM  =      3395.63962523
  Solvation  Ediel_sol  =         0.00000000
  ---------------------------------------------------
  free energy    TOTEN  =       -36.09762793 eV

  energy without entropy =      -36.09762793  energy(sigma->0) =      -36.09762793


--------------------------------------------------------------------------------------------------------




--------------------------------------- Iteration      1(  12)  ---------------------------------------


    POTLOK:  cpu time   50.9680: real time   51.2031
    SETDIJ:  cpu time    0.0520: real time    0.0496
     EDDAV:  cpu time   25.1000: real time   25.2832
 BZINTS: Fermi energy: -4.382308; 62.000000 electrons
         Band energy:-520.609129;  BLOECHL correction: -0.020342
       DOS:  cpu time    0.0080: real time    0.0075
    CHARGE:  cpu time    2.0480: real time    2.1139
    MIXING:  cpu time    0.0440: real time    0.0438
    --------------------------------------------
      LOOP:  cpu time   78.2200: real time   78.7011

 eigenvalue-minimisations  :  1088
 total energy-change (2. order) :-0.6391070E-01  (-0.2626113E-02)
 number of electron      61.9999985 magnetization       8.5125705
 augmentation part        4.0617207 magnetization       8.2430682

 Broyden mixing:
  rms(total) = 0.17177E+01    rms(broyden)= 0.17177E+01
  rms(prec ) = 0.18064E+01
  weight for this iteration     100.00

 eigenvalues of (default mixing * dielectric matrix)
  average eigenvalue GAMMA=   0.5354
  0.8815  0.8815  0.6126  0.3607  0.3607  0.3253  0.3253

 Free energy of the ion-electron system (eV)
  ---------------------------------------------------
  alpha Z        PSCENC =        41.15670033
  Ewald energy   TEWEN  =      7529.91642125
  -Hartree energ DENC   =    -10501.05921257
  -exchange      EXHF   =         0.00000000
  -V(xc)+E(xc)   XCENC  =         5.43535447
  PAW double counting   =      1951.66767628    -1938.30897416
  entropy T*S    EENTRO =         0.00000000
  eigenvalues    EBANDS =      -520.60912945
  atomic energy  EATOM  =      3395.63962523
  Solvation  Ediel_sol  =         0.00000000
  ---------------------------------------------------
  free energy    TOTEN  =       -36.16153863 eV

  energy without entropy =      -36.16153863  energy(sigma->0) =      -36.16153863


--------------------------------------------------------------------------------------------------------




--------------------------------------- Iteration      1(  13)  ---------------------------------------


    POTLOK:  cpu time   50.8880: real time   51.0136
    SETDIJ:  cpu time    0.0480: real time    0.0475
     EDDAV:  cpu time   28.8920: real time   29.1785
 BZINTS: Fermi energy: -4.290272; 61.993457 electrons
         Band energy:-519.225164;  BLOECHL correction: -0.011308
       DOS:  cpu time    0.0080: real time    0.0091
    CHARGE:  cpu time    2.0440: real time    2.1100
    MIXING:  cpu time    0.0440: real time    0.0469
    --------------------------------------------
      LOOP:  cpu time   81.9240: real time   82.4056

 eigenvalue-minimisations  :  1280
 total energy-change (2. order) : 0.5272990E+00  (-0.5325428E-01)
 number of electron      61.9934553 magnetization       7.6761060
 augmentation part        3.5658881 magnetization       7.6359657

 Broyden mixing:
  rms(total) = 0.14953E+01    rms(broyden)= 0.14953E+01
  rms(prec ) = 0.15457E+01
  weight for this iteration     100.00

 eigenvalues of (default mixing * dielectric matrix)
  average eigenvalue GAMMA=   0.6545
  1.2665  1.2665  0.6202  0.6202  0.4193  0.4193  0.3120  0.3120

 Free energy of the ion-electron system (eV)
  ---------------------------------------------------
  alpha Z        PSCENC =        41.15670033
  Ewald energy   TEWEN  =      7529.91642125
  -Hartree energ DENC   =    -10503.76377263
  -exchange      EXHF   =         0.00000000
  -V(xc)+E(xc)   XCENC  =         6.11205822
  PAW double counting   =      1965.90400278    -1951.37411083
  entropy T*S    EENTRO =         0.00000000
  eigenvalues    EBANDS =      -519.22516402
  atomic energy  EATOM  =      3395.63962523
  Solvation  Ediel_sol  =         0.00000000
  ---------------------------------------------------
  free energy    TOTEN  =       -35.63423966 eV

  energy without entropy =      -35.63423966  energy(sigma->0) =      -35.63423966


--------------------------------------------------------------------------------------------------------




--------------------------------------- Iteration      1(  14)  ---------------------------------------


    POTLOK:  cpu time   50.7840: real time   51.0124
    SETDIJ:  cpu time    0.0480: real time    0.0464
     EDDAV:  cpu time   33.3120: real time   33.4583
 BZINTS: Fermi energy: -4.013834; 62.000000 electrons
         Band energy:-512.339217;  BLOECHL correction: -0.005910
       DOS:  cpu time    0.0080: real time    0.0075
    CHARGE:  cpu time    2.0880: real time    2.0946
    MIXING:  cpu time    0.0440: real time    0.0480
    --------------------------------------------
      LOOP:  cpu time   86.2840: real time   86.6672

 eigenvalue-minimisations  :  1488
 total energy-change (2. order) : 0.8017732E-01  (-0.1408581E+00)
 number of electron      61.9999986 magnetization       7.5692794
 augmentation part        2.0323537 magnetization       6.0057239

 Broyden mixing:
  rms(total) = 0.44107E+00    rms(broyden)= 0.44049E+00
  rms(prec ) = 0.45525E+00
  weight for this iteration     100.00

 eigenvalues of (default mixing * dielectric matrix)
  average eigenvalue GAMMA=   0.6827
  1.2948  1.2948  0.7831  0.7831  0.3156  0.3156  0.5346  0.4114  0.4114

 Free energy of the ion-electron system (eV)
  ---------------------------------------------------
  alpha Z        PSCENC =        41.15670033
  Ewald energy   TEWEN  =      7529.91642125
  -Hartree energ DENC   =    -10510.46766430
  -exchange      EXHF   =         0.00000000
  -V(xc)+E(xc)   XCENC  =         6.37314169
  PAW double counting   =      1984.29893159    -1970.13200101
  entropy T*S    EENTRO =         0.00000000
  eigenvalues    EBANDS =      -512.33921712
  atomic energy  EATOM  =      3395.63962523
  Solvation  Ediel_sol  =         0.00000000
  ---------------------------------------------------
  free energy    TOTEN  =       -35.55406235 eV

  energy without entropy =      -35.55406235  energy(sigma->0) =      -35.55406235


--------------------------------------------------------------------------------------------------------




--------------------------------------- Iteration      1(  15)  ---------------------------------------


    POTLOK:  cpu time   51.0600: real time   51.0939
    SETDIJ:  cpu time    0.0480: real time    0.0476
     EDDAV:  cpu time   32.1160: real time   32.3391
 BZINTS: Fermi energy: -4.138004; 62.000000 electrons
         Band energy:-514.504975;  BLOECHL correction: -0.006056
       DOS:  cpu time    0.0040: real time    0.0073
    CHARGE:  cpu time    2.0840: real time    2.0880
    MIXING:  cpu time    0.0600: real time    0.0596
    --------------------------------------------
      LOOP:  cpu time   85.3720: real time   85.6355

 eigenvalue-minimisations  :  1424
 total energy-change (2. order) :-0.5320932E+00  (-0.2134537E+00)
 number of electron      61.9999985 magnetization       6.9066783
 augmentation part        2.9558547 magnetization       6.1880582

 Broyden mixing:
  rms(total) = 0.79057E+00    rms(broyden)= 0.79056E+00
  rms(prec ) = 0.81457E+00
  weight for this iteration     100.00

 eigenvalues of (default mixing * dielectric matrix)
  average eigenvalue GAMMA=   0.7589
  1.5075  1.1964  1.1964  0.8535  0.8535  0.3156  0.3156  0.5183  0.4163  0.4163

 Free energy of the ion-electron system (eV)
  ---------------------------------------------------
  alpha Z        PSCENC =        41.15670033
  Ewald energy   TEWEN  =      7529.91642125
  -Hartree energ DENC   =    -10507.82177009
  -exchange      EXHF   =         0.00000000
  -V(xc)+E(xc)   XCENC  =         5.91592404
  PAW double counting   =      1977.56638266    -1963.95446362
  entropy T*S    EENTRO =         0.00000000
  eigenvalues    EBANDS =      -514.50497538
  atomic energy  EATOM  =      3395.63962523
  Solvation  Ediel_sol  =         0.00000000
  ---------------------------------------------------
  free energy    TOTEN  =       -36.08615559 eV

  energy without entropy =      -36.08615559  energy(sigma->0) =      -36.08615559


--------------------------------------------------------------------------------------------------------




--------------------------------------- Iteration      1(  16)  ---------------------------------------


    POTLOK:  cpu time   50.9400: real time   50.9845
    SETDIJ:  cpu time    0.0480: real time    0.0485
     EDDAV:  cpu time   24.6000: real time   24.7516
 BZINTS: Fermi energy: -4.099088; 62.000000 electrons
         Band energy:-513.321797;  BLOECHL correction: -0.006256
       DOS:  cpu time    0.0040: real time    0.0078
    CHARGE:  cpu time    2.0880: real time    2.0910
    MIXING:  cpu time    0.0520: real time    0.0493
    --------------------------------------------
      LOOP:  cpu time   77.7320: real time   77.9327

 eigenvalue-minimisations  :  1056
 total energy-change (2. order) : 0.1423165E+00  (-0.1038234E+01)
 number of electron      61.9999985 magnetization       6.5340602
 augmentation part        2.9371975 magnetization       5.6129292

 Broyden mixing:
  rms(total) = 0.66955E+00    rms(broyden)= 0.66954E+00
  rms(prec ) = 0.69638E+00
  weight for this iteration     100.00

 eigenvalues of (default mixing * dielectric matrix)
  average eigenvalue GAMMA=   0.8431
  2.5762  1.2321  1.2321  0.8614  0.8614  0.3155  0.3155  0.4174  0.4174  0.5227
  0.5227

 Free energy of the ion-electron system (eV)
  ---------------------------------------------------
  alpha Z        PSCENC =        41.15670033
  Ewald energy   TEWEN  =      7529.91642125
  -Hartree energ DENC   =    -10508.30392309
  -exchange      EXHF   =         0.00000000
  -V(xc)+E(xc)   XCENC  =         5.84044291
  PAW double counting   =      1979.07736817    -1965.94867672
  entropy T*S    EENTRO =         0.00000000
  eigenvalues    EBANDS =      -513.32179713
  atomic energy  EATOM  =      3395.63962523
  Solvation  Ediel_sol  =         0.00000000
  ---------------------------------------------------
  free energy    TOTEN  =       -35.94383904 eV

  energy without entropy =      -35.94383904  energy(sigma->0) =      -35.94383904


--------------------------------------------------------------------------------------------------------




--------------------------------------- Iteration      1(  17)  ---------------------------------------


    POTLOK:  cpu time   50.8480: real time   50.9711
    SETDIJ:  cpu time    0.0480: real time    0.0476
     EDDAV:  cpu time   25.4080: real time   25.7433
 BZINTS: Fermi energy: -4.070118; 62.000000 electrons
         Band energy:-511.800036;  BLOECHL correction: -0.006027
       DOS:  cpu time    0.0080: real time    0.0072
    CHARGE:  cpu time    1.9960: real time    2.0790
    MIXING:  cpu time    0.0440: real time    0.0498
    --------------------------------------------
      LOOP:  cpu time   78.3520: real time   78.8979

 eigenvalue-minimisations  :  1104
 total energy-change (2. order) :-0.9768238E-01  (-0.4237223E-01)
 number of electron      61.9999985 magnetization       6.1479952
 augmentation part        2.8937190 magnetization       5.1438698

 Broyden mixing:
  rms(total) = 0.55948E+00    rms(broyden)= 0.55948E+00
  rms(prec ) = 0.58777E+00
  weight for this iteration     100.00

 eigenvalues of (default mixing * dielectric matrix)
  average eigenvalue GAMMA=   0.9175
  3.2536  1.2552  1.2552  1.0291  1.0291  0.3155  0.3155  0.6150  0.6150  0.4161
  0.4161  0.4945

 Free energy of the ion-electron system (eV)
  ---------------------------------------------------
  alpha Z        PSCENC =        41.15670033
  Ewald energy   TEWEN  =      7529.91642125
  -Hartree energ DENC   =    -10509.29869656
  -exchange      EXHF   =         0.00000000
  -V(xc)+E(xc)   XCENC  =         5.66828853
  PAW double counting   =      1978.32590071    -1965.64972527
  entropy T*S    EENTRO =         0.00000000
  eigenvalues    EBANDS =      -511.80003565
  atomic energy  EATOM  =      3395.63962523
  Solvation  Ediel_sol  =         0.00000000
  ---------------------------------------------------
  free energy    TOTEN  =       -36.04152142 eV

  energy without entropy =      -36.04152142  energy(sigma->0) =      -36.04152142


--------------------------------------------------------------------------------------------------------




--------------------------------------- Iteration      1(  18)  ---------------------------------------


    POTLOK:  cpu time   50.9840: real time   51.3007
    SETDIJ:  cpu time    0.0440: real time    0.0467
     EDDAV:  cpu time   28.9320: real time   29.0147
 BZINTS: Fermi energy: -4.064470; 62.000000 electrons
         Band energy:-511.124706;  BLOECHL correction: -0.014102
       DOS:  cpu time    0.0040: real time    0.0074
    CHARGE:  cpu time    2.0880: real time    2.1061
    MIXING:  cpu time    0.0520: real time    0.0495
    --------------------------------------------
      LOOP:  cpu time   82.1040: real time   82.5251

 eigenvalue-minimisations  :  1264
 total energy-change (2. order) :-0.1179632E+00  (-0.3925149E-02)
 number of electron      61.9999985 magnetization       5.5453951
 augmentation part        3.2137345 magnetization       4.9617568

 Broyden mixing:
  rms(total) = 0.83047E+00    rms(broyden)= 0.83044E+00
  rms(prec ) = 0.87678E+00
  weight for this iteration     100.00

 eigenvalues of (default mixing * dielectric matrix)
  average eigenvalue GAMMA=   0.9599
  3.7343  1.2420  1.2420  1.2252  1.2252  0.3155  0.3155  0.6886  0.6886  0.4179
  0.4179  0.4827  0.4827

 Free energy of the ion-electron system (eV)
  ---------------------------------------------------
  alpha Z        PSCENC =        41.15670033
  Ewald energy   TEWEN  =      7529.91642125
  -Hartree energ DENC   =    -10509.71391149
  -exchange      EXHF   =         0.00000000
  -V(xc)+E(xc)   XCENC  =         5.51528387
  PAW double counting   =      1975.21797041    -1962.76686839
  entropy T*S    EENTRO =         0.00000000
  eigenvalues    EBANDS =      -511.12470586
  atomic energy  EATOM  =      3395.63962523
  Solvation  Ediel_sol  =         0.00000000
  ---------------------------------------------------
  free energy    TOTEN  =       -36.15948464 eV

  energy without entropy =      -36.15948464  energy(sigma->0) =      -36.15948464


--------------------------------------------------------------------------------------------------------




--------------------------------------- Iteration      1(  19)  ---------------------------------------


    POTLOK:  cpu time   50.9120: real time   51.0725
    SETDIJ:  cpu time    0.0480: real time    0.0480
     EDDAV:  cpu time   27.4000: real time   27.6854
 BZINTS: Fermi energy: -4.165729; 62.000000 electrons
         Band energy:-510.074591;  BLOECHL correction: -0.016373
       DOS:  cpu time    0.0040: real time    0.0068
    CHARGE:  cpu time    2.0720: real time    2.0775
    MIXING:  cpu time    0.0760: real time    0.0774
    --------------------------------------------
      LOOP:  cpu time   80.5120: real time   80.9677

 eigenvalue-minimisations  :  1200
 total energy-change (2. order) :-0.2835837E+00  (-0.1298313E-01)
 number of electron      61.9999986 magnetization       5.9674149
 augmentation part        3.8250700 magnetization       6.0543433

 Broyden mixing:
  rms(total) = 0.12969E+01    rms(broyden)= 0.12968E+01
  rms(prec ) = 0.13792E+01
  weight for this iteration     100.00

 eigenvalues of (default mixing * dielectric matrix)
  average eigenvalue GAMMA=   0.9340
  3.4710  1.2384  1.2384  1.2342  1.2342  0.7296  0.3155  0.3155  0.7155  0.7155
  0.4173  0.4173  0.5168  0.5168

 Free energy of the ion-electron system (eV)
  ---------------------------------------------------
  alpha Z        PSCENC =        41.15670033
  Ewald energy   TEWEN  =      7529.91642125
  -Hartree energ DENC   =    -10510.49082941
  -exchange      EXHF   =         0.00000000
  -V(xc)+E(xc)   XCENC  =         5.19929814
  PAW double counting   =      1969.58585191    -1957.37554514
  entropy T*S    EENTRO =         0.00000000
  eigenvalues    EBANDS =      -510.07459066
  atomic energy  EATOM  =      3395.63962523
  Solvation  Ediel_sol  =         0.00000000
  ---------------------------------------------------
  free energy    TOTEN  =       -36.44306836 eV

  energy without entropy =      -36.44306836  energy(sigma->0) =      -36.44306836


--------------------------------------------------------------------------------------------------------




--------------------------------------- Iteration      1(  20)  ---------------------------------------


    POTLOK:  cpu time   50.7440: real time   51.0731
    SETDIJ:  cpu time    0.0480: real time    0.0476
     EDDAV:  cpu time   23.3040: real time   23.7215
 BZINTS: Fermi energy: -4.145165; 62.000000 electrons
         Band energy:-511.628693;  BLOECHL correction: -0.010060
       DOS:  cpu time    0.0080: real time    0.0075
    CHARGE:  cpu time    2.0480: real time    2.0969
    MIXING:  cpu time    0.0520: real time    0.0518
    --------------------------------------------
      LOOP:  cpu time   76.2040: real time   76.9983

 eigenvalue-minimisations  :  1008
 total energy-change (2. order) : 0.1715030E+00  (-0.4517219E-02)
 number of electron      61.9999986 magnetization       6.4999069
 augmentation part        3.6256604 magnetization       6.3458871

 Broyden mixing:
  rms(total) = 0.11788E+01    rms(broyden)= 0.11788E+01
  rms(prec ) = 0.12477E+01
  weight for this iteration     100.00

 eigenvalues of (default mixing * dielectric matrix)
  average eigenvalue GAMMA=   1.0340
  2.5747  3.3309  1.2378  1.2378  1.2972  1.2972  0.3155  0.3155  0.7401  0.7401
  0.4173  0.4173  0.5477  0.5477  0.4926

 Free energy of the ion-electron system (eV)
  ---------------------------------------------------
  alpha Z        PSCENC =        41.15670033
  Ewald energy   TEWEN  =      7529.91642125
  -Hartree energ DENC   =    -10508.98778508
  -exchange      EXHF   =         0.00000000
  -V(xc)+E(xc)   XCENC  =         5.39733706
  PAW double counting   =      1970.73936668    -1958.50453806
  entropy T*S    EENTRO =         0.00000000
  eigenvalues    EBANDS =      -511.62869280
  atomic energy  EATOM  =      3395.63962523
  Solvation  Ediel_sol  =         0.00000000
  ---------------------------------------------------
  free energy    TOTEN  =       -36.27156538 eV

  energy without entropy =      -36.27156538  energy(sigma->0) =      -36.27156538


--------------------------------------------------------------------------------------------------------




--------------------------------------- Iteration      1(  21)  ---------------------------------------


    POTLOK:  cpu time   50.1840: real time   51.0398
    SETDIJ:  cpu time    0.0440: real time    0.0472
     EDDAV:  cpu time   24.7200: real time   25.6142
 BZINTS: Fermi energy: -4.106503; 62.000000 electrons
         Band energy:-513.541693;  BLOECHL correction: -0.006248
       DOS:  cpu time    0.0040: real time    0.0074
    CHARGE:  cpu time    2.0760: real time    2.0956
    MIXING:  cpu time    0.0520: real time    0.0529
    --------------------------------------------
      LOOP:  cpu time   77.0800: real time   78.8571

 eigenvalue-minimisations  :  1104
 total energy-change (2. order) : 0.2579348E+00  (-0.1279257E-01)
 number of electron      61.9999985 magnetization       6.8646264
 augmentation part        2.9289729 magnetization       5.7955214

 Broyden mixing:
  rms(total) = 0.64740E+00    rms(broyden)= 0.64720E+00
  rms(prec ) = 0.67610E+00
  weight for this iteration     100.00

 eigenvalues of (default mixing * dielectric matrix)
  average eigenvalue GAMMA=   1.1334
  4.2812  3.2632  1.2401  1.2401  1.2382  1.2382  0.3155  0.3155  0.9003  0.7566
  0.7566  0.4172  0.4172  0.6064  0.6064  0.5423

 Free energy of the ion-electron system (eV)
  ---------------------------------------------------
  alpha Z        PSCENC =        41.15670033
  Ewald energy   TEWEN  =      7529.91642125
  -Hartree energ DENC   =    -10507.16705510
  -exchange      EXHF   =         0.00000000
  -V(xc)+E(xc)   XCENC  =         5.77935862
  PAW double counting   =      1973.52903151    -1961.32601918
  entropy T*S    EENTRO =         0.00000000
  eigenvalues    EBANDS =      -513.54169321
  atomic energy  EATOM  =      3395.63962523
  Solvation  Ediel_sol  =         0.00000000
  ---------------------------------------------------
  free energy    TOTEN  =       -36.01363054 eV

  energy without entropy =      -36.01363054  energy(sigma->0) =      -36.01363054


--------------------------------------------------------------------------------------------------------




--------------------------------------- Iteration      1(  22)  ---------------------------------------


    POTLOK:  cpu time   50.4680: real time   51.2443
    SETDIJ:  cpu time    0.0480: real time    0.0479
     EDDAV:  cpu time   26.1520: real time   26.9285
 BZINTS: Fermi energy: -4.118433; 62.000000 electrons
         Band energy:-514.588623;  BLOECHL correction: -0.006267
       DOS:  cpu time    0.0080: real time    0.0074
    CHARGE:  cpu time    2.0720: real time    2.0836
    MIXING:  cpu time    0.0560: real time    0.0557
    --------------------------------------------
      LOOP:  cpu time   78.8040: real time   80.3673

 eigenvalue-minimisations  :  1168
 total energy-change (2. order) : 0.2356516E+00  (-0.3063287E-01)
 number of electron      61.9999985 magnetization       7.4427439
 augmentation part        2.4013187 magnetization       6.1794576

 Broyden mixing:
  rms(total) = 0.53761E+00    rms(broyden)= 0.53759E+00
  rms(prec ) = 0.53947E+00
  weight for this iteration     100.00

 eigenvalues of (default mixing * dielectric matrix)
  average eigenvalue GAMMA=   1.2380
  6.0997  3.3273  1.6974  1.2381  1.2381  0.9792  0.9792  1.0184  0.3155  0.3155
  0.7217  0.7217  0.4173  0.4173  0.5350  0.5350  0.4902

 Free energy of the ion-electron system (eV)
  ---------------------------------------------------
  alpha Z        PSCENC =        41.15670033
  Ewald energy   TEWEN  =      7529.91642125
  -Hartree energ DENC   =    -10506.51843690
  -exchange      EXHF   =         0.00000000
  -V(xc)+E(xc)   XCENC  =         6.42246241
  PAW double counting   =      1978.20611556    -1966.01224413
  entropy T*S    EENTRO =         0.00000000
  eigenvalues    EBANDS =      -514.58862272
  atomic energy  EATOM  =      3395.63962523
  Solvation  Ediel_sol  =         0.00000000
  ---------------------------------------------------
  free energy    TOTEN  =       -35.77797895 eV

  energy without entropy =      -35.77797895  energy(sigma->0) =      -35.77797895


--------------------------------------------------------------------------------------------------------




--------------------------------------- Iteration      1(  23)  ---------------------------------------


    POTLOK:  cpu time   50.7840: real time   50.9565
    SETDIJ:  cpu time    0.0480: real time    0.0481
     EDDAV:  cpu time   31.2280: real time   31.4430
 BZINTS: Fermi energy: -4.133253; 62.000000 electrons
         Band energy:-519.075994;  BLOECHL correction: -0.005330
       DOS:  cpu time    0.0040: real time    0.0053
    CHARGE:  cpu time    1.9920: real time    2.0888
    MIXING:  cpu time    0.0560: real time    0.0583
    --------------------------------------------
      LOOP:  cpu time   84.1120: real time   84.5999

 eigenvalue-minimisations  :  1392
 total energy-change (2. order) : 0.1973571E+00  (-0.1034895E-01)
 number of electron      61.9999985 magnetization       7.6009327
 augmentation part        2.2088545 magnetization       5.9988000

 Broyden mixing:
  rms(total) = 0.63891E+00    rms(broyden)= 0.63890E+00
  rms(prec ) = 0.64088E+00
  weight for this iteration     100.00

 eigenvalues of (default mixing * dielectric matrix)
  average eigenvalue GAMMA=   1.2200
  6.8408  3.2691  1.6979  1.2368  1.2368  0.9941  0.9941  1.0587  0.3155  0.3155
  0.7114  0.7114  0.4173  0.4173  0.5209  0.5209  0.4562  0.2461

 Free energy of the ion-electron system (eV)
  ---------------------------------------------------
  alpha Z        PSCENC =        41.15670033
  Ewald energy   TEWEN  =      7529.91642125
  -Hartree energ DENC   =    -10502.23486042
  -exchange      EXHF   =         0.00000000
  -V(xc)+E(xc)   XCENC  =         7.01096566
  PAW double counting   =      1977.54073574    -1965.53421528
  entropy T*S    EENTRO =         0.00000000
  eigenvalues    EBANDS =      -519.07599434
  atomic energy  EATOM  =      3395.63962523
  Solvation  Ediel_sol  =         0.00000000
  ---------------------------------------------------
  free energy    TOTEN  =       -35.58062183 eV

  energy without entropy =      -35.58062183  energy(sigma->0) =      -35.58062183


--------------------------------------------------------------------------------------------------------




--------------------------------------- Iteration      1(  24)  ---------------------------------------


    POTLOK:  cpu time   50.9760: real time   51.1534
    SETDIJ:  cpu time    0.0480: real time    0.0483
     EDDAV:  cpu time   27.8080: real time   27.9346
 BZINTS: Fermi energy: -4.135181; 62.000000 electrons
         Band energy:-520.022373;  BLOECHL correction: -0.004860
       DOS:  cpu time    0.0040: real time    0.0069
    CHARGE:  cpu time    2.0680: real time    2.0714
    MIXING:  cpu time    0.0600: real time    0.0604
    --------------------------------------------
      LOOP:  cpu time   80.9640: real time   81.2749

 eigenvalue-minimisations  :  1216
 total energy-change (2. order) : 0.3789614E-01  (-0.6143112E-02)
 number of electron      61.9999985 magnetization       6.9019082
 augmentation part        2.1717894 magnetization       5.2430037

 Broyden mixing:
[...]
     34      -1.8026      0.00000
     35      -1.4128      0.00000
     36      -1.0467      0.00000
     37      -0.7097      0.00000
     38       0.5491      0.00000
     39       0.9142      0.00000
     40       1.3268      0.00000
     41       1.4665      0.00000
     42       1.8116      0.00000
     43       2.0021      0.00000
     44       2.0968      0.00000
     45       2.6234      0.00000
     46       2.7018      0.00000
     47       3.1596      0.00000
     48       3.3002      0.00000

 k-point     5 :      -0.4000    0.2000    0.0000
  band No.  band energies     occupation 
      1     -16.5883      1.00000
      2     -16.5782      1.00000
      3     -16.0969      1.00000
      4     -15.8884      1.00000
      5     -15.8573      1.00000
      6     -15.6470      1.00000
      7     -11.7995      1.00000
      8     -10.1117      1.00000
      9      -8.0403      1.00000
     10      -7.5196      1.00000
     11      -7.4602      1.00000
     12      -7.0170      1.00000
     13      -6.6239      1.00000
     14      -6.6042      1.00000
     15      -6.3383      1.00000
     16      -5.8629      1.00000
     17      -5.8299      1.00000
     18      -5.7488      1.00000
     19      -5.7273      1.00000
     20      -5.4893      1.00000
     21      -5.3581      1.00000
     22      -4.6783      1.00000
     23      -4.3708      1.00000
     24      -4.3544      1.00000
     25      -4.2108      1.00000
     26      -3.7955      1.00000
     27      -3.7584      1.00000
     28      -3.6461      1.00000
     29      -3.4908      1.00000
     30      -3.4789      1.00000
     31      -3.4342      1.00000
     32      -2.2626      0.00000
     33      -2.0235      0.00000
     34      -1.9806      0.00000
     35      -1.7194      0.00000
     36      -1.4370      0.00000
     37      -0.7050      0.00000
     38       0.3890      0.00000
     39       0.4670      0.00000
     40       1.1390      0.00000
     41       1.2790      0.00000
     42       1.4646      0.00000
     43       2.4380      0.00000
     44       2.5410      0.00000
     45       2.5750      0.00000
     46       2.6281      0.00000
     47       3.1076      0.00000
     48       3.4417      0.00000


--------------------------------------------------------------------------------------------------------


 soft charge-density along one line, spin component           1
         0         1         2         3         4         5         6         7         8         9
 total charge-density along one line

 soft charge-density along one line, spin component           2
         0         1         2         3         4         5         6         7         8         9
 total charge-density along one line

 pseudopotential strength for first ion, spin component:           1
-10.380  -0.090  -0.000  -0.000  -0.000   0.996   0.032   0.000
 -0.090 -10.488   0.000  -0.000  -0.000   0.032   1.034  -0.000
 -0.000   0.000 -10.334   0.000   0.000   0.000  -0.000   0.979
 -0.000  -0.000   0.000 -10.488   0.090   0.000   0.000  -0.000
 -0.000  -0.000   0.000   0.090 -10.380   0.000   0.000  -0.000
  0.996   0.032   0.000   0.000   0.000   0.671  -0.012  -0.000
  0.032   1.034  -0.000   0.000   0.000  -0.012   0.657   0.000
  0.000  -0.000   0.979  -0.000  -0.000  -0.000   0.000   0.678
  0.000   0.000  -0.000   1.034  -0.032  -0.000  -0.000   0.000
  0.000   0.000  -0.000  -0.032   0.996  -0.000  -0.000   0.000
  0.000  -0.000   0.004  -0.000   0.000   0.000  -0.000  -0.001
 -0.000   0.000  -0.000   0.000  -0.000   0.000  -0.000   0.000
 -0.000   0.000   0.000  -0.000   0.001   0.000  -0.000  -0.000
 -0.000  -0.000   0.000  -0.000  -0.000  -0.000   0.000  -0.000
  0.001  -0.000   0.000   0.000  -0.000   0.000  -0.000  -0.000
  0.000  -0.000  -0.000   0.000  -0.001  -0.000   0.000   0.000
  0.000   0.000  -0.000   0.000   0.000  -0.000  -0.000   0.000
 -0.001   0.000  -0.000  -0.000   0.000   0.000  -0.000   0.000
 pseudopotential strength for first ion, spin component:           2
-10.380  -0.090  -0.000  -0.000  -0.000   0.996   0.032   0.000
 -0.090 -10.488   0.000  -0.000  -0.000   0.032   1.034  -0.000
 -0.000   0.000 -10.334   0.000   0.000   0.000  -0.000   0.979
 -0.000  -0.000   0.000 -10.488   0.090   0.000   0.000  -0.000
 -0.000  -0.000   0.000   0.090 -10.380   0.000   0.000  -0.000
  0.996   0.032   0.000   0.000   0.000   0.671  -0.012  -0.000
  0.032   1.034  -0.000   0.000   0.000  -0.012   0.657   0.000
  0.000  -0.000   0.979  -0.000  -0.000  -0.000   0.000   0.678
  0.000   0.000  -0.000   1.034  -0.032  -0.000  -0.000   0.000
  0.000   0.000  -0.000  -0.032   0.996  -0.000  -0.000   0.000
  0.000  -0.000   0.004  -0.000   0.000   0.000  -0.000  -0.001
 -0.000   0.000  -0.000   0.000  -0.000   0.000  -0.000   0.000
 -0.000   0.000   0.000  -0.000   0.001   0.000  -0.000  -0.000
 -0.000  -0.000   0.000  -0.000  -0.000  -0.000   0.000  -0.000
  0.001  -0.000   0.000   0.000  -0.000   0.000  -0.000  -0.000
  0.000  -0.000  -0.000   0.000  -0.001  -0.000   0.000   0.000
  0.000   0.000  -0.000   0.000   0.000  -0.000  -0.000   0.000
 -0.001   0.000  -0.000  -0.000   0.000   0.000  -0.000   0.000
 total augmentation occupancy for first ion, spin component:           1
  1.686  -0.299   0.000  -0.000  -0.000   0.085   0.158   0.000   0.000  -0.000  -0.000  -0.000   0.000   0.000   0.009  -0.000
 -0.299   1.415  -0.000  -0.000  -0.000   0.155   0.241   0.000  -0.000   0.000  -0.000   0.000   0.000   0.000   0.011  -0.000
  0.000  -0.000   1.931  -0.000  -0.000   0.000   0.000  -0.048   0.000  -0.000  -0.015  -0.005  -0.000   0.000   0.000   0.000
 -0.000  -0.000  -0.000   1.415   0.299   0.000   0.000   0.000   0.241  -0.155   0.000   0.000  -0.011   0.000   0.000   0.000
 -0.000  -0.000  -0.000   0.299   1.686   0.000   0.000  -0.000  -0.158   0.085   0.000   0.000   0.009  -0.000  -0.000  -0.001
  0.085   0.155   0.000   0.000   0.000   0.090   0.042   0.000   0.000  -0.000   0.000  -0.000   0.000  -0.000   0.030  -0.000
  0.158   0.241   0.000   0.000   0.000   0.042   0.145   0.000  -0.000   0.000  -0.000   0.000  -0.000   0.000  -0.007  -0.000
  0.000   0.000  -0.048   0.000  -0.000   0.000   0.000   0.086   0.000  -0.000   0.035  -0.015  -0.000  -0.000   0.000   0.000
  0.000  -0.000   0.000   0.241  -0.158   0.000  -0.000   0.000   0.145  -0.042  -0.000   0.000   0.007   0.000  -0.000  -0.000
 -0.000   0.000  -0.000  -0.155   0.085  -0.000   0.000  -0.000  -0.042   0.090  -0.000   0.000   0.030   0.000  -0.000  -0.004
 -0.000   0.000  -0.015   0.000   0.000   0.000  -0.000   0.035  -0.000  -0.000   1.068  -0.306   0.000   0.000  -0.000  -0.000
 -0.000   0.000  -0.005   0.000   0.000  -0.000   0.000  -0.015   0.000   0.000  -0.306   0.156   0.000   0.000  -0.000   0.000
  0.000   0.000  -0.000  -0.011   0.009   0.000  -0.000  -0.000   0.007   0.030   0.000  -0.000   0.202  -0.000  -0.000  -0.015
  0.000   0.000   0.000   0.000  -0.000  -0.000  -0.000  -0.000  -0.000   0.000   0.000   0.000  -0.000   0.210  -0.000   0.000
  0.009   0.011   0.000   0.000  -0.000   0.030  -0.007   0.000  -0.000  -0.000   0.000   0.000  -0.000  -0.000   0.202  -0.000
 -0.000  -0.000   0.000   0.000  -0.001  -0.000  -0.000   0.000  -0.000  -0.004  -0.000   0.000  -0.015   0.000  -0.000   0.002
 -0.000   0.000  -0.000   0.000   0.000   0.000   0.000   0.000   0.000  -0.000   0.000  -0.000   0.000  -0.017   0.000  -0.000
 -0.001  -0.000  -0.000  -0.000   0.000  -0.004   0.000  -0.000  -0.000   0.000  -0.000   0.000   0.000   0.000  -0.015  -0.000
 total augmentation occupancy for first ion, spin component:           2
 -0.000  -0.000  -0.000   0.000   0.000  -0.000   0.000  -0.000  -0.000  -0.000  -0.000  -0.000   0.000  -0.000   0.000   0.000
 -0.000  -0.000  -0.000   0.000   0.000  -0.000  -0.000  -0.000  -0.000  -0.000  -0.000   0.000   0.000   0.000  -0.000   0.000
 -0.000  -0.000  -0.000  -0.000   0.000  -0.000   0.000   0.000   0.000   0.000  -0.000  -0.000  -0.000  -0.000   0.000  -0.000
  0.000   0.000  -0.000  -0.000   0.000  -0.000   0.000  -0.000  -0.000   0.000   0.000   0.000   0.000  -0.000   0.000   0.000
 -0.000   0.000   0.000   0.000  -0.000   0.000  -0.000   0.000  -0.000  -0.000   0.000   0.000   0.000   0.000  -0.000   0.000
 -0.000  -0.000  -0.000  -0.000   0.000  -0.000  -0.000  -0.000  -0.000   0.000   0.000   0.000   0.000  -0.000   0.000   0.000
  0.000  -0.000   0.000   0.000  -0.000  -0.000  -0.000   0.000   0.000  -0.000  -0.000   0.000   0.000  -0.000   0.000   0.000
 -0.000  -0.000   0.000  -0.000   0.000  -0.000   0.000  -0.000  -0.000   0.000   0.000   0.000   0.000  -0.000   0.000   0.000
 -0.000  -0.000   0.000  -0.000  -0.000  -0.000   0.000  -0.000  -0.000   0.000   0.000   0.000  -0.000   0.000   0.000  -0.000
 -0.000  -0.000   0.000   0.000  -0.000  -0.000  -0.000   0.000   0.000  -0.000  -0.000  -0.000   0.000   0.000  -0.000  -0.000
 -0.000   0.000  -0.000   0.000   0.000   0.000  -0.000   0.000  -0.000  -0.000  -0.000   0.000   0.000   0.000   0.000   0.000
 -0.000   0.000  -0.000   0.000   0.000   0.000  -0.000   0.000   0.000  -0.000   0.000  -0.000  -0.000  -0.000  -0.000   0.000
  0.000   0.000  -0.000   0.000   0.000   0.000   0.000   0.000  -0.000   0.000  -0.000  -0.000  -0.000   0.000   0.000  -0.000
 -0.000   0.000  -0.000  -0.000   0.000  -0.000  -0.000  -0.000   0.000   0.000   0.000  -0.000   0.000  -0.000   0.000   0.000
  0.000  -0.000   0.000   0.000  -0.000   0.000   0.000   0.000   0.000  -0.000   0.000  -0.000   0.000   0.000  -0.000  -0.000
  0.000   0.000  -0.000   0.000   0.000   0.000   0.000   0.000  -0.000  -0.000   0.000   0.000  -0.000   0.000  -0.000   0.000
 -0.000   0.000  -0.000  -0.000   0.000   0.000  -0.000   0.000   0.000  -0.000   0.000  -0.000   0.000  -0.000   0.000  -0.000
  0.000  -0.000   0.000   0.000  -0.000  -0.000   0.000   0.000   0.000  -0.000  -0.000   0.000   0.000   0.000  -0.000  -0.000


------------------------ aborting loop because EDIFF is reached ----------------------------------------





 total charge     

# of ion       s       p       d       tot
------------------------------------------
    1        0.382   0.465   7.383   8.230
    2        0.382   0.465   7.383   8.230
    3        1.159   1.150   0.090   2.399
    4        1.159   1.150   0.090   2.399
    5        1.490   2.248   0.048   3.787
    6        1.486   2.277   0.047   3.810
    7        1.490   2.252   0.048   3.790
    8        1.490   2.248   0.048   3.787
    9        1.486   2.277   0.047   3.810
   10        1.490   2.252   0.048   3.790
--------------------------------------------------
tot         12.014  16.784  15.234  44.032



 magnetization (x)

# of ion       s       p       d       tot
------------------------------------------
    1        0.000   0.000   0.000   0.000
    2        0.000   0.000   0.000   0.000
    3       -0.000  -0.000  -0.000  -0.000
    4       -0.000  -0.000  -0.000  -0.000
    5       -0.000  -0.000   0.000  -0.000
    6       -0.000  -0.000  -0.000  -0.000
    7       -0.000  -0.000   0.000  -0.000
    8       -0.000  -0.000   0.000  -0.000
    9       -0.000  -0.000  -0.000  -0.000
   10       -0.000  -0.000   0.000  -0.000
--------------------------------------------------
tot         -0.000  -0.000   0.000   0.000

    CHARGE:  cpu time    2.0600: real time    2.0705
    FORLOC:  cpu time    0.0560: real time    0.0547
    FORNL :  cpu time    6.7880: real time    6.8181
    STRESS:  cpu time   20.1840: real time   20.5318
    FORCOR:  cpu time   51.2880: real time   51.4583
    FORHAR:  cpu time    0.3680: real time    0.3660
    MIXING:  cpu time    0.0400: real time    0.0414
    OFIELD:  cpu time    0.0000: real time    0.0000

  FORCE on cell =-STRESS in cart. coord.  units (eV):
  Direction    XX          YY          ZZ          XY          YZ          ZX
  --------------------------------------------------------------------------------------
  Alpha Z    51.40324    51.40324    51.40324
  Ewald   12092.08495 12092.08313-14069.42190    -0.00236    -0.00051    -0.00092
  Hartree 12676.27813 12676.27919-12208.36256    -0.00049     0.00007     0.00011
  E(xc)    -256.51142  -256.51147  -256.24464     0.00007     0.00001     0.00001
  Local  -25487.57739-25487.57776 25528.85030     0.00242     0.00027     0.00051
  n-local   223.39585   223.44149   226.02637    -0.04417     0.54750     0.45920
  augment    73.18960    73.18936    69.66627     0.00034     0.00123    -0.00066
  Kinetic   630.04147   624.64899   658.07231    -3.49088     1.62152     1.89180
  Fock        0.00000     0.00000     0.00000     0.00000     0.00000     0.00000
  -------------------------------------------------------------------------------------
  Total      -0.36970    -0.36970    -0.01060     0.00000     0.00000     0.00000
  in kB      -0.76359    -0.76359    -0.02190     0.00000     0.00000     0.00000
  external pressure =       -0.52 kB  Pullay stress =        0.00 kB


 VOLUME and BASIS-vectors are now :
 -----------------------------------------------------------------------------
  energy-cutoff  :      520.00
  volume of cell :      775.71
      direct lattice vectors                 reciprocal lattice vectors
     6.228519818 -0.000000386 -0.000000000     0.160551783 -0.092694623  0.000000000
     3.114259896  5.394055943 -0.000000000     0.000000011  0.185389246  0.000000000
    -0.000000000 -0.000000000 23.088704836     0.000000000  0.000000000  0.043311221

  length of vectors
     6.228519818  6.228519424 23.088704836     0.185389234  0.185389246  0.043311221


 FORCES acting on ions
    electron-ion (+dipol)            ewald-force                    non-local-force                 convergence-correction
 -----------------------------------------------------------------------------------------------
   0.119E-03 0.533E-04 -.666E-01   0.680E-03 0.412E-03 0.676E-01   -.139E-16 -.139E-16 -.150E-02   -.260E-06 -.157E-06 -.879E-04
   -.119E-03 -.533E-04 0.666E-01   -.680E-03 -.412E-03 -.676E-01   0.208E-16 0.139E-16 0.150E-02   0.260E-06 0.157E-06 0.879E-04
   -.514E-04 0.484E-06 0.246E+03   -.174E-03 -.975E-04 -.243E+03   0.168E-16 0.683E-17 -.276E+01   0.456E-07 0.210E-07 -.366E-01
   0.514E-04 -.484E-06 -.246E+03   0.174E-03 0.975E-04 0.243E+03   -.988E-17 -.163E-17 0.276E+01   -.456E-07 -.210E-07 0.366E-01
   -.334E+02 -.211E-02 -.508E+03   0.311E+02 0.142E-02 0.510E+03   0.230E+01 0.598E-03 -.271E+01   0.106E-01 -.599E-04 0.782E-01
   0.167E+02 0.289E+02 -.508E+03   -.156E+02 -.269E+02 0.510E+03   -.115E+01 -.200E+01 -.271E+01   -.535E-02 -.915E-02 0.782E-01
   0.167E+02 -.289E+02 -.508E+03   -.156E+02 0.269E+02 0.510E+03   -.115E+01 0.200E+01 -.271E+01   -.525E-02 0.921E-02 0.782E-01
   0.334E+02 0.211E-02 0.508E+03   -.311E+02 -.142E-02 -.510E+03   -.230E+01 -.598E-03 0.271E+01   -.106E-01 0.599E-04 -.782E-01
   -.167E+02 -.289E+02 0.508E+03   0.156E+02 0.269E+02 -.510E+03   0.115E+01 0.200E+01 0.271E+01   0.535E-02 0.915E-02 -.782E-01
   -.167E+02 0.289E+02 0.508E+03   0.156E+02 -.269E+02 -.510E+03   0.115E+01 -.200E+01 0.271E+01   0.525E-02 -.921E-02 -.782E-01
 -----------------------------------------------------------------------------------------------
   0.117E-09 0.291E-09 -.412E-09   -.213E-13 0.355E-14 0.000E+00   0.000E+00 0.000E+00 0.133E-14   -.464E-13 -.817E-12 0.433E-10


 POSITION                                       TOTAL-FORCE (eV/Angst)
 -----------------------------------------------------------------------------------
      3.11426      1.79802     11.54446        -0.000000     -0.000000     -0.000617
      6.22852      3.59604     11.54424        -0.000000     -0.000000      0.000617
     -0.00000     -0.00000     10.34873         0.000000      0.000000     -0.061731
     -0.00000     -0.00000     12.73998        -0.000000     -0.000000      0.061731
      3.79807     -0.00008     13.04558        -0.000489      0.000477     -0.051753
      1.21516      2.10487     13.04558         0.000658      0.000185     -0.051753
      4.32956      3.28927     13.04558        -0.000168     -0.000662     -0.051753
      2.43045      0.00008     10.04313         0.000489     -0.000477      0.051753
      1.89910      3.28918     10.04313        -0.000658     -0.000185      0.051753
      5.01322      2.10479     10.04313         0.000168      0.000662      0.051753
 -----------------------------------------------------------------------------------
    total drift:                                0.000000      0.000000     -0.000000


--------------------------------------------------------------------------------------------------------



  FREE ENERGIE OF THE ION-ELECTRON SYSTEM (eV)
  ---------------------------------------------------
  free  energy   TOTEN  =       -40.38060945 eV

  energy  without entropy=      -40.38060945  energy(sigma->0) =      -40.38060945

 d Force = 0.1181509E-03[ 0.348E-04, 0.202E-03]  d Energy =-0.7014710E-03 0.820E-03
 d Force =-0.5961956E+00[-0.596E+00,-0.596E+00]  d Ewald  = 0.3491184E+01-0.409E+01


--------------------------------------------------------------------------------------------------------


    POTLOK:  cpu time   51.1160: real time   51.8458


--------------------------------------------------------------------------------------------------------




--------------------------------------------------------------------------------------------------------


  
 reached required accuracy - stopping structural energy minimisation
     LOOP+:  cpu time  529.7600: real time  533.1810
    4ORBIT:  cpu time    0.0000: real time    0.0000



 total charge     

# of ion       s       p       d       tot
------------------------------------------
    1        0.382   0.465   7.383   8.230
    2        0.382   0.465   7.383   8.230
    3        1.159   1.150   0.090   2.399
    4        1.159   1.150   0.090   2.399
    5        1.490   2.248   0.048   3.787
    6        1.486   2.277   0.047   3.810
    7        1.490   2.252   0.048   3.790
    8        1.490   2.248   0.048   3.787
    9        1.486   2.277   0.047   3.810
   10        1.490   2.252   0.048   3.790
--------------------------------------------------
tot         12.014  16.784  15.234  44.032



 magnetization (x)

# of ion       s       p       d       tot
------------------------------------------
    1        0.000   0.000   0.000   0.000
    2        0.000   0.000   0.000   0.000
    3       -0.000  -0.000  -0.000  -0.000
    4       -0.000  -0.000  -0.000  -0.000
    5       -0.000  -0.000   0.000  -0.000
    6       -0.000  -0.000  -0.000  -0.000
    7       -0.000  -0.000   0.000  -0.000
    8       -0.000  -0.000   0.000  -0.000
    9       -0.000  -0.000  -0.000  -0.000
   10       -0.000  -0.000   0.000  -0.000
--------------------------------------------------
tot         -0.000  -0.000   0.000   0.000

 BZINTS: Fermi energy: -3.158349; 62.000000 electrons
         Band energy:-483.374457;  BLOECHL correction:  0.000000

 total amount of memory used by VASP MPI-rank0   132408. kBytes
=======================================================================

   base      :      30000. kBytes
   nonlr-proj:      12098. kBytes
   fftplans  :      11247. kBytes
   grid      :      66142. kBytes
   one-center:        311. kBytes
   wavefun   :      12610. kBytes

  
  
 General timing and accounting informations for this job:
 ========================================================
  
                  Total CPU time used (sec):    23392.889
                            User time (sec):    22892.128
                          System time (sec):      500.760
                         Elapsed time (sec):    23548.565
  
                   Maximum memory used (kb):      390540.
                   Average memory used (kb):           0.
  
                          Minor page faults:     17301698
                          Major page faults:            8
                 Voluntary context switches:         1163
