       N       E                     dE             d eps       ncg     rms          rms(c)
DAV:   1     0.407641065727E+03    0.40764E+03   -0.16596E+04   960   0.833E+02
DAV:   2     0.304674577675E+02   -0.37717E+03   -0.34553E+03  1168   0.163E+02
DAV:   3    -0.454572218366E+02   -0.75925E+02   -0.73099E+02  1376   0.790E+01
DAV:   4    -0.491838665213E+02   -0.37266E+01   -0.36448E+01  1216   0.239E+01
DAV:   5    -0.492976407182E+02   -0.11377E+00   -0.11357E+00  1344   0.400E+00    0.242E+01
DAV:   6    -0.921481009224E+02   -0.42850E+02   -0.19371E+02  1392   0.726E+01    0.580E+01
DAV:   7    -0.413344922916E+02    0.50814E+02   -0.15043E+02  1088   0.909E+01    0.161E+01
DAV:   8    -0.434465009678E+02   -0.21120E+01   -0.62173E+00  1296   0.101E+01    0.861E+00
DAV:   9    -0.446332003806E+02   -0.11867E+01   -0.13462E+00  1520   0.833E+00    0.385E+00
DAV:  10    -0.451140545366E+02   -0.48085E+00   -0.41688E-01  1424   0.468E+00    0.266E+00
DAV:  11    -0.563715968809E+02   -0.11258E+02   -0.93064E+01  1568   0.403E+00    0.165E+01
DAV:  12    -0.445900988361E+02    0.11781E+02   -0.84493E+02  1040   0.808E+01    0.351E+00
DAV:  13    -0.452645700239E+02   -0.67447E+00   -0.13147E+00  1200   0.495E+00    0.244E+00
DAV:  14    -0.454732884655E+02   -0.20872E+00   -0.11741E-01  1168   0.343E+00    0.164E+00
DAV:  15    -0.455805953230E+02   -0.10731E+00   -0.92092E-02  1360   0.175E+00    0.802E-01
DAV:  16    -0.456059985692E+02   -0.25403E-01   -0.86262E-02  1024   0.151E+00    0.440E-01
DAV:  17    -0.456148723724E+02   -0.88738E-02   -0.17335E-02  1280   0.631E-01    0.438E-01
DAV:  18    -0.456263487080E+02   -0.11476E-01   -0.82502E-02  1152   0.754E-01    0.441E-01
DAV:  19    -0.456170715453E+02    0.92772E-02   -0.32817E-01  1088   0.228E+00    0.389E-01
DAV:  20    -0.456201479283E+02   -0.30764E-02   -0.13647E-02  1200   0.517E-01    0.377E-01
DAV:  21    -0.456247750777E+02   -0.46271E-02   -0.84579E-03  1088   0.509E-01    0.340E-01
DAV:  22    -0.456219706452E+02    0.28044E-02   -0.62209E-03   992   0.423E-01    0.316E-01
DAV:  23    -0.456258027401E+02   -0.38321E-02   -0.26765E-03  1024   0.312E-01    0.313E-01
DAV:  24    -0.456234016094E+02    0.24011E-02   -0.18539E-03   992   0.248E-01    0.315E-01
DAV:  25    -0.456246271155E+02   -0.12255E-02   -0.56129E-04   992   0.138E-01    0.313E-01
DAV:  26    -0.456252312701E+02   -0.60415E-03   -0.38152E-04   960   0.115E-01    0.314E-01
DAV:  27    -0.456250604047E+02    0.17087E-03   -0.24783E-04   960   0.893E-02    0.314E-01
DAV:  28    -0.456254822752E+02   -0.42187E-03   -0.14668E-04   912   0.656E-02    0.316E-01
DAV:  29    -0.456253673125E+02    0.11496E-03   -0.18691E-04   832   0.705E-02    0.316E-01
DAV:  30    -0.456255463426E+02   -0.17903E-03   -0.20662E-04   912   0.689E-02    0.317E-01
DAV:  31    -0.456245664157E+02    0.97993E-03   -0.15863E-04   816   0.585E-02    0.317E-01
DAV:  32    -0.456244973245E+02    0.69091E-04   -0.57367E-05   848   0.399E-02
   1 F= -.45624497E+02 E0= -.45624497E+02  d E =-.456245E+02  mag=     5.4626
       N       E                     dE             d eps       ncg     rms          rms(c)
DAV:   1    -0.589242096030E+02   -0.13300E+02   -0.33462E+02  1200   0.102E+02    0.199E+01
DAV:   2    -0.518781171699E+02    0.70461E+01   -0.25651E+01  1360   0.390E+01    0.124E+01
DAV:   3    -0.508654514344E+02    0.10127E+01   -0.25200E+01  1424   0.576E+01    0.121E+01
DAV:   4    -0.480124556665E+02    0.28530E+01   -0.13030E+01  1440   0.225E+01    0.261E+00
DAV:   5    -0.480090672723E+02    0.33884E-02   -0.62164E-01  1440   0.370E+00    0.103E+00
DAV:   6    -0.480247994557E+02   -0.15732E-01   -0.14720E-01  1456   0.329E+00    0.898E-01
DAV:   7    -0.480159685456E+02    0.88309E-02   -0.78860E-02  1376   0.323E+00    0.559E-01
DAV:   8    -0.480146694417E+02    0.12991E-02   -0.15275E-02  1472   0.133E+00    0.194E-01
DAV:   9    -0.480174272977E+02   -0.27579E-02   -0.48265E-03  1056   0.347E-01    0.102E-01
DAV:  10    -0.480178475569E+02   -0.42026E-03   -0.23000E-03   992   0.245E-01    0.801E-02
DAV:  11    -0.480181294435E+02   -0.28189E-03   -0.21309E-03   992   0.198E-01    0.589E-02
DAV:  12    -0.480174701307E+02    0.65931E-03   -0.31944E-03  1056   0.165E-01    0.632E-02
DAV:  13    -0.480158916186E+02    0.15785E-02   -0.21367E-03  1040   0.129E-01    0.442E-02
DAV:  14    -0.480141140517E+02    0.17776E-02   -0.61457E-04  1024   0.792E-02    0.448E-02
DAV:  15    -0.480130496226E+02    0.10644E-02   -0.10814E-04   864   0.488E-02    0.319E-02
DAV:  16    -0.480117180724E+02    0.13316E-02   -0.77194E-05   832   0.491E-02    0.275E-02
DAV:  17    -0.480099305651E+02    0.17875E-02   -0.16960E-04   848   0.683E-02    0.207E-02
DAV:  18    -0.480095052722E+02    0.42529E-03   -0.27657E-04   944   0.616E-02    0.139E-02
DAV:  19    -0.480095725189E+02   -0.67247E-04   -0.33464E-04  1008   0.766E-02
   2 F= -.48009573E+02 E0= -.48009573E+02  d E =-.238508E+01  mag=     5.3594
       N       E                     dE             d eps       ncg     rms          rms(c)
DAV:   1    -0.482896861052E+02   -0.28018E+00   -0.59954E+00  1344   0.138E+01    0.256E+00
DAV:   2    -0.481762193082E+02    0.11347E+00   -0.49837E-01  1312   0.673E+00    0.179E+00
DAV:   3    -0.481350970117E+02    0.41122E-01   -0.27668E-01  1360   0.545E+00    0.134E+00
DAV:   4    -0.480968216907E+02    0.38275E-01   -0.13726E-01  1296   0.350E+00    0.275E-01
DAV:   5    -0.480952321467E+02    0.15895E-02   -0.83764E-03  1328   0.774E-01    0.923E-02
DAV:   6    -0.480949489395E+02    0.28321E-03   -0.74164E-04  1136   0.116E-01    0.548E-02
DAV:   7    -0.480949362476E+02    0.12692E-04   -0.27764E-04   976   0.171E-01
   3 F= -.48094936E+02 E0= -.48094936E+02  d E =-.247044E+01  mag=     5.3827
       N       E                     dE             d eps       ncg     rms          rms(c)
DAV:   1    -0.481138427020E+02   -0.18894E-01   -0.12084E+00   976   0.353E+00    0.307E-01
DAV:   2    -0.481194108458E+02   -0.55681E-02   -0.80407E-02  1056   0.122E+00    0.221E-01
DAV:   3    -0.481190856360E+02    0.32521E-03   -0.57444E-03  1328   0.740E-01    0.181E-01
DAV:   4    -0.481182184330E+02    0.86720E-03   -0.16383E-03  1392   0.425E-01    0.751E-02
DAV:   5    -0.481180617536E+02    0.15668E-03   -0.10391E-03  1328   0.306E-01    0.880E-02
DAV:   6    -0.481179189249E+02    0.14283E-03   -0.44650E-04   944   0.262E-01    0.252E-02
DAV:   7    -0.481178451768E+02    0.73748E-04   -0.50259E-05   672   0.591E-02
   4 F= -.48117845E+02 E0= -.48117845E+02  d E =-.229089E-01  mag=     5.3919
       N       E                     dE             d eps       ncg     rms          rms(c)
DAV:   1    -0.481177697831E+02    0.14914E-03   -0.41637E-01   960   0.207E+00    0.176E-01
DAV:   2    -0.481196024274E+02   -0.18326E-02   -0.27545E-02  1088   0.693E-01    0.123E-01
DAV:   3    -0.481194890136E+02    0.11341E-03   -0.17976E-03  1312   0.401E-01    0.102E-01
DAV:   4    -0.481191724152E+02    0.31660E-03   -0.45991E-04  1040   0.226E-01    0.412E-02
DAV:   5    -0.481190462625E+02    0.12615E-03   -0.32771E-04  1024   0.814E-02    0.169E-02
DAV:   6    -0.481189781652E+02    0.68097E-04   -0.41161E-05   688   0.683E-02
   5 F= -.48118978E+02 E0= -.48118978E+02  d E =-.240419E-01  mag=     5.3936
       N       E                     dE             d eps       ncg     rms          rms(c)
DAV:   1    -0.481223009193E+02   -0.32547E-02   -0.43337E-01   992   0.218E+00    0.223E-01
DAV:   2    -0.481233486070E+02   -0.10477E-02   -0.26004E-02  1040   0.610E-01    0.126E-01
DAV:   3    -0.481230198948E+02    0.32871E-03   -0.14542E-03  1328   0.334E-01    0.106E-01
DAV:   4    -0.481228383531E+02    0.18154E-03   -0.11234E-03  1296   0.380E-01    0.782E-02
DAV:   5    -0.481228178437E+02    0.20509E-04   -0.46614E-04   976   0.240E-01
   6 F= -.48122818E+02 E0= -.48122818E+02  d E =-.383968E-02  mag=     5.3878
       N       E                     dE             d eps       ncg     rms          rms(c)
DAV:   1    -0.481228679611E+02   -0.29608E-04   -0.54695E-02  1088   0.801E-01    0.830E-02
DAV:   2    -0.481229707123E+02   -0.10275E-03   -0.33578E-03  1056   0.238E-01    0.522E-02
DAV:   3    -0.481229163567E+02    0.54356E-04   -0.30917E-04   912   0.194E-01
   7 F= -.48122916E+02 E0= -.48122916E+02  d E =-.393819E-02  mag=     5.3841
       N       E                     dE             d eps       ncg     rms          rms(c)
DAV:   1    -0.481289742960E+02   -0.60036E-02   -0.20046E-01  1104   0.206E+00    0.368E-01
DAV:   2    -0.481262676956E+02    0.27066E-02   -0.16580E-02  1216   0.113E+00    0.309E-01
DAV:   3    -0.481243506283E+02    0.19171E-02   -0.76530E-03  1328   0.974E-01    0.194E-01
DAV:   4    -0.481228214775E+02    0.15292E-02   -0.35117E-03  1232   0.501E-01    0.590E-02
DAV:   5    -0.481227585327E+02    0.62945E-04   -0.58405E-04  1120   0.274E-01
   8 F= -.48122759E+02 E0= -.48122759E+02  d E =0.157824E-03  mag=     5.3749
       N       E                     dE             d eps       ncg     rms          rms(c)
DAV:   1    -0.481228900117E+02   -0.68534E-04   -0.58335E-03  1104   0.417E-01    0.648E-02
DAV:   2    -0.481228361450E+02    0.53867E-04   -0.59120E-04  1088   0.226E-01
   9 F= -.48122836E+02 E0= -.48122836E+02  d E =0.802118E-04  mag=     5.3724
