 vasp.5.4.4.18Apr17-6-g9f103f2a35 (build May  1 2020 15:48:39) complex           
 executed on             LinuxGNU date 2020.06.16  13:38:20
 running on   16 total cores
 distrk:  each k-point on   16 cores,    1 groups
 distr:  one band on NCORES_PER_BAND=   1 cores,   16 groups


--------------------------------------------------------------------------------------------------------


 INCAR:
 POTCAR:   PAW_PBE Cr 06Sep2000                   
 POTCAR:   PAW_PBE Ge 05Jan2001                   
 POTCAR:    PAW_PBE P 17Jan2003                   
 POTCAR:   PAW_PBE Se 06Sep2000                   

 ----------------------------------------------------------------------------- 
|                                                                             |
|           W    W    AA    RRRRR   N    N  II  N    N   GGGG   !!!           |
|           W    W   A  A   R    R  NN   N  II  NN   N  G    G  !!!           |
|           W    W  A    A  R    R  N N  N  II  N N  N  G       !!!           |
|           W WW W  AAAAAA  RRRRR   N  N N  II  N  N N  G  GGG   !            |
|           WW  WW  A    A  R   R   N   NN  II  N   NN  G    G                |
|           W    W  A    A  R    R  N    N  II  N    N   GGGG   !!!           |
|                                                                             |
|      For optimal performance we recommend to set                            |
|        NCORE= 4 - approx SQRT( number of cores)                             |
|      NCORE specifies how many cores store one orbital (NPAR=cpu/NCORE).     |
|      This setting can  greatly improve the performance of VASP for DFT.     |
|      The default,   NCORE=1            might be grossly inefficient         |
|      on modern multi-core architectures or massively parallel machines.     |
|      Do your own testing !!!!                                               |
|      Unfortunately you need to use the default for GW and RPA calculations. |
|      (for HF NCORE is supported but not extensively tested yet)             |
|                                                                             |
 ----------------------------------------------------------------------------- 


 ----------------------------------------------------------------------------- 
|                                                                             |
|  ADVICE TO THIS USER RUNNING 'VASP/VAMP'   (HEAR YOUR MASTER'S VOICE ...):  |
|                                                                             |
|      You have switched on vdW-DFT.                                          |
|      This routine was written and supplied by Jiri Klimes.                  |
|      We recommed that you carefully read and cite the following             |
|      publication                                                            |
|      J. Klimes, D.R. Bowler, A. Michelides                                  |
|        J. Phys.: Cond Matt. 22 022201 (2010)                                |
|      J. Klimes, D.R. Bowler, A. Michelides                                  |
|        Phys. Rev. B. 83, 195131 (2011)                                      |
|      and references therein.                                                |
|                                                                             |
 ----------------------------------------------------------------------------- 

 POTCAR:   PAW_PBE Cr 06Sep2000                   
   VRHFIN =Cr : d5 s1                                                           
   LEXCH  = PE                                                                  
   EATOM  =   276.9744 eV,   20.3570 Ry                                         
                                                                                
   TITEL  = PAW_PBE Cr 06Sep2000                                                
   LULTRA =        F    use ultrasoft PP ?                                      
   IUNSCR =        1    unscreen: 0-lin 1-nonlin 2-no                           
   RPACOR =    2.080    partial core radius                                     
   POMASS =   51.996; ZVAL   =    6.000    mass and valenz                      
   RCORE  =    2.500    outmost cutoff radius                                   
   RWIGS  =    2.500; RWIGS  =    1.323    wigner-seitz radius (au A)           
   ENMAX  =  227.082; ENMIN  =  170.311 eV                                      
   RCLOC  =    1.721    cutoff for local pot                                    
   LCOR   =        T    correct aug charges                                     
   LPAW   =        T    paw PP                                                  
   EAUG   =  402.108                                                            
   DEXC   =    -.035                                                            
   RMAX   =    3.060    core radius for proj-oper                               
   RAUG   =    1.300    factor for augmentation sphere                          
   RDEP   =    2.609    radius for radial grids                                 
   QCUT   =   -4.085; QGAM   =    8.171    optimization parameters              
                                                                                
   Description                                                                  
     l     E      TYP  RCUT    TYP  RCUT                                        
     2   .000     23  2.500                                                     
     2   .000     23  2.500                                                     
     0   .000     23  2.500                                                     
     0   .000     23  2.500                                                     
     1  -.400     23  2.500                                                     
     1  2.000     23  2.500                                                     
     3   .000      7   .000                                                     
  local pseudopotential read in
  partial core-charges read in
  atomic valenz-charges read in
  non local Contribution for L=           2  read in
    real space projection operators read in
  non local Contribution for L=           2  read in
    real space projection operators read in
  non local Contribution for L=           0  read in
    real space projection operators read in
  non local Contribution for L=           0  read in
    real space projection operators read in
  non local Contribution for L=           1  read in
    real space projection operators read in
  non local Contribution for L=           1  read in
    real space projection operators read in
    PAW grid and wavefunctions read in

   number of l-projection  operators is LMAX  =           6
   number of lm-projection operators is LMMAX =          18

 POTCAR:   PAW_PBE Ge 05Jan2001                   
   VRHFIN =Ge: s2p2                                                             
   LEXCH  = PE                                                                  
   EATOM  =   104.9960 eV,    7.7170 Ry                                         
                                                                                
   TITEL  = PAW_PBE Ge 05Jan2001                                                
   LULTRA =        F    use ultrasoft PP ?                                      
   IUNSCR =        1    unscreen: 0-lin 1-nonlin 2-no                           
   RPACOR =    2.170    partial core radius                                     
   POMASS =   72.610; ZVAL   =    4.000    mass and valenz                      
   RCORE  =    2.300    outmost cutoff radius                                   
   RWIGS  =    2.300; RWIGS  =    1.217    wigner-seitz radius (au A)           
   ENMAX  =  173.807; ENMIN  =  130.355 eV                                      
   ICORE  =        3    local potential                                         
   LCOR   =        T    correct aug charges                                     
   LPAW   =        T    paw PP                                                  
   EAUG   =  385.843                                                            
   DEXC   =    -.138                                                            
   RMAX   =    3.497    core radius for proj-oper                               
   RAUG   =    1.300    factor for augmentation sphere                          
   RDEP   =    2.318    radius for radial grids                                 
   QCUT   =   -3.574; QGAM   =    7.148    optimization parameters              
                                                                                
   Description                                                                  
     l     E      TYP  RCUT    TYP  RCUT                                        
     0   .000     23  2.300                                                     
     0   .000     23  2.300                                                     
     1   .000     23  2.300                                                     
     1   .000     23  2.300                                                     
     2   .000     23  2.300                                                     
     3  -.100      7  2.300                                                     
  local pseudopotential read in
  partial core-charges read in
  atomic valenz-charges read in
  non local Contribution for L=           0  read in
    real space projection operators read in
  non local Contribution for L=           0  read in
    real space projection operators read in
  non local Contribution for L=           1  read in
    real space projection operators read in
  non local Contribution for L=           1  read in
    real space projection operators read in
  non local Contribution for L=           2  read in
    real space projection operators read in
    PAW grid and wavefunctions read in

   number of l-projection  operators is LMAX  =           5
   number of lm-projection operators is LMMAX =          13

 POTCAR:    PAW_PBE P 17Jan2003                   
   VRHFIN =P : s2p3                                                             
   LEXCH  = PE                                                                  
   EATOM  =   176.0430 eV,   12.9388 Ry                                         
                                                                                
   TITEL  = PAW_PBE P 17Jan2003                                                 
   LULTRA =        F    use ultrasoft PP ?                                      
   IUNSCR =        1    unscreen: 0-lin 1-nonlin 2-no                           
   RPACOR =    1.500    partial core radius                                     
   POMASS =   30.974; ZVAL   =    5.000    mass and valenz                      
   RCORE  =    1.900    outmost cutoff radius                                   
   RWIGS  =    2.330; RWIGS  =    1.233    wigner-seitz radius (au A)           
   ENMAX  =  270.000; ENMIN  =  191.280 eV                                      
   ICORE  =        2    local potential                                         
   LCOR   =        T    correct aug charges                                     
   LPAW   =        T    paw PP                                                  
   EAUG   =  342.924                                                            
   DEXC   =    -.002                                                            
   RMAX   =    2.887    core radius for proj-oper                               
   RAUG   =    1.300    factor for augmentation sphere                          
   RDEP   =    1.931    radius for radial grids                                 
   QCUT   =   -4.330; QGAM   =    8.659    optimization parameters              
                                                                                
   Description                                                                  
     l     E      TYP  RCUT    TYP  RCUT                                        
     0   .000     23  1.900                                                     
     0   .000     23  1.900                                                     
     1   .000     23  1.900                                                     
     1   .000     23  1.900                                                     
     2   .000     23  1.900                                                     
  local pseudopotential read in
  partial core-charges read in
  atomic valenz-charges read in
  non local Contribution for L=           0  read in
    real space projection operators read in
  non local Contribution for L=           0  read in
    real space projection operators read in
  non local Contribution for L=           1  read in
    real space projection operators read in
  non local Contribution for L=           1  read in
    real space projection operators read in
    PAW grid and wavefunctions read in

   number of l-projection  operators is LMAX  =           4
   number of lm-projection operators is LMMAX =           8

 POTCAR:   PAW_PBE Se 06Sep2000                   
   VRHFIN =Se: s2p4                                                             
   LEXCH  = PE                                                                  
   EATOM  =   256.9644 eV,   18.8864 Ry                                         
                                                                                
   TITEL  = PAW_PBE Se 06Sep2000                                                
   LULTRA =        F    use ultrasoft PP ?                                      
   IUNSCR =        1    unscreen: 0-lin 1-nonlin 2-no                           
   RPACOR =    1.900    partial core radius                                     
   POMASS =   78.960; ZVAL   =    6.000    mass and valenz                      
   RCORE  =    2.100    outmost cutoff radius                                   
   RWIGS  =    2.200; RWIGS  =    1.164    wigner-seitz radius (au A)           
   ENMAX  =  211.534; ENMIN  =  158.651 eV                                      
   ICORE  =        3    local potential                                         
   LCOR   =        T    correct aug charges                                     
   LPAW   =        T    paw PP                                                  
   EAUG   =  446.842                                                            
   DEXC   =    -.031                                                            
   RMAX   =    3.170    core radius for proj-oper                               
   RAUG   =    1.300    factor for augmentation sphere                          
   RDEP   =    2.177    radius for radial grids                                 
   QCUT   =   -3.943; QGAM   =    7.886    optimization parameters              
                                                                                
   Description                                                                  
     l     E      TYP  RCUT    TYP  RCUT                                        
     0   .000     23  2.100                                                     
     0   .000     23  2.100                                                     
     1   .000     23  2.100                                                     
     1   .000     23  2.100                                                     
     2   .000     23  2.100                                                     
     3  -.100      7  2.100                                                     
  local pseudopotential read in
  partial core-charges read in
  atomic valenz-charges read in
  non local Contribution for L=           0  read in
    real space projection operators read in
  non local Contribution for L=           0  read in
    real space projection operators read in
  non local Contribution for L=           1  read in
    real space projection operators read in
  non local Contribution for L=           1  read in
    real space projection operators read in
  non local Contribution for L=           2  read in
    real space projection operators read in
    PAW grid and wavefunctions read in

   number of l-projection  operators is LMAX  =           5
   number of lm-projection operators is LMMAX =          13

 Optimization of the real space projectors (new method)

 maximal supplied QI-value         = 15.12
 optimisation between [QCUT,QGAM] = [ 11.64, 23.28] = [ 37.95,151.78] Ry 
 Optimized for a Real-space Cutoff    1.49 Angstroem

   l    n(q)    QCUT    max X(q) W(low)/X(q) W(high)/X(q)  e(spline) 
   2      9    11.641     4.777    0.25E-04    0.21E-05    0.63E-07
   2      9    11.641    31.132    0.13E-03    0.22E-03    0.64E-06
   0     10    11.641    20.416    0.11E-04    0.74E-05    0.19E-07
   0     10    11.641    45.408    0.10E-03    0.85E-04    0.30E-06
   1     10    11.641     7.848    0.22E-04    0.23E-04    0.56E-07
   1     10    11.641     9.895    0.85E-04    0.54E-04    0.16E-06
 Optimization of the real space projectors (new method)

 maximal supplied QI-value         = 16.25
 optimisation between [QCUT,QGAM] = [ 11.54, 23.24] = [ 37.28,151.24] Ry 
 Optimized for a Real-space Cutoff    1.28 Angstroem

   l    n(q)    QCUT    max X(q) W(low)/X(q) W(high)/X(q)  e(spline) 
   0      9    11.539     8.651    0.22E-04    0.16E-04    0.10E-07
   0      9    11.539    33.192    0.11E-03    0.16E-03    0.65E-07
   1      8    11.539     5.899    0.37E-04    0.28E-04    0.43E-07
   1      8    11.539    27.289    0.22E-03    0.28E-04    0.14E-06
   2      8    11.539     4.673    0.11E-03    0.18E-03    0.58E-07
 Optimization of the real space projectors (new method)

 maximal supplied QI-value         = 19.84
 optimisation between [QCUT,QGAM] = [ 11.51, 23.22] = [ 37.09,150.92] Ry 
 Optimized for a Real-space Cutoff    1.21 Angstroem

   l    n(q)    QCUT    max X(q) W(low)/X(q) W(high)/X(q)  e(spline) 
   0      8    11.508     6.651    0.19E-04    0.31E-05    0.49E-08
   0      8    11.508    90.285    0.95E-04    0.17E-03    0.51E-07
   1      8    11.508     4.328    0.14E-04    0.32E-04    0.22E-07
   1      8    11.508    54.583    0.16E-03    0.71E-04    0.89E-07
 Optimization of the real space projectors (new method)

 maximal supplied QI-value         = 17.95
 optimisation between [QCUT,QGAM] = [ 11.67, 23.34] = [ 38.13,152.52] Ry 
 Optimized for a Real-space Cutoff    1.25 Angstroem

   l    n(q)    QCUT    max X(q) W(low)/X(q) W(high)/X(q)  e(spline) 
   0      9    11.669     6.499    0.13E-04    0.81E-05    0.11E-07
   0      9    11.669    52.623    0.18E-03    0.46E-04    0.72E-07
   1      8    11.669     4.229    0.40E-04    0.45E-04    0.31E-07
   1      8    11.669    29.991    0.22E-03    0.36E-03    0.10E-06
   2      8    11.669     3.719    0.19E-03    0.46E-04    0.50E-07

 ----------------------------------------------------------------------------- 
|                                                                             |
|  ADVICE TO THIS USER RUNNING 'VASP/VAMP'   (HEAR YOUR MASTER'S VOICE ...):  |
|                                                                             |
|      You enforced a specific xc-type in the INCAR file,                     |
|      a different type was found on the POTCAR file                          |
|          I HOPE YOU KNOW, WHAT YOU ARE  DOING                               |
|                                                                             |
 ----------------------------------------------------------------------------- 

 PAW_PBE Cr 06Sep2000                   :
 energy of atom  1       EATOM= -276.9744
 kinetic energy error for atom=    0.0010 (will be added to EATOM!!)
 PAW_PBE Ge 05Jan2001                   :
 energy of atom  2       EATOM= -104.9960
 kinetic energy error for atom=    0.0002 (will be added to EATOM!!)
  PAW_PBE P 17Jan2003                   :
 energy of atom  3       EATOM= -176.0430
 kinetic energy error for atom=    0.0011 (will be added to EATOM!!)
 PAW_PBE Se 06Sep2000                   :
 energy of atom  4       EATOM= -256.9644
 kinetic energy error for atom=    0.0007 (will be added to EATOM!!)


 POSCAR: Cr2 Ge P Se6                            
  positions in direct lattice
  velocities in cartesian coordinates
  No initial velocities read in
 exchange correlation table for  LEXCH =       42
   RHO(1)=    0.500       N(1)  =     2000
   RHO(2)=  100.500       N(2)  =     4000



--------------------------------------------------------------------------------------------------------


 ion  position               nearest neighbor table
   1  0.333  0.333  0.500-   6 2.78   5 2.78   7 2.78   8 2.78  10 2.78   9 2.78
   2  0.667  0.667  0.500-   9 2.78   8 2.78  10 2.78   5 2.78   7 2.78   6 2.78
   3  0.000  0.000  0.448-   4 2.43   8 2.63  10 2.63   9 2.63
   4  0.000  0.000  0.552-   3 2.43   5 2.63   7 2.63   6 2.63
   5  0.626  0.000  0.574-   4 2.63   1 2.78   2 2.78
   6  0.000  0.373  0.574-   4 2.63   1 2.78   2 2.78
   7  0.373  0.626  0.574-   4 2.63   1 2.78   2 2.78
   8  0.374  1.000  0.426-   3 2.63   2 2.78   1 2.78
   9  1.000  0.627  0.426-   3 2.63   2 2.78   1 2.78
  10  0.627  0.374  0.426-   3 2.63   2 2.78   1 2.78

  LATTYP: Found a hexagonal cell.
 ALAT       =     6.9077769333
 C/A-ratio  =     3.3939410937
  
  Lattice vectors:
  
 A1 = (   3.4538890000,  -5.9823100000,   0.0000000000)
 A2 = (  -6.9077770000,   0.0000000000,   0.0000000000)
 A3 = (   0.0000000000,   0.0000000000, -23.4445880000)


Analysis of symmetry for initial positions (statically):
=====================================================================
 Subroutine PRICEL returns:
 Original cell was already a primitive cell.
 

 Routine SETGRP: Setting up the symmetry group for a 
 hexagonal supercell.


 Subroutine GETGRP returns: Found  3 space group operations
 (whereof  3 operations were pure point group operations)
 out of a pool of 24 trial point group operations.


The static configuration has the point symmetry C_3 .


Analysis of symmetry for dynamics (positions and initial velocities):
=====================================================================
 Subroutine PRICEL returns:
 Original cell was already a primitive cell.
 

 Routine SETGRP: Setting up the symmetry group for a 
 hexagonal supercell.


 Subroutine GETGRP returns: Found  3 space group operations
 (whereof  3 operations were pure point group operations)
 out of a pool of 24 trial point group operations.


The dynamic configuration has the point symmetry C_3 .


Analysis of constrained symmetry for selective dynamics:
=====================================================================
 Subroutine PRICEL returns:
 Original cell was already a primitive cell.
 

 Routine SETGRP: Setting up the symmetry group for a 
 hexagonal supercell.


 Subroutine GETGRP returns: Found  3 space group operations
 (whereof  3 operations were pure point group operations)
 out of a pool of 24 trial point group operations.


The constrained configuration has the point symmetry C_3 .


Analysis of structural, dynamic, and magnetic symmetry:
=====================================================================
 Subroutine PRICEL returns:
 Original cell was already a primitive cell.
 

 Routine SETGRP: Setting up the symmetry group for a 
 hexagonal supercell.


 Subroutine GETGRP returns: Found  3 space group operations
 (whereof  3 operations were pure point group operations)
 out of a pool of 24 trial point group operations.


The magnetic configuration has the point symmetry C_3 .


 Subroutine INISYM returns: Found  3 space group operations
 (whereof  3 operations are pure point group operations),
 and found     1 'primitive' translations



 KPOINTS: Kpoints from vasprun.xml                

Automatic generation of k-mesh.
Space group operators:
 irot       det(A)        alpha          n_x          n_y          n_z        tau_x        tau_y        tau_z
    1     1.000000     0.000000     1.000000     0.000000     0.000000     0.000000     0.000000     0.000000
    2     1.000000   120.000000     0.000000     0.000000     1.000000     0.000000     0.000000     0.000000
    3     1.000000   120.000000     0.000000     0.000000    -1.000000     0.000000     0.000000     0.000000
 
 Subroutine IBZKPT returns following result:
 ===========================================
 
 Found      5 irreducible k-points:
 
 Following reciprocal coordinates:
            Coordinates               Weight
  0.000000  0.000000  0.000000      1.000000
  0.200000  0.000000  0.000000      6.000000
  0.400000  0.000000  0.000000      6.000000
  0.400000  0.200000  0.000000      6.000000
 -0.400000  0.200000  0.000000      6.000000
 
 Following cartesian coordinates:
            Coordinates               Weight
  0.000000  0.000000  0.000000      1.000000
  0.028953 -0.016716  0.000000      6.000000
  0.057906 -0.033432  0.000000      6.000000
  0.057906  0.000000  0.000000      6.000000
 -0.057906  0.066864  0.000000      6.000000
 
 TETIRR: Found     15 inequivalent tetrahedra from      150


--------------------------------------------------------------------------------------------------------




 Dimension of arrays:
   k-points           NKPTS =      5   k-points in BZ     NKDIM =      5   number of bands    NBANDS=     48
   number of dos      NEDOS =    301   number of ions     NIONS =     10
   non local maximal  LDIM  =      6   non local SUM 2l+1 LMDIM =     18
   total plane-waves  NPLWV = 524880
   max r-space proj   IRMAX =   7543   max aug-charges    IRDMAX=  29641
   dimension x,y,z NGX =    54 NGY =   54 NGZ =  180
   dimension x,y,z NGXF=   108 NGYF=  108 NGZF=  360
   support grid    NGXF=   108 NGYF=  108 NGZF=  360
   ions per type =               2   1   1   6
   NGX,Y,Z   is equivalent  to a cutoff of  13.00, 13.00, 12.76 a.u.
   NGXF,Y,Z  is equivalent  to a cutoff of  25.99, 25.99, 25.53 a.u.

 SYSTEM =  unknown system                          
 POSCAR =  Cr2 Ge P Se6                            

 Startparameter for this run:
   NWRITE =      2    write-flag & timer
   PREC   = accura    normal or accurate (medium, high low for compatibility)
   ISTART =      0    job   : 0-new  1-cont  2-samecut
   ICHARG =      2    charge: 1-file 2-atom 10-const
   ISPIN  =      2    spin polarized calculation?
   LNONCOLLINEAR =      F non collinear calculations
   LSORBIT =      F    spin-orbit coupling
   INIWAV =      1    electr: 0-lowe 1-rand  2-diag
   LASPH  =      F    aspherical Exc in radial PAW
   METAGGA=      F    non-selfconsistent MetaGGA calc.

 Electronic Relaxation 1
   ENCUT  =  520.0 eV  38.22 Ry    6.18 a.u.  12.84 12.84 43.59*2*pi/ulx,y,z
   ENINI  =  520.0     initial cutoff
   ENAUG  =  446.8 eV  augmentation charge cutoff
   NELM   =    400;   NELMIN=  2; NELMDL=  0     # of ELM steps 
   EDIFF  = 0.1E-03   stopping-criterion for ELM
   LREAL  =      T    real-space projection
   NLSPLINE    = F    spline interpolate recip. space projectors
   LCOMPAT=      F    compatible to vasp.4.4
   GGA_COMPAT  = T    GGA compatible to vasp.4.4-vasp.4.6
   LMAXPAW     = -100 max onsite density
   LMAXMIX     =    2 max onsite mixed and CHGCAR
   VOSKOWN=      0    Vosko Wilk Nusair interpolation
   ROPT   =   -0.00025  -0.00025  -0.00025  -0.00025
 Ionic relaxation
   EDIFFG = 0.1E-02   stopping-criterion for IOM
   NSW    =     99    number of steps for IOM
   NBLOCK =      1;   KBLOCK =     99    inner block; outer block 
   IBRION =      2    ionic relax: 0-MD 1-quasi-New 2-CG
   NFREE  =      1    steps in history (QN), initial steepest desc. (CG)
   ISIF   =      3    stress and relaxation
   IWAVPR =     11    prediction:  0-non 1-charg 2-wave 3-comb
   ISYM   =      2    0-nonsym 1-usesym 2-fastsym
   LCORR  =      T    Harris-Foulkes like correction to forces

   POTIM  = 0.5000    time-step for ionic-motion
   TEIN   =    0.0    initial temperature
   TEBEG  =    0.0;   TEEND  =   0.0 temperature during run
   SMASS  =  -3.00    Nose mass-parameter (am)
   estimated Nose-frequenzy (Omega)   =  0.10E-29 period in steps =****** mass=  -0.109E-26a.u.
   SCALEE = 1.0000    scale energy and forces
   NPACO  =    256;   APACO  = 16.0  distance and # of slots for P.C.
   PSTRESS=    0.0 pullay stress

  Mass of Ions in am
   POMASS =  52.00 72.61 30.97 78.96
  Ionic Valenz
   ZVAL   =   6.00  4.00  5.00  6.00
  Atomic Wigner-Seitz radii
   RWIGS  =  -1.00 -1.00 -1.00 -1.00
  virtual crystal weights 
   VCA    =   1.00  1.00  1.00  1.00
   NELECT =      57.0000    total number of electrons
   NUPDOWN=      -1.0000    fix difference up-down

 DOS related values:
   EMIN   =  10.00;   EMAX   =-10.00  energy-range for DOS
   EFERMI =   0.00
   ISMEAR =    -5;   SIGMA  =   0.05  broadening in eV -4-tet -1-fermi 0-gaus

 Electronic relaxation 2 (details)
   IALGO  =     38    algorithm
   LDIAG  =      T    sub-space diagonalisation (order eigenvalues)
   LSUBROT=      F    optimize rotation matrix (better conditioning)
   TURBO    =      0    0=normal 1=particle mesh
   IRESTART =      0    0=no restart 2=restart with 2 vectors
   NREBOOT  =      0    no. of reboots
   NMIN     =      0    reboot dimension
   EREF     =   0.00    reference energy to select bands
   IMIX   =      4    mixing-type and parameters
     AMIX     =   0.40;   BMIX     =  1.00
     AMIX_MAG =   1.60;   BMIX_MAG =  1.00
     AMIN     =   0.01
     WC   =   100.;   INIMIX=   1;  MIXPRE=   1;  MAXMIX= -45

 Intra band minimization:
   WEIMIN = 0.0010     energy-eigenvalue tresh-hold
   EBREAK =  0.52E-06  absolut break condition
   DEPER  =   0.30     relativ break condition  

   TIME   =   0.40     timestep for ELM

  volume/ion in A,a.u.               =      96.88       653.80
  Fermi-wavevector in a.u.,A,eV,Ry     =   0.636722  1.203230  5.516004  0.405415
  Thomas-Fermi vector in A             =   1.701488

 Write flags
   LWAVE        =      F    write WAVECAR
   LDOWNSAMPLE  =      F    k-point downsampling of WAVECAR
   LCHARG       =      T    write CHGCAR
   LVTOT        =      F    write LOCPOT, total local potential
   LVHAR        =      F    write LOCPOT, Hartree potential only
   LELF         =      F    write electronic localiz. function (ELF)
   LORBIT       =     11    0 simple, 1 ext, 2 COOP (PROOUT), +10 PAW based schemes


 Dipole corrections
   LMONO  =      F    monopole corrections only (constant potential shift)
   LDIPOL =      F    correct potential (dipole corrections)
   IDIPOL =      0    1-x, 2-y, 3-z, 4-all directions 
   EPSILON=  1.0000000 bulk dielectric constant

 Exchange correlation treatment:
   GGA     =    BO    GGA type
   LEXCH   =    42    internal setting for exchange type
   VOSKOWN=      0    Vosko Wilk Nusair interpolation
   LHFCALC =     F    Hartree Fock is set to
   LHFONE  =     F    Hartree Fock one center treatment
   AEXX    =    0.0000 exact exchange contribution

 vdW DFT:
   LUSE_VDW   =     T    switch on vdW DFT
   Zab_VDW    =-.8491    correlation parameter
   PARAM1     =0.1833
   PARAM2     =0.2200
   PARAM3     =0.0000
   -- rVV10 --
   BPARAM     = 6.3000
   CPARAM     = 0.0093

 Linear response parameters
   LEPSILON=     F    determine dielectric tensor
   LRPA    =     F    only Hartree local field effects (RPA)
   LNABLA  =     F    use nabla operator in PAW spheres
   LVEL    =     F    velocity operator in full k-point grid
   LINTERFAST=   F  fast interpolation
   KINTER  =     0    interpolate to denser k-point grid
   CSHIFT  =0.1000    complex shift for real part using Kramers Kronig
   OMEGAMAX=  -1.0    maximum frequency
   DEG_THRESHOLD= 0.2000000E-02 threshold for treating states as degnerate
   RTIME   =   -0.100 relaxation time in fs
  (WPLASMAI=    0.000 imaginary part of plasma frequency in eV, 0.658/RTIME)
   DFIELD  = 0.0000000 0.0000000 0.0000000 field for delta impulse in time

 Orbital magnetization related:
   ORBITALMAG=     F  switch on orbital magnetization
   LCHIMAG   =     F  perturbation theory with respect to B field
   DQ        =  0.001000  dq finite difference perturbation B field
   LLRAUG    =     F  two centre corrections for induced B field



--------------------------------------------------------------------------------------------------------


 conjugate gradient relaxation of ions
   using selective dynamics as specified on POSCAR
 charge density and potential will be updated during run
 spin polarized calculation
 Variant of blocked Davidson
 Davidson routine will perform the subspace rotation
 perform sub-space diagonalisation
    after iterative eigenvector-optimisation
 modified Broyden-mixing scheme, WC =      100.0
 initial mixing is a Kerker type mixing with AMIX =  0.4000 and BMIX =      1.0000
 Hartree-type preconditioning will be used
 using additional bands           19
 real space projection scheme for non local part
 use partial core corrections
 calculate Harris-corrections to forces   (improved forces if not selfconsistent)
 use gradient corrections 
 use of overlap-Matrix (Vanderbilt PP)
 Fermi weights with tetrahedron method with Bloechl corrections


--------------------------------------------------------------------------------------------------------


  energy-cutoff  :      520.00
  volume of cell :      968.84
      direct lattice vectors                 reciprocal lattice vectors
     6.907777000 -0.000000000  0.000000000     0.144764372 -0.083579742  0.000000000
     3.453888000  5.982310000  0.000000000     0.000000000  0.167159509 -0.000000000
     0.000000000  0.000000000 23.444588000    -0.000000000  0.000000000  0.042653767

  length of vectors
     6.907777000  6.907776433 23.444588000     0.167159495  0.167159509  0.042653767



 k-points in units of 2pi/SCALE and weight: Kpoints from vasprun.xml                
   0.00000000  0.00000000  0.00000000       0.040
   0.02895287 -0.01671595  0.00000000       0.240
   0.05790575 -0.03343190  0.00000000       0.240
   0.05790575  0.00000000  0.00000000       0.240
  -0.05790575  0.06686380  0.00000000       0.240

 k-points in reciprocal lattice and weights: Kpoints from vasprun.xml                
   0.00000000  0.00000000  0.00000000       0.040
   0.20000000  0.00000000  0.00000000       0.240
   0.40000000  0.00000000  0.00000000       0.240
   0.40000000  0.20000000  0.00000000       0.240
  -0.40000000  0.20000000  0.00000000       0.240

 position of ions in fractional coordinates (direct lattice) 
   0.33333300  0.33333300  0.49992500
   0.66666700  0.66666700  0.50007500
   0.00000000  0.00000000  0.44821600
   0.00000000  0.00000000  0.55178400
   0.62635700  0.00042000  0.57375200
   0.00042000  0.37322400  0.57375200
   0.37322400  0.62635700  0.57375200
   0.37364300  0.99958000  0.42624800
   0.99958000  0.62677600  0.42624800
   0.62677600  0.37364300  0.42624800

 position of ions in cartesian coordinates  (Angst):
   3.45388488  1.99410134 11.72053566
   6.90778012  3.98820866 11.72405234
   0.00000000  0.00000000 10.50823946
   0.00000000  0.00000000 12.93634854
   4.32818511  0.00251257 13.45137925
   1.29197516  2.23274167 13.45137925
   4.74151509  3.74706174 13.45137925
   6.03347989  5.97979743  9.99320875
   9.06968984  3.74956833  9.99320875
   5.62014991  2.23524826  9.99320875



--------------------------------------------------------------------------------------------------------


 k-point  1 :   0.0000 0.0000 0.0000  plane waves:   26073
 k-point  2 :   0.2000 0.0000 0.0000  plane waves:   26070
 k-point  3 :   0.4000 0.0000 0.0000  plane waves:   26086
 k-point  4 :   0.4000 0.2000 0.0000  plane waves:   26085
 k-point  5 :  -0.4000 0.2000 0.0000  plane waves:   26115

 maximum and minimum number of plane-waves per node :     26115    26070

 maximum number of plane-waves:     26115
 maximum index in each direction: 
   IXMAX=   13   IYMAX=   12   IZMAX=   43
   IXMIN=  -13   IYMIN=  -13   IZMIN=  -43


 serial   3D FFT for wavefunctions
 parallel 3D FFT for charge:
    minimum data exchange during FFTs selected (reduces bandwidth)


 total amount of memory used by VASP MPI-rank0   129818. kBytes
=======================================================================

   base      :      30000. kBytes
   nonlr-proj:       7318. kBytes
   fftplans  :      11247. kBytes
   grid      :      68332. kBytes
   one-center:        311. kBytes
   wavefun   :      12610. kBytes

     INWAV:  cpu time    0.0000: real time    0.0012
 Broyden mixing: mesh for mixing (old mesh)
   NGX = 25   NGY = 25   NGZ = 87
  (NGX  =108   NGY  =108   NGZ  =360)
  gives a total of  54375 points

 initial charge density was supplied:
 charge density of overlapping atoms calculated
 number of electron      57.0000000 magnetization      14.8000000
 keeping initial charge density in first step


--------------------------------------------------------------------------------------------------------


 Maximum index for non-local projection operator         7247
 Maximum index for augmentation-charges         2133 (set IRDMAX)


--------------------------------------------------------------------------------------------------------


 First call to EWALD:  gamma=   0.179
 Maximum number of real-space cells 4x 4x 1
 Maximum number of reciprocal cells 2x 2x 6

    FEWALD:  cpu time    0.0040: real time    0.0014


--------------------------------------- Iteration      1(   1)  ---------------------------------------


vdW kernel read from vdw_kernel.bindat
  0.0000  0.2424  0.5071  0.7962  1.1119  1.4567  1.8333  2.2446  2.6937  3.1842
  3.7199  4.3049  4.9438  5.6415  6.4036  7.2358  8.1446  9.1372 10.2212 11.4050
 12.6979 14.1099 15.6519 17.3360 19.1751 21.1837 23.3773 25.7729 28.3892 31.2465
 34.3669 37.7748 41.4965 45.5611 50.0000

    POTLOK:  cpu time   52.4280: real time   52.8919
    SETDIJ:  cpu time    0.0440: real time    0.0417
     EDDAV:  cpu time   22.3680: real time   22.8041
 BZINTS: Fermi energy:  5.406382; 57.000000 electrons
         Band energy: -20.828649;  BLOECHL correction: -0.032916
       DOS:  cpu time    0.0040: real time    0.0053
    --------------------------------------------
      LOOP:  cpu time   74.8440: real time   75.7429

 eigenvalue-minimisations  :   960
 total energy-change (2. order) : 0.4076411E+03  (-0.1659564E+04)
 number of electron      57.0000000 magnetization      14.8000000
 augmentation part       57.0000000 magnetization      14.8000000

 Free energy of the ion-electron system (eV)
  ---------------------------------------------------
  alpha Z        PSCENC =        32.59752184
  Ewald energy   TEWEN  =      6221.61188061
  -Hartree energ DENC   =     -8315.35165852
  -exchange      EXHF   =         0.00000000
  -V(xc)+E(xc)   XCENC  =       -51.41176430
  PAW double counting   =      1173.03776633    -1020.98751441
  entropy T*S    EENTRO =         0.00000000
  eigenvalues    EBANDS =       -20.82864913
  atomic energy  EATOM  =      2388.97348331
  Solvation  Ediel_sol  =         0.00000000
  ---------------------------------------------------
  free energy    TOTEN  =       407.64106573 eV

  energy without entropy =      407.64106573  energy(sigma->0) =      407.64106573


--------------------------------------------------------------------------------------------------------




--------------------------------------- Iteration      1(   2)  ---------------------------------------


     EDDAV:  cpu time   26.2680: real time   27.1500
 BZINTS: Fermi energy: -1.116610; 57.000000 electrons
         Band energy:-398.002257;  BLOECHL correction: -0.097307
       DOS:  cpu time    0.0080: real time    0.0052
    --------------------------------------------
      LOOP:  cpu time   26.2760: real time   27.1552

 eigenvalue-minimisations  :  1168
 total energy-change (2. order) :-0.3771736E+03  (-0.3455326E+03)
 number of electron      57.0000000 magnetization      14.8000000
 augmentation part       57.0000000 magnetization      14.8000000

 Free energy of the ion-electron system (eV)
  ---------------------------------------------------
  alpha Z        PSCENC =        32.59752184
  Ewald energy   TEWEN  =      6221.61188061
  -Hartree energ DENC   =     -8315.35165852
  -exchange      EXHF   =         0.00000000
  -V(xc)+E(xc)   XCENC  =       -51.41176430
  PAW double counting   =      1173.03776633    -1020.98751441
  entropy T*S    EENTRO =         0.00000000
  eigenvalues    EBANDS =      -398.00225709
  atomic energy  EATOM  =      2388.97348331
  Solvation  Ediel_sol  =         0.00000000
  ---------------------------------------------------
  free energy    TOTEN  =        30.46745777 eV

  energy without entropy =       30.46745777  energy(sigma->0) =       30.46745777


--------------------------------------------------------------------------------------------------------




--------------------------------------- Iteration      1(   3)  ---------------------------------------


     EDDAV:  cpu time   30.7320: real time   31.5027
 BZINTS: Fermi energy: -2.783112; 57.000000 electrons
         Band energy:-473.926937;  BLOECHL correction: -0.009607
       DOS:  cpu time    0.0040: real time    0.0052
    --------------------------------------------
      LOOP:  cpu time   30.7360: real time   31.5079

 eigenvalue-minimisations  :  1376
 total energy-change (2. order) :-0.7592468E+02  (-0.7309876E+02)
 number of electron      57.0000000 magnetization      14.8000000
 augmentation part       57.0000000 magnetization      14.8000000

 Free energy of the ion-electron system (eV)
  ---------------------------------------------------
  alpha Z        PSCENC =        32.59752184
  Ewald energy   TEWEN  =      6221.61188061
  -Hartree energ DENC   =     -8315.35165852
  -exchange      EXHF   =         0.00000000
  -V(xc)+E(xc)   XCENC  =       -51.41176430
  PAW double counting   =      1173.03776633    -1020.98751441
  entropy T*S    EENTRO =         0.00000000
  eigenvalues    EBANDS =      -473.92693670
  atomic energy  EATOM  =      2388.97348331
  Solvation  Ediel_sol  =         0.00000000
  ---------------------------------------------------
  free energy    TOTEN  =       -45.45722184 eV

  energy without entropy =      -45.45722184  energy(sigma->0) =      -45.45722184


--------------------------------------------------------------------------------------------------------




--------------------------------------- Iteration      1(   4)  ---------------------------------------


     EDDAV:  cpu time   27.9720: real time   28.1683
 BZINTS: Fermi energy: -2.816752; 57.000000 electrons
         Band energy:-477.653581;  BLOECHL correction: -0.013296
       DOS:  cpu time    0.0080: real time    0.0088
    --------------------------------------------
      LOOP:  cpu time   27.9800: real time   28.1771

 eigenvalue-minimisations  :  1216
 total energy-change (2. order) :-0.3726645E+01  (-0.3644785E+01)
 number of electron      57.0000000 magnetization      14.8000000
 augmentation part       57.0000000 magnetization      14.8000000

 Free energy of the ion-electron system (eV)
  ---------------------------------------------------
  alpha Z        PSCENC =        32.59752184
  Ewald energy   TEWEN  =      6221.61188061
  -Hartree energ DENC   =     -8315.35165852
  -exchange      EXHF   =         0.00000000
  -V(xc)+E(xc)   XCENC  =       -51.41176430
  PAW double counting   =      1173.03776633    -1020.98751441
  entropy T*S    EENTRO =         0.00000000
  eigenvalues    EBANDS =      -477.65358138
  atomic energy  EATOM  =      2388.97348331
  Solvation  Ediel_sol  =         0.00000000
  ---------------------------------------------------
  free energy    TOTEN  =       -49.18386652 eV

  energy without entropy =      -49.18386652  energy(sigma->0) =      -49.18386652


--------------------------------------------------------------------------------------------------------




--------------------------------------- Iteration      1(   5)  ---------------------------------------


     EDDAV:  cpu time   30.7400: real time   30.8564
 BZINTS: Fermi energy: -2.817783; 57.000000 electrons
         Band energy:-477.767356;  BLOECHL correction: -0.013008
       DOS:  cpu time    0.0040: real time    0.0049
    CHARGE:  cpu time    1.9480: real time    1.9539
    MIXING:  cpu time    0.0440: real time    0.0433
    --------------------------------------------
      LOOP:  cpu time   32.7360: real time   32.8585

 eigenvalue-minimisations  :  1344
 total energy-change (2. order) :-0.1137742E+00  (-0.1135721E+00)
 number of electron      56.9999994 magnetization      13.6936698
 augmentation part       -5.8116919 magnetization      11.6559104

 Broyden mixing:
  rms(total) = 0.24199E+01    rms(broyden)= 0.24199E+01
  rms(prec ) = 0.26129E+01
  weight for this iteration     100.00

 Free energy of the ion-electron system (eV)
  ---------------------------------------------------
  alpha Z        PSCENC =        32.59752184
  Ewald energy   TEWEN  =      6221.61188061
  -Hartree energ DENC   =     -8315.35165852
  -exchange      EXHF   =         0.00000000
  -V(xc)+E(xc)   XCENC  =       -51.41176430
  PAW double counting   =      1173.03776633    -1020.98751441
  entropy T*S    EENTRO =         0.00000000
  eigenvalues    EBANDS =      -477.76735558
  atomic energy  EATOM  =      2388.97348331
  Solvation  Ediel_sol  =         0.00000000
  ---------------------------------------------------
  free energy    TOTEN  =       -49.29764072 eV

  energy without entropy =      -49.29764072  energy(sigma->0) =      -49.29764072


--------------------------------------------------------------------------------------------------------




--------------------------------------- Iteration      1(   6)  ---------------------------------------


    POTLOK:  cpu time   50.9360: real time   52.9455
    SETDIJ:  cpu time    0.0560: real time    0.0544
     EDDAV:  cpu time   31.3920: real time   31.8111
 BZINTS: Fermi energy: -4.981071; 57.000000 electrons
         Band energy:-564.368323;  BLOECHL correction: -0.027941
       DOS:  cpu time    0.0040: real time    0.0054
    CHARGE:  cpu time    1.9480: real time    2.0002
    MIXING:  cpu time    0.0400: real time    0.0420
    --------------------------------------------
      LOOP:  cpu time   84.3760: real time   86.8584

 eigenvalue-minimisations  :  1392
 total energy-change (2. order) :-0.4285046E+02  (-0.1937070E+02)
 number of electron      56.9999992 magnetization      13.4092717
 augmentation part        6.9872195 magnetization       9.9603411

 Broyden mixing:
  rms(total) = 0.57955E+01    rms(broyden)= 0.57954E+01
  rms(prec ) = 0.65156E+01
  weight for this iteration     100.00

 eigenvalues of (default mixing * dielectric matrix)
  average eigenvalue GAMMA=   0.2849
  0.2849

 Free energy of the ion-electron system (eV)
  ---------------------------------------------------
  alpha Z        PSCENC =        32.59752184
  Ewald energy   TEWEN  =      6221.61188061
  -Hartree energ DENC   =     -8278.00716073
  -exchange      EXHF   =         0.00000000
  -V(xc)+E(xc)   XCENC  =       -53.21445557
  PAW double counting   =      1128.30066921     -968.04171623
  entropy T*S    EENTRO =         0.00000000
  eigenvalues    EBANDS =      -564.36832336
  atomic energy  EATOM  =      2388.97348331
  Solvation  Ediel_sol  =         0.00000000
  ---------------------------------------------------
  free energy    TOTEN  =       -92.14810092 eV

  energy without entropy =      -92.14810092  energy(sigma->0) =      -92.14810092


--------------------------------------------------------------------------------------------------------




--------------------------------------- Iteration      1(   7)  ---------------------------------------


    POTLOK:  cpu time   51.8720: real time   52.4867
    SETDIJ:  cpu time    0.0480: real time    0.0477
     EDDAV:  cpu time   25.0840: real time   25.4183
 BZINTS: Fermi energy: -3.443210; 57.000000 electrons
         Band energy:-471.354124;  BLOECHL correction: -0.008428
       DOS:  cpu time    0.0040: real time    0.0081
    CHARGE:  cpu time    1.9280: real time    1.9411
    MIXING:  cpu time    0.0440: real time    0.0432
    --------------------------------------------
      LOOP:  cpu time   78.9800: real time   79.9451

 eigenvalue-minimisations  :  1088
 total energy-change (2. order) : 0.5081361E+02  (-0.1504306E+02)
 number of electron      56.9999994 magnetization      13.0145915
 augmentation part       -3.7137252 magnetization       9.5480280

 Broyden mixing:
  rms(total) = 0.16082E+01    rms(broyden)= 0.16081E+01
  rms(prec ) = 0.16421E+01
  weight for this iteration     100.00

 eigenvalues of (default mixing * dielectric matrix)
  average eigenvalue GAMMA=   0.3817
  0.5457  0.2177

 Free energy of the ion-electron system (eV)
  ---------------------------------------------------
  alpha Z        PSCENC =        32.59752184
  Ewald energy   TEWEN  =      6221.61188061
  -Hartree energ DENC   =     -8311.44562375
  -exchange      EXHF   =         0.00000000
  -V(xc)+E(xc)   XCENC  =       -53.93379033
  PAW double counting   =      1192.33952605    -1040.12336622
  entropy T*S    EENTRO =         0.00000000
  eigenvalues    EBANDS =      -471.35412380
  atomic energy  EATOM  =      2388.97348331
  Solvation  Ediel_sol  =         0.00000000
  ---------------------------------------------------
  free energy    TOTEN  =       -41.33449229 eV

  energy without entropy =      -41.33449229  energy(sigma->0) =      -41.33449229


--------------------------------------------------------------------------------------------------------




--------------------------------------- Iteration      1(   8)  ---------------------------------------


    POTLOK:  cpu time   51.9680: real time   52.2211
    SETDIJ:  cpu time    0.0840: real time    0.0819
     EDDAV:  cpu time   29.4560: real time   29.7203
 BZINTS: Fermi energy: -3.641169; 57.000000 electrons
         Band energy:-476.529219;  BLOECHL correction:  0.000000
       DOS:  cpu time    0.0000: real time    0.0031
    CHARGE:  cpu time    1.9240: real time    1.9234
    MIXING:  cpu time    0.0440: real time    0.0463
    --------------------------------------------
      LOOP:  cpu time   83.4760: real time   83.9961

 eigenvalue-minimisations  :  1296
 total energy-change (2. order) :-0.2112009E+01  (-0.6217287E+00)
 number of electron      56.9999993 magnetization      12.1213744
 augmentation part       -3.2614875 magnetization       8.8364832

 Broyden mixing:
  rms(total) = 0.86106E+00    rms(broyden)= 0.86106E+00
  rms(prec ) = 0.87870E+00
  weight for this iteration     100.00

 eigenvalues of (default mixing * dielectric matrix)
  average eigenvalue GAMMA=   0.6087
  0.2315  0.7973  0.7973

 Free energy of the ion-electron system (eV)
  ---------------------------------------------------
  alpha Z        PSCENC =        32.59752184
  Ewald energy   TEWEN  =      6221.61188061
  -Hartree energ DENC   =     -8308.63583237
  -exchange      EXHF   =         0.00000000
  -V(xc)+E(xc)   XCENC  =       -53.83153113
  PAW double counting   =      1189.31214420    -1036.94494802
  entropy T*S    EENTRO =         0.00000000
  eigenvalues    EBANDS =      -476.52921940
  atomic energy  EATOM  =      2388.97348331
  Solvation  Ediel_sol  =         0.00000000
  ---------------------------------------------------
  free energy    TOTEN  =       -43.44650097 eV

  energy without entropy =      -43.44650097  energy(sigma->0) =      -43.44650097


--------------------------------------------------------------------------------------------------------




--------------------------------------- Iteration      1(   9)  ---------------------------------------


    POTLOK:  cpu time   51.5800: real time   51.7681
    SETDIJ:  cpu time    0.0480: real time    0.0465
     EDDAV:  cpu time   34.1720: real time   34.2674
 BZINTS: Fermi energy: -3.654856; 57.000000 electrons
         Band energy:-476.066336;  BLOECHL correction:  0.000000
       DOS:  cpu time    0.0000: real time    0.0030
    CHARGE:  cpu time    1.9440: real time    1.9445
    MIXING:  cpu time    0.0480: real time    0.0471
    --------------------------------------------
      LOOP:  cpu time   87.7920: real time   88.0767

 eigenvalue-minimisations  :  1520
 total energy-change (2. order) :-0.1186699E+01  (-0.1346153E+00)
 number of electron      56.9999993 magnetization      11.0713410
 augmentation part       -2.8207769 magnetization       8.3742937

 Broyden mixing:
  rms(total) = 0.38475E+00    rms(broyden)= 0.38475E+00
  rms(prec ) = 0.38843E+00
  weight for this iteration     100.00

 eigenvalues of (default mixing * dielectric matrix)
  average eigenvalue GAMMA=   0.7904
  0.2298  1.1415  1.1415  0.6488

 Free energy of the ion-electron system (eV)
  ---------------------------------------------------
  alpha Z        PSCENC =        32.59752184
  Ewald energy   TEWEN  =      6221.61188061
  -Hartree energ DENC   =     -8311.81429800
  -exchange      EXHF   =         0.00000000
  -V(xc)+E(xc)   XCENC  =       -52.11000659
  PAW double counting   =      1201.79245202    -1049.61789749
  entropy T*S    EENTRO =         0.00000000
  eigenvalues    EBANDS =      -476.06633609
  atomic energy  EATOM  =      2388.97348331
  Solvation  Ediel_sol  =         0.00000000
  ---------------------------------------------------
  free energy    TOTEN  =       -44.63320038 eV

  energy without entropy =      -44.63320038  energy(sigma->0) =      -44.63320038


--------------------------------------------------------------------------------------------------------




--------------------------------------- Iteration      1(  10)  ---------------------------------------


    POTLOK:  cpu time   51.8680: real time   52.5061
    SETDIJ:  cpu time    0.0520: real time    0.0508
     EDDAV:  cpu time   31.8360: real time   32.3286
 BZINTS: Fermi energy: -3.616143; 57.000000 electrons
         Band energy:-475.426611;  BLOECHL correction:  0.000000
       DOS:  cpu time    0.0000: real time    0.0044
    CHARGE:  cpu time    1.9320: real time    1.9319
    MIXING:  cpu time    0.0440: real time    0.0439
    --------------------------------------------
      LOOP:  cpu time   85.7320: real time   86.8657

 eigenvalue-minimisations  :  1424
 total energy-change (2. order) :-0.4808542E+00  (-0.4168836E-01)
 number of electron      56.9999993 magnetization      10.2245851
 augmentation part       -2.5492106 magnetization       7.8585384

 Broyden mixing:
  rms(total) = 0.26564E+00    rms(broyden)= 0.26564E+00
  rms(prec ) = 0.26945E+00
  weight for this iteration     100.00

 eigenvalues of (default mixing * dielectric matrix)
  average eigenvalue GAMMA=   0.9990
  2.3261  0.2299  0.8998  0.8998  0.6397

 Free energy of the ion-electron system (eV)
  ---------------------------------------------------
  alpha Z        PSCENC =        32.59752184
  Ewald energy   TEWEN  =      6221.61188061
  -Hartree energ DENC   =     -8313.78138162
  -exchange      EXHF   =         0.00000000
  -V(xc)+E(xc)   XCENC  =       -50.56099599
  PAW double counting   =      1204.71691932    -1053.24487097
  entropy T*S    EENTRO =         0.00000000
  eigenvalues    EBANDS =      -475.42661104
  atomic energy  EATOM  =      2388.97348331
  Solvation  Ediel_sol  =         0.00000000
  ---------------------------------------------------
  free energy    TOTEN  =       -45.11405454 eV

  energy without entropy =      -45.11405454  energy(sigma->0) =      -45.11405454


--------------------------------------------------------------------------------------------------------




--------------------------------------- Iteration      1(  11)  ---------------------------------------


    POTLOK:  cpu time   51.5360: real time   52.2391
    SETDIJ:  cpu time    0.0480: real time    0.0482
     EDDAV:  cpu time   35.1640: real time   35.5441
 BZINTS: Fermi energy: -3.721328; 57.000000 electrons
         Band energy:-486.607928;  BLOECHL correction: -0.053895
       DOS:  cpu time    0.0040: real time    0.0078
    CHARGE:  cpu time    1.9880: real time    1.9940
    MIXING:  cpu time    0.0440: real time    0.0436
    --------------------------------------------
      LOOP:  cpu time   88.7840: real time   89.8769

 eigenvalue-minimisations  :  1568
 total energy-change (2. order) :-0.1125754E+02  (-0.9306377E+01)
 number of electron      56.9999993 magnetization      10.2265747
 augmentation part       -2.5431307 magnetization       9.7058643

 Broyden mixing:
  rms(total) = 0.16540E+01    rms(broyden)= 0.16303E+01
  rms(prec ) = 0.16785E+01
  weight for this iteration     100.00

 eigenvalues of (default mixing * dielectric matrix)
  average eigenvalue GAMMA=   0.8325
  2.3261  0.2299  0.8998  0.8998  0.6397  0.0001

 Free energy of the ion-electron system (eV)
  ---------------------------------------------------
  alpha Z        PSCENC =        32.59752184
  Ewald energy   TEWEN  =      6221.61188061
  -Hartree energ DENC   =     -8314.26449287
  -exchange      EXHF   =         0.00000000
  -V(xc)+E(xc)   XCENC  =       -50.09037267
  PAW double counting   =      1205.81400274    -1054.40569143
  entropy T*S    EENTRO =         0.00000000
  eigenvalues    EBANDS =      -486.60792842
  atomic energy  EATOM  =      2388.97348331
  Solvation  Ediel_sol  =         0.00000000
  ---------------------------------------------------
  free energy    TOTEN  =       -56.37159688 eV

  energy without entropy =      -56.37159688  energy(sigma->0) =      -56.37159688


--------------------------------------------------------------------------------------------------------




--------------------------------------- Iteration      1(  12)  ---------------------------------------


    POTLOK:  cpu time   51.7680: real time   52.0833
    SETDIJ:  cpu time    0.0520: real time    0.0522
     EDDAV:  cpu time   24.1840: real time   24.4640
 BZINTS: Fermi energy: -3.586114; 57.000000 electrons
         Band energy:-475.173808;  BLOECHL correction:  0.000000
       DOS:  cpu time    0.0040: real time    0.0022
    CHARGE:  cpu time    1.9240: real time    1.9280
    MIXING:  cpu time    0.0480: real time    0.0452
    --------------------------------------------
      LOOP:  cpu time   77.9800: real time   78.5749

 eigenvalue-minimisations  :  1040
 total energy-change (2. order) : 0.1178150E+02  (-0.8449305E+02)
 number of electron      56.9999993 magnetization       9.5726491
 augmentation part       -2.5398360 magnetization       7.3016179

 Broyden mixing:
  rms(total) = 0.35110E+00    rms(broyden)= 0.27084E+00
  rms(prec ) = 0.27519E+00
  weight for this iteration     100.00
  WARNING: grid for Broyden might be to small

 eigenvalues of (default mixing * dielectric matrix)
  average eigenvalue GAMMA=   0.8657
  2.5915  0.9953  0.9953  0.2299  0.6229  0.6229  0.0022

 Free energy of the ion-electron system (eV)
  ---------------------------------------------------
  alpha Z        PSCENC =        32.59752184
  Ewald energy   TEWEN  =      6221.61188061
  -Hartree energ DENC   =     -8314.30261266
  -exchange      EXHF   =         0.00000000
  -V(xc)+E(xc)   XCENC  =       -49.69869971
  PAW double counting   =      1205.84829436    -1054.44615880
  entropy T*S    EENTRO =         0.00000000
  eigenvalues    EBANDS =      -475.17380778
  atomic energy  EATOM  =      2388.97348331
  Solvation  Ediel_sol  =         0.00000000
  ---------------------------------------------------
  free energy    TOTEN  =       -44.59009884 eV

  energy without entropy =      -44.59009884  energy(sigma->0) =      -44.59009884


--------------------------------------------------------------------------------------------------------




--------------------------------------- Iteration      1(  13)  ---------------------------------------


    POTLOK:  cpu time   51.7800: real time   51.9383
    SETDIJ:  cpu time    0.0480: real time    0.0483
     EDDAV:  cpu time   27.3200: real time   27.5843
 BZINTS: Fermi energy: -3.603740; 57.000000 electrons
         Band energy:-475.296914;  BLOECHL correction:  0.000000
       DOS:  cpu time    0.0000: real time    0.0034
    CHARGE:  cpu time    1.9200: real time    1.9219
    MIXING:  cpu time    0.0440: real time    0.0453
    --------------------------------------------
      LOOP:  cpu time   81.1120: real time   81.5414

 eigenvalue-minimisations  :  1200
 total energy-change (2. order) :-0.6744712E+00  (-0.1314713E+00)
 number of electron      56.9999993 magnetization       8.8519797
 augmentation part       -2.5900845 magnetization       6.5313351

 Broyden mixing:
  rms(total) = 0.24420E+00    rms(broyden)= 0.24008E+00
  rms(prec ) = 0.24634E+00
  weight for this iteration     100.00

 eigenvalues of (default mixing * dielectric matrix)
  average eigenvalue GAMMA=   0.9344
  3.1185  1.1995  1.1995  0.6883  0.6883  0.2299  0.3490  0.0022

 Free energy of the ion-electron system (eV)
  ---------------------------------------------------
  alpha Z        PSCENC =        32.59752184
  Ewald energy   TEWEN  =      6221.61188061
  -Hartree energ DENC   =     -8314.11336841
  -exchange      EXHF   =         0.00000000
  -V(xc)+E(xc)   XCENC  =       -50.33069855
  PAW double counting   =      1203.97498828    -1052.68146299
  entropy T*S    EENTRO =         0.00000000
  eigenvalues    EBANDS =      -475.29691412
  atomic energy  EATOM  =      2388.97348331
  Solvation  Ediel_sol  =         0.00000000
  ---------------------------------------------------
  free energy    TOTEN  =       -45.26457002 eV

  energy without entropy =      -45.26457002  energy(sigma->0) =      -45.26457002


--------------------------------------------------------------------------------------------------------




--------------------------------------- Iteration      1(  14)  ---------------------------------------


    POTLOK:  cpu time   51.7280: real time   51.9150
    SETDIJ:  cpu time    0.0520: real time    0.0494
     EDDAV:  cpu time   26.9720: real time   27.0129
 BZINTS: Fermi energy: -3.608214; 57.000000 electrons
         Band energy:-475.064747;  BLOECHL correction: -0.007471
       DOS:  cpu time    0.0040: real time    0.0056
    CHARGE:  cpu time    1.9520: real time    1.9563
    MIXING:  cpu time    0.0480: real time    0.0460
    --------------------------------------------
      LOOP:  cpu time   80.7560: real time   80.9852

 eigenvalue-minimisations  :  1168
 total energy-change (2. order) :-0.2087184E+00  (-0.1174102E-01)
 number of electron      56.9999993 magnetization       7.7646459
 augmentation part       -2.6334782 magnetization       5.4810356

 Broyden mixing:
  rms(total) = 0.16398E+00    rms(broyden)= 0.16373E+00
  rms(prec ) = 0.16615E+00
  weight for this iteration     100.00

 eigenvalues of (default mixing * dielectric matrix)
  average eigenvalue GAMMA=   1.1594
  4.9159  1.4109  1.4109  0.2299  0.7677  0.7677  0.6141  0.3153  0.0022

 Free energy of the ion-electron system (eV)
  ---------------------------------------------------
  alpha Z        PSCENC =        32.59752184
  Ewald energy   TEWEN  =      6221.61188061
  -Hartree energ DENC   =     -8314.05962551
  -exchange      EXHF   =         0.00000000
  -V(xc)+E(xc)   XCENC  =       -50.76855475
  PAW double counting   =      1202.33476418    -1051.09801154
  entropy T*S    EENTRO =         0.00000000
  eigenvalues    EBANDS =      -475.06474660
  atomic energy  EATOM  =      2388.97348331
  Solvation  Ediel_sol  =         0.00000000
  ---------------------------------------------------
  free energy    TOTEN  =       -45.47328847 eV

  energy without entropy =      -45.47328847  energy(sigma->0) =      -45.47328847


--------------------------------------------------------------------------------------------------------




--------------------------------------- Iteration      1(  15)  ---------------------------------------


    POTLOK:  cpu time   51.5080: real time   52.0742
    SETDIJ:  cpu time    0.0520: real time    0.0504
     EDDAV:  cpu time   29.9000: real time   30.9961
 BZINTS: Fermi energy: -3.570513; 57.000000 electrons
         Band energy:-474.387325;  BLOECHL correction: -0.011818
       DOS:  cpu time    0.0040: real time    0.0047
    CHARGE:  cpu time    1.8440: real time    1.9322
    MIXING:  cpu time    0.0520: real time    0.0496
    --------------------------------------------
      LOOP:  cpu time   83.3600: real time   85.1073

 eigenvalue-minimisations  :  1360
 total energy-change (2. order) :-0.1073069E+00  (-0.9209242E-02)
 number of electron      56.9999993 magnetization       6.9416821
 augmentation part       -2.6698895 magnetization       4.7691108

 Broyden mixing:
  rms(total) = 0.80190E-01    rms(broyden)= 0.80170E-01
  rms(prec ) = 0.81808E-01
  weight for this iteration     100.00

 eigenvalues of (default mixing * dielectric matrix)
  average eigenvalue GAMMA=   1.3399
  6.7151  1.4148  1.4148  0.2299  0.9429  0.9429  0.7984  0.6194  0.3183  0.0022

 Free energy of the ion-electron system (eV)
  ---------------------------------------------------
  alpha Z        PSCENC =        32.59752184
  Ewald energy   TEWEN  =      6221.61188061
  -Hartree energ DENC   =     -8314.49692377
  -exchange      EXHF   =         0.00000000
  -V(xc)+E(xc)   XCENC  =       -51.22543712
  PAW double counting   =      1201.72508500    -1050.37888012
  entropy T*S    EENTRO =         0.00000000
  eigenvalues    EBANDS =      -474.38732508
  atomic energy  EATOM  =      2388.97348331
  Solvation  Ediel_sol  =         0.00000000
  ---------------------------------------------------
  free energy    TOTEN  =       -45.58059532 eV

  energy without entropy =      -45.58059532  energy(sigma->0) =      -45.58059532


--------------------------------------------------------------------------------------------------------




--------------------------------------- Iteration      1(  16)  ---------------------------------------


    POTLOK:  cpu time   51.8440: real time   52.0753
    SETDIJ:  cpu time    0.0480: real time    0.0480
     EDDAV:  cpu time   23.8880: real time   24.1485
 BZINTS: Fermi energy: -3.532746; 57.000000 electrons
         Band energy:-473.577698;  BLOECHL correction: -0.016108
       DOS:  cpu time    0.0040: real time    0.0084
    CHARGE:  cpu time    1.9280: real time    1.9365
    MIXING:  cpu time    0.0520: real time    0.0502
    --------------------------------------------
      LOOP:  cpu time   77.7640: real time   78.2669

 eigenvalue-minimisations  :  1024
 total energy-change (2. order) :-0.2540325E-01  (-0.8626233E-02)
 number of electron      56.9999993 magnetization       6.5011399
 augmentation part       -2.6890522 magnetization       4.5715009

 Broyden mixing:
  rms(total) = 0.44020E-01    rms(broyden)= 0.44018E-01
  rms(prec ) = 0.45033E-01
  weight for this iteration     100.00

 eigenvalues of (default mixing * dielectric matrix)
  average eigenvalue GAMMA=   1.5727
  8.9854  1.6822  1.4993  1.4993  0.2299  0.9331  0.8279  0.7173  0.6047  0.3179
  0.0022

 Free energy of the ion-electron system (eV)
  ---------------------------------------------------
  alpha Z        PSCENC =        32.59752184
  Ewald energy   TEWEN  =      6221.61188061
  -Hartree energ DENC   =     -8315.07671744
  -exchange      EXHF   =         0.00000000
  -V(xc)+E(xc)   XCENC  =       -51.55612285
  PAW double counting   =      1200.91078811    -1049.48913391
  entropy T*S    EENTRO =         0.00000000
  eigenvalues    EBANDS =      -473.57769825
  atomic energy  EATOM  =      2388.97348331
  Solvation  Ediel_sol  =         0.00000000
  ---------------------------------------------------
  free energy    TOTEN  =       -45.60599857 eV

  energy without entropy =      -45.60599857  energy(sigma->0) =      -45.60599857


--------------------------------------------------------------------------------------------------------




--------------------------------------- Iteration      1(  17)  ---------------------------------------


    POTLOK:  cpu time   52.1160: real time   52.3208
    SETDIJ:  cpu time    0.0680: real time    0.0692
     EDDAV:  cpu time   29.3520: real time   29.4631
 BZINTS: Fermi energy: -3.506248; 57.000000 electrons
         Band energy:-473.036447;  BLOECHL correction: -0.018707
       DOS:  cpu time    0.0080: real time    0.0070
    CHARGE:  cpu time    1.9240: real time    1.9314
    MIXING:  cpu time    0.0520: real time    0.0485
    --------------------------------------------
      LOOP:  cpu time   83.5200: real time   83.8401

 eigenvalue-minimisations  :  1280
 total energy-change (2. order) :-0.8873803E-02  (-0.1733498E-02)
 number of electron      56.9999993 magnetization       6.2553087
 augmentation part       -2.6922279 magnetization       4.6344759

 Broyden mixing:
  rms(total) = 0.43777E-01    rms(broyden)= 0.43777E-01
  rms(prec ) = 0.44837E-01
  weight for this iteration     100.00

 eigenvalues of (default mixing * dielectric matrix)
  average eigenvalue GAMMA=   1.7220
 10.5684  2.1667  2.1667  1.2023  1.2023  0.2299  0.7667  0.7667  0.6370  0.6370
  0.3177  0.0022

 Free energy of the ion-electron system (eV)
  ---------------------------------------------------
  alpha Z        PSCENC =        32.59752184
  Ewald energy   TEWEN  =      6221.61188061
  -Hartree energ DENC   =     -8315.70232415
  -exchange      EXHF   =         0.00000000
  -V(xc)+E(xc)   XCENC  =       -51.52961376
  PAW double counting   =      1201.26767690    -1049.79704973
  entropy T*S    EENTRO =         0.00000000
  eigenvalues    EBANDS =      -473.03644740
  atomic energy  EATOM  =      2388.97348331
  Solvation  Ediel_sol  =         0.00000000
  ---------------------------------------------------
  free energy    TOTEN  =       -45.61487237 eV

  energy without entropy =      -45.61487237  energy(sigma->0) =      -45.61487237


--------------------------------------------------------------------------------------------------------




--------------------------------------- Iteration      1(  18)  ---------------------------------------


    POTLOK:  cpu time   51.5720: real time   51.7988
    SETDIJ:  cpu time    0.0440: real time    0.0472
     EDDAV:  cpu time   26.4320: real time   26.6839
 BZINTS: Fermi energy: -3.488214; 57.000000 electrons
         Band energy:-472.832731;  BLOECHL correction: -0.015024
       DOS:  cpu time    0.0080: real time    0.0058
    CHARGE:  cpu time    1.9200: real time    1.9236
    MIXING:  cpu time    0.0520: real time    0.0519
    --------------------------------------------
      LOOP:  cpu time   80.0280: real time   80.5112

 eigenvalue-minimisations  :  1152
 total energy-change (2. order) :-0.1147634E-01  (-0.8250199E-02)
 number of electron      56.9999993 magnetization       5.9821128
 augmentation part       -2.6953584 magnetization       4.5804800

 Broyden mixing:
  rms(total) = 0.44142E-01    rms(broyden)= 0.44142E-01
  rms(prec ) = 0.45168E-01
  weight for this iteration     100.00

 eigenvalues of (default mixing * dielectric matrix)
  average eigenvalue GAMMA=   1.8122
 11.8768  2.5532  2.5532  1.2559  1.2559  0.2299  0.7932  0.7932  0.6651  0.6651
  0.5971  0.3177  0.0022

 Free energy of the ion-electron system (eV)
  ---------------------------------------------------
  alpha Z        PSCENC =        32.59752184
  Ewald energy   TEWEN  =      6221.61188061
  -Hartree energ DENC   =     -8315.92520254
  -exchange      EXHF   =         0.00000000
  -V(xc)+E(xc)   XCENC  =       -51.55381162
  PAW double counting   =      1201.35516336    -1049.85265253
  entropy T*S    EENTRO =         0.00000000
  eigenvalues    EBANDS =      -472.83273114
  atomic energy  EATOM  =      2388.97348331
  Solvation  Ediel_sol  =         0.00000000
  ---------------------------------------------------
  free energy    TOTEN  =       -45.62634871 eV

  energy without entropy =      -45.62634871  energy(sigma->0) =      -45.62634871


--------------------------------------------------------------------------------------------------------




--------------------------------------- Iteration      1(  19)  ---------------------------------------


    POTLOK:  cpu time   51.9840: real time   52.0575
    SETDIJ:  cpu time    0.0480: real time    0.0476
     EDDAV:  cpu time   24.7160: real time   25.4088
 BZINTS: Fermi energy: -3.462643; 57.000000 electrons
         Band energy:-472.647851;  BLOECHL correction: -0.014887
       DOS:  cpu time    0.0040: real time    0.0052
    CHARGE:  cpu time    1.7200: real time    1.9553
    MIXING:  cpu time    0.0480: real time    0.0534
    --------------------------------------------
      LOOP:  cpu time   78.5200: real time   79.5278

 eigenvalue-minimisations  :  1088
 total energy-change (2. order) : 0.9277163E-02  (-0.3281727E-01)
 number of electron      56.9999993 magnetization       5.7208960
 augmentation part       -2.6856071 magnetization       4.5499972

 Broyden mixing:
  rms(total) = 0.38859E-01    rms(broyden)= 0.38859E-01
  rms(prec ) = 0.39484E-01
  weight for this iteration     100.00

 eigenvalues of (default mixing * dielectric matrix)
  average eigenvalue GAMMA=   1.9261
 13.5675  2.8896  2.8896  1.2820  1.2820  0.2299  0.8830  0.8830  0.7417  0.7417
  0.6179  0.6379  0.3177  0.0022

 Free energy of the ion-electron system (eV)
  ---------------------------------------------------
  alpha Z        PSCENC =        32.59752184
  Ewald energy   TEWEN  =      6221.61188061
  -Hartree energ DENC   =     -8316.09990638
  -exchange      EXHF   =         0.00000000
  -V(xc)+E(xc)   XCENC  =       -51.58893348
  PAW double counting   =      1201.36098837    -1049.82425461
  entropy T*S    EENTRO =         0.00000000
  eigenvalues    EBANDS =      -472.64785121
  atomic energy  EATOM  =      2388.97348331
  Solvation  Ediel_sol  =         0.00000000
  ---------------------------------------------------
  free energy    TOTEN  =       -45.61707155 eV

  energy without entropy =      -45.61707155  energy(sigma->0) =      -45.61707155


--------------------------------------------------------------------------------------------------------




--------------------------------------- Iteration      1(  20)  ---------------------------------------


    POTLOK:  cpu time   51.7040: real time   52.0252
    SETDIJ:  cpu time    0.0680: real time    0.0692
     EDDAV:  cpu time   27.5680: real time   27.7147
 BZINTS: Fermi energy: -3.440318; 57.000000 electrons
         Band energy:-472.338848;  BLOECHL correction: -0.014774
       DOS:  cpu time    0.0080: real time    0.0065
    CHARGE:  cpu time    1.9360: real time    1.9422
    MIXING:  cpu time    0.0960: real time    0.0945
    --------------------------------------------
      LOOP:  cpu time   81.3800: real time   81.8523

 eigenvalue-minimisations  :  1200
 total energy-change (2. order) :-0.3076383E-02  (-0.1364723E-02)
 number of electron      56.9999993 magnetization       5.5814222
 augmentation part       -2.6916366 magnetization       4.6353390

 Broyden mixing:
  rms(total) = 0.37664E-01    rms(broyden)= 0.37664E-01
  rms(prec ) = 0.38464E-01
  weight for this iteration     100.00

 eigenvalues of (default mixing * dielectric matrix)
  average eigenvalue GAMMA=   1.9746
 14.8081  3.0804  3.0804  1.3869  1.3869  0.2299  0.9015  0.9015  0.8217  0.8217
  0.3177  0.6432  0.6432  0.5929  0.0022

 Free energy of the ion-electron system (eV)
  ---------------------------------------------------
  alpha Z        PSCENC =        32.59752184
  Ewald energy   TEWEN  =      6221.61188061
  -Hartree energ DENC   =     -8316.43280806
  -exchange      EXHF   =         0.00000000
  -V(xc)+E(xc)   XCENC  =       -51.58438034
  PAW double counting   =      1201.50590964    -1049.95290705
  entropy T*S    EENTRO =         0.00000000
  eigenvalues    EBANDS =      -472.33884788
  atomic energy  EATOM  =      2388.97348331
  Solvation  Ediel_sol  =         0.00000000
  ---------------------------------------------------
  free energy    TOTEN  =       -45.62014793 eV

  energy without entropy =      -45.62014793  energy(sigma->0) =      -45.62014793


--------------------------------------------------------------------------------------------------------




--------------------------------------- Iteration      1(  21)  ---------------------------------------


    POTLOK:  cpu time   51.4920: real time   51.9543
    SETDIJ:  cpu time    0.0480: real time    0.0471
     EDDAV:  cpu time   24.7880: real time   25.4801
 BZINTS: Fermi energy: -3.426969; 57.000000 electrons
         Band energy:-472.052691;  BLOECHL correction: -0.014442
       DOS:  cpu time    0.0040: real time    0.0067
    CHARGE:  cpu time    1.9680: real time    1.9685
    MIXING:  cpu time    0.0520: real time    0.0536
    --------------------------------------------
      LOOP:  cpu time   78.3520: real time   79.5104

 eigenvalue-minimisations  :  1088
 total energy-change (2. order) :-0.4627149E-02  (-0.8457886E-03)
 number of electron      56.9999993 magnetization       5.5433079
 augmentation part       -2.6940183 magnetization       4.6823725

 Broyden mixing:
  rms(total) = 0.33988E-01    rms(broyden)= 0.33988E-01
  rms(prec ) = 0.34851E-01
  weight for this iteration     100.00

 eigenvalues of (default mixing * dielectric matrix)
  average eigenvalue GAMMA=   1.9367
 14.8783  2.9849  2.9849  1.5439  1.2952  1.2952  0.2299  1.1007  0.3177  0.7954
  0.7954  0.7476  0.7476  0.6058  0.6621  0.0022

 Free energy of the ion-electron system (eV)
  ---------------------------------------------------
  alpha Z        PSCENC =        32.59752184
  Ewald energy   TEWEN  =      6221.61188061
  -Hartree energ DENC   =     -8316.69487555
  -exchange      EXHF   =         0.00000000
  -V(xc)+E(xc)   XCENC  =       -51.61855250
  PAW double counting   =      1201.52233620    -1049.96387844
  entropy T*S    EENTRO =         0.00000000
  eigenvalues    EBANDS =      -472.05269055
  atomic energy  EATOM  =      2388.97348331
  Solvation  Ediel_sol  =         0.00000000
  ---------------------------------------------------
  free energy    TOTEN  =       -45.62477508 eV

  energy without entropy =      -45.62477508  energy(sigma->0) =      -45.62477508


--------------------------------------------------------------------------------------------------------




--------------------------------------- Iteration      1(  22)  ---------------------------------------


    POTLOK:  cpu time   51.5400: real time   51.9948
    SETDIJ:  cpu time    0.0480: real time    0.0498
     EDDAV:  cpu time   23.3400: real time   23.4727
 BZINTS: Fermi energy: -3.420063; 57.000000 electrons
         Band energy:-471.781808;  BLOECHL correction: -0.014454
       DOS:  cpu time    0.0040: real time    0.0051
    CHARGE:  cpu time    1.9400: real time    1.9445
    MIXING:  cpu time    0.0600: real time    0.0575
    --------------------------------------------
      LOOP:  cpu time   76.9320: real time   77.5245

 eigenvalue-minimisations  :   992
 total energy-change (2. order) : 0.2804433E-02  (-0.6220869E-03)
 number of electron      56.9999993 magnetization       5.5224965
 augmentation part       -2.6915820 magnetization       4.6536031

 Broyden mixing:
  rms(total) = 0.31608E-01    rms(broyden)= 0.31608E-01
  rms(prec ) = 0.32406E-01
  weight for this iteration     100.00

 eigenvalues of (default mixing * dielectric matrix)
  average eigenvalue GAMMA=   1.9286
 15.0139  3.1514  3.1514  2.1890  1.3450  1.3450  0.2299  0.8975  0.8975  0.8051
  0.8051  0.3177  0.7022  0.7022  0.6156  0.6156  0.0022

 Free energy of the ion-electron system (eV)
  ---------------------------------------------------
  alpha Z        PSCENC =        32.59752184
  Ewald energy   TEWEN  =      6221.61188061
  -Hartree energ DENC   =     -8316.92934426
  -exchange      EXHF   =         0.00000000
[...]
     34      -0.3263      0.00000
     35      -0.2993      0.00000
     36      -0.0092      0.00000
     37       0.1290      0.00000
     38       0.4507      0.00000
     39       0.5376      0.00000
     40       1.2798      0.00000
     41       1.6756      0.00000
     42       1.7521      0.00000
     43       2.3199      0.00000
     44       2.6155      0.00000
     45       2.7906      0.00000
     46       3.1539      0.00000
     47       3.5806      0.00000
     48       3.6031      0.00000

 k-point     5 :      -0.4000    0.2000    0.0000
  band No.  band energies     occupation 
      1     -16.8812      1.00000
      2     -16.1863      1.00000
      3     -15.9398      1.00000
      4     -15.8614      1.00000
      5     -15.6325      1.00000
      6     -15.4818      1.00000
      7     -12.6056      1.00000
      8     -10.4910      1.00000
      9      -7.9528      1.00000
     10      -7.4844      1.00000
     11      -7.3140      1.00000
     12      -6.7981      1.00000
     13      -6.6781      1.00000
     14      -6.1673      1.00000
     15      -5.8543      1.00000
     16      -5.7243      1.00000
     17      -5.7063      1.00000
     18      -5.3077      1.00000
     19      -5.1916      1.00000
     20      -5.0734      1.00000
     21      -4.8351      1.00000
     22      -4.3377      1.00000
     23      -4.1796      1.00000
     24      -4.1491      1.00000
     25      -4.0940      1.00000
     26      -2.9952      1.00000
     27      -1.8887      0.00000
     28      -1.6308      0.00000
     29      -1.5962      0.00000
     30      -0.9616      0.00000
     31      -0.8708      0.00000
     32      -0.8454      0.00000
     33      -0.6001      0.00000
     34      -0.5115      0.00000
     35      -0.0543      0.00000
     36       0.0138      0.00000
     37       0.0215      0.00000
     38       0.2919      0.00000
     39       0.6025      0.00000
     40       1.2975      0.00000
     41       1.4663      0.00000
     42       1.5206      0.00000
     43       2.8352      0.00000
     44       3.0264      0.00000
     45       3.1197      0.00000
     46       3.1466      0.00000
     47       3.3649      0.00000
     48       3.5515      0.00000


--------------------------------------------------------------------------------------------------------


 soft charge-density along one line, spin component           1
         0         1         2         3         4         5         6         7         8         9
 total charge-density along one line

 soft charge-density along one line, spin component           2
         0         1         2         3         4         5         6         7         8         9
 total charge-density along one line

 pseudopotential strength for first ion, spin component:           1
 -8.832   0.085  -0.000   0.003  -0.000   0.695  -0.023   0.000
  0.085  -8.742   0.000   0.000   0.003  -0.023   0.671  -0.000
 -0.000   0.000  -8.915   0.000   0.000   0.000  -0.000   0.718
  0.003   0.000   0.000  -8.742  -0.085  -0.001  -0.000  -0.000
 -0.000   0.003   0.000  -0.085  -8.832   0.000  -0.001  -0.000
  0.695  -0.023   0.000  -0.001   0.000   0.360   0.006  -0.000
 -0.023   0.671  -0.000  -0.000  -0.001   0.006   0.366   0.000
  0.000  -0.000   0.718  -0.000  -0.000  -0.000   0.000   0.354
 -0.001  -0.000  -0.000   0.671   0.023   0.000   0.000   0.000
  0.000  -0.001  -0.000   0.023   0.695  -0.000   0.000   0.000
 -0.000  -0.000  -0.001  -0.000   0.000  -0.000   0.000   0.000
  0.000   0.000   0.000   0.000  -0.000  -0.000  -0.000  -0.000
  0.001   0.004   0.000  -0.000   0.002  -0.000  -0.001  -0.000
 -0.000  -0.000   0.003  -0.000  -0.000   0.000   0.000  -0.001
  0.002  -0.000   0.000   0.004  -0.001  -0.000   0.000  -0.000
 -0.000  -0.002  -0.000   0.000  -0.001   0.000   0.001   0.000
  0.000   0.000  -0.002   0.000   0.000  -0.000  -0.000   0.000
 -0.001   0.000  -0.000  -0.002   0.000   0.000  -0.000   0.000
 pseudopotential strength for first ion, spin component:           2
 -7.272  -0.165  -0.000  -0.001   0.000   0.255   0.043   0.000
 -0.165  -7.455   0.000   0.000  -0.001   0.043   0.302  -0.000
 -0.000   0.000  -7.132   0.000   0.000   0.000  -0.000   0.218
 -0.001   0.000   0.000  -7.455   0.165   0.000  -0.000  -0.000
  0.000  -0.001   0.000   0.165  -7.272  -0.000   0.000  -0.000
  0.255   0.043   0.000   0.000  -0.000   0.481  -0.011  -0.000
  0.043   0.302  -0.000  -0.000   0.000  -0.011   0.469   0.000
  0.000  -0.000   0.218  -0.000  -0.000  -0.000   0.000   0.490
  0.000  -0.000  -0.000   0.302  -0.043  -0.000   0.000   0.000
 -0.000   0.000  -0.000  -0.043   0.255   0.000  -0.000   0.000
 -0.000  -0.000   0.005  -0.000   0.000  -0.000   0.000  -0.000
  0.000   0.000  -0.001   0.000  -0.000  -0.000  -0.000   0.000
 -0.000   0.004   0.000  -0.000   0.001   0.000  -0.001  -0.000
 -0.000  -0.000   0.005  -0.000   0.000   0.000   0.000  -0.001
  0.001  -0.000   0.000   0.004   0.000   0.000   0.000  -0.000
 -0.000  -0.002  -0.000   0.000  -0.001  -0.000   0.001   0.000
  0.000   0.000  -0.003   0.000  -0.000  -0.000  -0.000   0.001
 -0.001   0.000  -0.000  -0.002   0.000   0.000  -0.000   0.000
 total augmentation occupancy for first ion, spin component:           1
  0.988  -0.078   0.000   0.018  -0.000   0.062   0.219  -0.000  -0.001   0.000  -0.000  -0.000  -0.001   0.000   0.014  -0.000
 -0.078   0.942  -0.000  -0.000   0.018   0.218   0.290   0.000   0.000  -0.001   0.000  -0.000   0.005   0.000  -0.003   0.001
  0.000  -0.000   1.042  -0.000  -0.000  -0.000   0.000  -0.109   0.000   0.000  -0.003  -0.013  -0.000   0.003   0.000  -0.000
  0.018  -0.000  -0.000   0.942   0.078  -0.001  -0.000   0.000   0.290  -0.218   0.000   0.000   0.003  -0.000   0.005  -0.000
 -0.000   0.018  -0.000   0.078   0.988  -0.000  -0.001   0.000  -0.219   0.062   0.000   0.000   0.014  -0.000   0.001  -0.000
  0.062   0.218  -0.000  -0.001  -0.000   0.182   0.088   0.000  -0.002  -0.000   0.000  -0.000   0.007  -0.000   0.023   0.000
  0.219   0.290   0.000  -0.000  -0.001   0.088   0.272   0.000  -0.000  -0.002   0.000  -0.000   0.007   0.000  -0.005  -0.000
 -0.000   0.000  -0.109   0.000   0.000   0.000   0.000   0.170   0.000  -0.000   0.045  -0.010  -0.000  -0.005   0.000   0.000
 -0.001   0.000   0.000   0.290  -0.219  -0.002  -0.000   0.000   0.272  -0.088   0.000   0.000   0.005  -0.000   0.007  -0.000
  0.000  -0.001   0.000  -0.218   0.062  -0.000  -0.002  -0.000  -0.088   0.182  -0.000   0.000   0.023   0.000  -0.007  -0.001
 -0.000   0.000  -0.003   0.000   0.000   0.000   0.000   0.045  -0.000  -0.000   1.067  -0.176   0.000   0.005   0.000   0.000
 -0.000   0.000  -0.013   0.000   0.000  -0.000  -0.000  -0.010   0.000   0.000  -0.176   0.069   0.000  -0.003   0.000   0.000
 -0.001   0.005  -0.000   0.003   0.014   0.007   0.007  -0.000   0.005   0.023   0.000   0.000   0.224   0.000  -0.000  -0.002
  0.000   0.000   0.003  -0.000  -0.000  -0.000   0.000  -0.005  -0.000   0.000   0.005  -0.003   0.000   0.239   0.000   0.000
  0.014  -0.003   0.000   0.005   0.001   0.023  -0.005   0.000   0.007  -0.007   0.000   0.000  -0.000   0.000   0.224  -0.000
 -0.000   0.001  -0.000  -0.000  -0.000   0.000  -0.000   0.000  -0.000  -0.001   0.000   0.000  -0.002   0.000  -0.000   0.000
  0.000   0.000   0.002   0.000  -0.000  -0.000   0.000  -0.000   0.000   0.000   0.000   0.000   0.000  -0.004   0.000  -0.000
 -0.000   0.000  -0.000   0.001   0.000  -0.001   0.000  -0.000  -0.000  -0.000   0.000   0.000   0.000   0.000  -0.002  -0.000
 total augmentation occupancy for first ion, spin component:           2
  0.681  -0.276   0.000  -0.003  -0.000  -0.159   0.061  -0.000  -0.002  -0.001  -0.000  -0.000  -0.003   0.000  -0.005  -0.000
 -0.276   0.379  -0.000  -0.000  -0.003   0.063  -0.096   0.000  -0.001  -0.004  -0.000   0.000   0.000   0.000   0.010   0.001
  0.000  -0.000   0.905  -0.000  -0.000  -0.000   0.000  -0.232   0.000   0.000  -0.024  -0.004   0.000   0.008  -0.000  -0.000
 -0.003  -0.000  -0.000   0.379   0.276  -0.004   0.001   0.000  -0.096  -0.063   0.000   0.000  -0.010   0.000   0.000  -0.000
 -0.000  -0.003  -0.000   0.276   0.681   0.001  -0.002   0.000  -0.061  -0.159   0.000   0.000  -0.005  -0.000   0.003   0.001
 -0.159   0.063  -0.000  -0.004   0.001  -0.001  -0.046   0.000  -0.001  -0.000   0.000   0.000   0.002  -0.000  -0.004   0.000
  0.061  -0.096   0.000   0.001  -0.002  -0.046  -0.048  -0.000   0.000  -0.001   0.000   0.000  -0.000   0.000   0.000  -0.000
 -0.000   0.000  -0.232   0.000   0.000   0.000  -0.000   0.055  -0.000  -0.000   0.011   0.004   0.000  -0.002  -0.000   0.000
 -0.002  -0.001   0.000  -0.096  -0.061  -0.001   0.000  -0.000  -0.048   0.046   0.000   0.000  -0.000  -0.000  -0.000  -0.000
 -0.001  -0.004   0.000  -0.063  -0.159  -0.000  -0.001  -0.000   0.046  -0.001  -0.000  -0.000  -0.004   0.000  -0.002  -0.000
 -0.000  -0.000  -0.024  -0.000   0.000   0.000   0.000   0.011   0.000  -0.000   0.155   0.062  -0.000   0.001   0.000   0.000
 -0.000   0.000  -0.004   0.000   0.000   0.000  -0.000   0.004   0.000  -0.000   0.062  -0.020  -0.000   0.000   0.000   0.000
 -0.003   0.000   0.000  -0.010  -0.005   0.002  -0.000   0.000  -0.000  -0.004  -0.000  -0.000   0.025   0.000  -0.000   0.003
  0.000   0.000   0.008   0.000  -0.000  -0.000   0.000  -0.002  -0.000   0.000   0.001   0.000   0.000   0.020   0.000   0.000
 -0.005   0.010  -0.000   0.000   0.003  -0.004   0.000  -0.000  -0.000  -0.002  -0.000   0.000  -0.000   0.000   0.025   0.000
 -0.000   0.001  -0.000  -0.000   0.001   0.000  -0.000   0.000  -0.000  -0.000   0.000   0.000   0.003   0.000   0.000  -0.000
  0.000   0.000   0.002   0.000  -0.000  -0.000   0.000  -0.000  -0.000   0.000   0.000  -0.000   0.000   0.002   0.000   0.000
  0.001   0.000   0.000   0.001   0.000  -0.000   0.000   0.000  -0.000  -0.000   0.000   0.000  -0.000   0.000   0.003   0.000


------------------------ aborting loop because EDIFF is reached ----------------------------------------





 total charge     

# of ion       s       p       d       tot
------------------------------------------
    1        0.348   0.464   4.277   5.089
    2        0.348   0.464   4.274   5.085
    3        1.146   1.123   0.110   2.379
    4        1.087   1.323   0.000   2.411
    5        1.491   2.296   0.043   3.830
    6        1.479   2.279   0.044   3.802
    7        1.488   2.288   0.044   3.820
    8        1.484   2.321   0.036   3.840
    9        1.478   2.312   0.036   3.825
   10        1.482   2.314   0.036   3.831
--------------------------------------------------
tot         11.831  17.183   8.900  37.913



 magnetization (x)

# of ion       s       p       d       tot
------------------------------------------
    1        0.035   0.040   2.801   2.876
    2        0.035   0.040   2.800   2.875
    3        0.006   0.028  -0.001   0.032
    4       -0.031   0.002   0.000  -0.029
    5       -0.003  -0.105   0.004  -0.104
    6       -0.003  -0.100   0.005  -0.097
    7       -0.004  -0.110   0.005  -0.110
    8        0.000  -0.080   0.005  -0.074
    9       -0.001  -0.061   0.005  -0.057
   10       -0.001  -0.076   0.005  -0.071
--------------------------------------------------
tot          0.033  -0.422   5.630   5.241

    CHARGE:  cpu time    1.9920: real time    1.9913
    FORLOC:  cpu time    0.0640: real time    0.0638
    FORNL :  cpu time    6.6560: real time    6.6617
    STRESS:  cpu time   19.9560: real time   19.9817
    FORCOR:  cpu time   52.5720: real time   52.6677
    FORHAR:  cpu time    0.3400: real time    0.3386
    MIXING:  cpu time    0.0400: real time    0.0412
    OFIELD:  cpu time    0.0000: real time    0.0001

  FORCE on cell =-STRESS in cart. coord.  units (eV):
  Direction    XX          YY          ZZ          XY          YZ          ZX
  --------------------------------------------------------------------------------------
  Alpha Z    40.83134    40.83134    40.83134
  Ewald    8783.95033  8783.94790-10403.65821    -0.00117    -0.00042    -0.00077
  Hartree  9122.09601  9122.09641 -8961.16264    -0.00003     0.00005     0.00008
  E(xc)    -220.52342  -220.52343  -220.57260     0.00002     0.00001     0.00001
  Local  -18645.88704-18645.88629 18585.62883     0.00082     0.00019     0.00036
  n-local   305.07290   306.29466   312.36744     0.57651     0.36450     0.38443
  augment    25.13628    25.13635    21.44084     0.00004     0.00002     0.00003
  Kinetic   592.18959   585.46590   625.09742    -4.29224    -0.03418    -0.35448
  Fock        0.00000     0.00000     0.00000     0.00000     0.00000     0.00000
  -------------------------------------------------------------------------------------
  Total       0.11441     0.11441    -0.02758     0.00000     0.00000     0.00000
  in kB       0.23700     0.23700    -0.05713     0.00000     0.00000     0.00000
  external pressure =        0.14 kB  Pullay stress =        0.00 kB


 VOLUME and BASIS-vectors are now :
 -----------------------------------------------------------------------------
  energy-cutoff  :      520.00
  volume of cell :      773.47
      direct lattice vectors                 reciprocal lattice vectors
     6.348699363 -0.000000030 -0.000000000     0.157512577 -0.090939923 -0.000000000
     3.174349329  5.498134638 -0.000000000     0.000000001  0.181879867 -0.000000000
     0.000000000  0.000000000 22.158512338     0.000000000  0.000000000  0.045129383

  length of vectors
     6.348699363  6.348698934 22.158512338     0.181879855  0.181879867  0.045129383


 FORCES acting on ions
    electron-ion (+dipol)            ewald-force                    non-local-force                 convergence-correction
 -----------------------------------------------------------------------------------------------
   -.107E-03 -.678E-04 0.544E+01   0.382E-03 0.226E-03 -.574E+01   0.453E-20 -.139E-16 0.178E+00   -.766E-07 -.656E-07 0.258E-01
   0.108E-03 0.646E-04 0.451E+01   -.364E-03 -.216E-03 -.481E+01   0.416E-20 0.139E-16 0.164E+00   -.101E-07 -.389E-07 0.256E-01
   -.408E-04 -.116E-04 0.202E+03   -.169E-03 -.942E-04 -.200E+03   -.139E-16 -.698E-17 -.123E+01   -.797E-07 -.362E-07 0.325E-01
   0.474E-04 0.267E-04 -.249E+03   0.228E-03 0.127E-03 0.249E+03   -.382E-16 0.694E-17 -.982E-01   -.177E-06 -.914E-07 0.268E-02
   0.478E+01 0.107E-01 -.405E+03   -.697E+01 0.192E-01 0.407E+03   0.214E+01 -.304E-02 -.222E+01   0.439E-01 -.266E-01 0.204E-02
   -.238E+01 -.414E+01 -.405E+03   0.350E+01 0.603E+01 0.407E+03   -.107E+01 -.185E+01 -.222E+01   -.449E-01 -.247E-01 0.204E-02
   -.240E+01 0.413E+01 -.405E+03   0.347E+01 -.605E+01 0.407E+03   -.107E+01 0.185E+01 -.222E+01   0.106E-02 0.513E-01 0.204E-02
   0.597E+01 0.185E-01 0.418E+03   -.387E+01 0.556E-02 -.420E+03   -.209E+01 0.569E-02 0.225E+01   -.304E-01 -.262E-01 0.327E-01
   -.297E+01 -.517E+01 0.418E+03   0.194E+01 0.335E+01 -.420E+03   0.105E+01 0.181E+01 0.225E+01   -.747E-02 0.394E-01 0.327E-01
   -.300E+01 0.516E+01 0.418E+03   0.193E+01 -.335E+01 -.420E+03   0.104E+01 -.182E+01 0.225E+01   0.379E-01 -.132E-01 0.327E-01
 -----------------------------------------------------------------------------------------------
   0.103E-03 0.478E-04 0.704E+00   -.200E-13 -.222E-14 0.000E+00   -.222E-15 -.222E-15 -.880E+00   -.436E-06 -.253E-06 0.191E+00


 POSITION                                       TOTAL-FORCE (eV/Angst)
 -----------------------------------------------------------------------------------
      3.17435      1.83271     11.07759         0.000000      0.000000     -0.097511
      6.34870      3.66542     11.08092        -0.000000      0.000000     -0.110234
      0.00000      0.00000      9.93180         0.000000      0.000000      0.257097
      0.00000      0.00000     12.28741        -0.000000      0.000000      0.067883
      4.00207      0.00088     12.63542        -0.012636      0.000942      0.014993
      1.17408      2.03181     12.63542         0.007134      0.010472      0.014993
      4.34691      3.46545     12.63542         0.005502     -0.011415      0.014993
      5.54932      5.49716      9.46843        -0.027695      0.002928     -0.054071
      8.33471      3.44183      9.46843         0.016383      0.022521     -0.054071
      5.16205      2.05728      9.46843         0.011312     -0.025449     -0.054071
 -----------------------------------------------------------------------------------
    total drift:                                0.000103      0.000048      0.014351


--------------------------------------------------------------------------------------------------------



  FREE ENERGIE OF THE ION-ELECTRON SYSTEM (eV)
  ---------------------------------------------------
  free  energy   TOTEN  =       -48.12283614 eV

  energy  without entropy=      -48.12283614  energy(sigma->0) =      -48.12283614

 d Force =-0.7489144E-05[-0.250E-04, 0.100E-04]  d Energy = 0.7761230E-04-0.851E-04
 d Force =-0.3832273E+00[-0.383E+00,-0.383E+00]  d Ewald  = 0.5193312E+01-0.558E+01


--------------------------------------------------------------------------------------------------------


    POTLOK:  cpu time   53.0400: real time   53.0606


--------------------------------------------------------------------------------------------------------




--------------------------------------------------------------------------------------------------------


  
 reached required accuracy - stopping structural energy minimisation
     LOOP+:  cpu time  293.5040: real time  295.1867
    4ORBIT:  cpu time    0.0000: real time    0.0000



 total charge     

# of ion       s       p       d       tot
------------------------------------------
    1        0.348   0.464   4.277   5.089
    2        0.348   0.464   4.274   5.085
    3        1.146   1.123   0.110   2.379
    4        1.087   1.323   0.000   2.411
    5        1.491   2.296   0.043   3.830
    6        1.479   2.279   0.044   3.802
    7        1.488   2.288   0.044   3.820
    8        1.484   2.321   0.036   3.840
    9        1.478   2.312   0.036   3.825
   10        1.482   2.314   0.036   3.831
--------------------------------------------------
tot         11.831  17.183   8.900  37.913



 magnetization (x)

# of ion       s       p       d       tot
------------------------------------------
    1        0.035   0.040   2.801   2.876
    2        0.035   0.040   2.800   2.875
    3        0.006   0.028  -0.001   0.032
    4       -0.031   0.002   0.000  -0.029
    5       -0.003  -0.105   0.004  -0.104
    6       -0.003  -0.100   0.005  -0.097
    7       -0.004  -0.110   0.005  -0.110
    8        0.000  -0.080   0.005  -0.074
    9       -0.001  -0.061   0.005  -0.057
   10       -0.001  -0.076   0.005  -0.071
--------------------------------------------------
tot          0.033  -0.422   5.630   5.241

 BZINTS: Fermi energy: -2.214159; 57.000000 electrons
         Band energy:-459.705702;  BLOECHL correction: -0.025098

 total amount of memory used by VASP MPI-rank0   131985. kBytes
=======================================================================

   base      :      30000. kBytes
   nonlr-proj:       9485. kBytes
   fftplans  :      11247. kBytes
   grid      :      68332. kBytes
   one-center:        311. kBytes
   wavefun   :      12610. kBytes

  
  
 General timing and accounting informations for this job:
 ========================================================
  
                  Total CPU time used (sec):     7974.068
                            User time (sec):     7734.940
                          System time (sec):      239.128
                         Elapsed time (sec):     8048.522
  
                   Maximum memory used (kb):      383512.
                   Average memory used (kb):           0.
  
                          Minor page faults:      8061535
                          Major page faults:            6
                 Voluntary context switches:          910
