PROCAR lm decomposed
# of k-points:    5         # of bands:   48         # of ions:   10

 k-point     1 :    0.00000000 0.00000000 0.00000000     weight = 0.04000000

band     1 # energy  -17.36954908 # occ.  1.00000000

ion      s     py     pz     px    dxy    dyz    dz2    dxz  x2-y2    tot
    1  0.014  0.000  0.000  0.000  0.000  0.000  0.000  0.000  0.000  0.015
    2  0.014  0.000  0.000  0.000  0.000  0.000  0.000  0.000  0.000  0.015
    3  0.042  0.000  0.001  0.000  0.000  0.000  0.000  0.000  0.000  0.043
    4  0.106  0.000  0.000  0.000  0.000  0.000  0.000  0.000  0.000  0.106
    5  0.114  0.000  0.001  0.001  0.000  0.000  0.000  0.000  0.000  0.117
    6  0.114  0.001  0.001  0.000  0.000  0.000  0.000  0.000  0.000  0.117
    7  0.114  0.001  0.001  0.000  0.000  0.000  0.000  0.000  0.000  0.117
    8  0.042  0.000  0.001  0.000  0.000  0.000  0.000  0.000  0.000  0.043
    9  0.042  0.000  0.001  0.000  0.000  0.000  0.000  0.000  0.000  0.043
   10  0.042  0.000  0.001  0.000  0.000  0.000  0.000  0.000  0.000  0.043
tot    0.645  0.003  0.006  0.003  0.000  0.000  0.000  0.000  0.000  0.658

band     2 # energy  -16.31273822 # occ.  1.00000000

ion      s     py     pz     px    dxy    dyz    dz2    dxz  x2-y2    tot
    1  0.001  0.000  0.007  0.000  0.000  0.000  0.000  0.000  0.000  0.009
    2  0.001  0.000  0.007  0.000  0.000  0.000  0.000  0.000  0.000  0.009
    3  0.053  0.000  0.002  0.000  0.000  0.000  0.001  0.000  0.000  0.056
    4  0.026  0.000  0.001  0.000  0.000  0.000  0.000  0.000  0.000  0.027
    5  0.051  0.000  0.000  0.001  0.000  0.000  0.000  0.000  0.000  0.052
    6  0.051  0.000  0.000  0.000  0.000  0.000  0.000  0.000  0.000  0.052
    7  0.051  0.000  0.000  0.000  0.000  0.000  0.000  0.000  0.000  0.052
    8  0.151  0.000  0.000  0.001  0.000  0.000  0.000  0.000  0.000  0.152
    9  0.151  0.000  0.000  0.000  0.000  0.000  0.000  0.000  0.000  0.152
   10  0.151  0.000  0.000  0.000  0.000  0.000  0.000  0.000  0.000  0.152
tot    0.688  0.002  0.018  0.002  0.000  0.000  0.002  0.000  0.000  0.712

band     3 # energy  -15.43410362 # occ.  1.00000000

ion      s     py     pz     px    dxy    dyz    dz2    dxz  x2-y2    tot
    1  0.000  0.004  0.000  0.002  0.001  0.003  0.000  0.002  0.001  0.012
    2  0.000  0.005  0.000  0.000  0.002  0.004  0.000  0.000  0.001  0.012
    3  0.000  0.000  0.000  0.000  0.000  0.000  0.000  0.000  0.000  0.000
    4  0.000  0.000  0.000  0.016  0.000  0.000  0.000  0.000  0.000  0.017
    5  0.461  0.000  0.002  0.002  0.000  0.000  0.000  0.000  0.000  0.464
    6  0.194  0.001  0.001  0.000  0.000  0.000  0.000  0.000  0.000  0.196
    7  0.057  0.000  0.000  0.000  0.000  0.000  0.000  0.000  0.000  0.057
    8  0.001  0.000  0.000  0.000  0.000  0.000  0.000  0.000  0.000  0.001
    9  0.000  0.000  0.000  0.000  0.000  0.000  0.000  0.000  0.000  0.000
   10  0.000  0.000  0.000  0.000  0.000  0.000  0.000  0.000  0.000  0.000
tot    0.713  0.010  0.002  0.020  0.003  0.007  0.000  0.002  0.002  0.760

band     4 # energy  -15.43406918 # occ.  1.00000000

ion      s     py     pz     px    dxy    dyz    dz2    dxz  x2-y2    tot
    1  0.000  0.002  0.000  0.004  0.001  0.002  0.000  0.003  0.001  0.012
    2  0.000  0.000  0.000  0.005  0.001  0.000  0.000  0.004  0.002  0.012
    3  0.000  0.000  0.000  0.000  0.000  0.000  0.000  0.000  0.000  0.000
    4  0.000  0.016  0.000  0.000  0.000  0.000  0.000  0.000  0.000  0.017
    5  0.014  0.000  0.000  0.000  0.000  0.000  0.000  0.000  0.000  0.014
    6  0.280  0.001  0.001  0.000  0.000  0.000  0.000  0.000  0.000  0.282
    7  0.418  0.001  0.001  0.000  0.000  0.000  0.000  0.000  0.000  0.421
    8  0.000  0.000  0.000  0.000  0.000  0.000  0.000  0.000  0.000  0.000
    9  0.000  0.000  0.000  0.000  0.000  0.000  0.000  0.000  0.000  0.000
   10  0.001  0.000  0.000  0.000  0.000  0.000  0.000  0.000  0.000  0.001
tot    0.713  0.020  0.002  0.010  0.002  0.002  0.000  0.007  0.003  0.760

band     5 # energy  -15.18445918 # occ.  1.00000000

ion      s     py     pz     px    dxy    dyz    dz2    dxz  x2-y2    tot
    1  0.000  0.004  0.000  0.000  0.002  0.005  0.000  0.000  0.001  0.012
    2  0.000  0.003  0.000  0.002  0.001  0.003  0.000  0.001  0.001  0.012
    3  0.000  0.001  0.000  0.018  0.000  0.000  0.000  0.000  0.002  0.021
    4  0.000  0.000  0.000  0.000  0.000  0.000  0.000  0.000  0.000  0.000
    5  0.000  0.000  0.000  0.000  0.000  0.000  0.000  0.000  0.000  0.001
    6  0.000  0.000  0.000  0.000  0.000  0.000  0.000  0.000  0.000  0.000
    7  0.000  0.000  0.000  0.000  0.000  0.000  0.000  0.000  0.000  0.000
    8  0.465  0.000  0.002  0.001  0.000  0.000  0.000  0.000  0.000  0.468
    9  0.204  0.000  0.001  0.000  0.000  0.000  0.000  0.000  0.000  0.205
   10  0.053  0.000  0.000  0.000  0.000  0.000  0.000  0.000  0.000  0.054
tot    0.723  0.008  0.002  0.022  0.003  0.008  0.000  0.002  0.004  0.773

band     6 # energy  -15.18442596 # occ.  1.00000000

ion      s     py     pz     px    dxy    dyz    dz2    dxz  x2-y2    tot
    1  0.000  0.000  0.000  0.004  0.001  0.000  0.000  0.005  0.002  0.012
    2  0.000  0.002  0.000  0.003  0.001  0.001  0.000  0.003  0.001  0.012
    3  0.000  0.018  0.000  0.001  0.002  0.000  0.000  0.000  0.000  0.021
    4  0.000  0.000  0.000  0.000  0.000  0.000  0.000  0.000  0.000  0.000
    5  0.000  0.000  0.000  0.000  0.000  0.000  0.000  0.000  0.000  0.000
    6  0.000  0.000  0.000  0.000  0.000  0.000  0.000  0.000  0.000  0.000
    7  0.000  0.000  0.000  0.000  0.000  0.000  0.000  0.000  0.000  0.001
    8  0.016  0.000  0.000  0.000  0.000  0.000  0.000  0.000  0.000  0.016
    9  0.278  0.001  0.001  0.000  0.000  0.000  0.000  0.000  0.000  0.280
   10  0.428  0.001  0.001  0.000  0.000  0.000  0.000  0.000  0.000  0.431
tot    0.723  0.022  0.002  0.008  0.004  0.002  0.000  0.008  0.003  0.773

band     7 # energy  -13.03441445 # occ.  1.00000000

ion      s     py     pz     px    dxy    dyz    dz2    dxz  x2-y2    tot
    1  0.012  0.000  0.001  0.000  0.000  0.000  0.001  0.000  0.000  0.014
    2  0.012  0.000  0.001  0.000  0.000  0.000  0.001  0.000  0.000  0.014
    3  0.099  0.000  0.014  0.000  0.000  0.000  0.002  0.000  0.000  0.115
    4  0.277  0.000  0.008  0.000  0.000  0.000  0.000  0.000  0.000  0.284
    5  0.052  0.000  0.000  0.014  0.000  0.000  0.000  0.000  0.001  0.068
    6  0.052  0.011  0.000  0.004  0.001  0.000  0.000  0.000  0.000  0.068
    7  0.052  0.011  0.000  0.004  0.001  0.000  0.000  0.000  0.000  0.068
    8  0.009  0.000  0.000  0.003  0.000  0.000  0.000  0.000  0.000  0.013
    9  0.009  0.003  0.000  0.001  0.000  0.000  0.000  0.000  0.000  0.013
   10  0.009  0.003  0.000  0.001  0.000  0.000  0.000  0.000  0.000  0.013
tot    0.585  0.026  0.024  0.026  0.002  0.001  0.003  0.001  0.002  0.669

band     8 # energy  -10.39241820 # occ.  1.00000000

ion      s     py     pz     px    dxy    dyz    dz2    dxz  x2-y2    tot
    1  0.000  0.000  0.007  0.000  0.000  0.000  0.000  0.000  0.000  0.007
    2  0.000  0.000  0.007  0.000  0.000  0.000  0.000  0.000  0.000  0.007
    3  0.351  0.000  0.001  0.000  0.000  0.000  0.000  0.000  0.000  0.352
    4  0.090  0.000  0.019  0.000  0.000  0.000  0.000  0.000  0.000  0.109
    5  0.007  0.000  0.000  0.011  0.000  0.000  0.000  0.000  0.001  0.019
    6  0.007  0.008  0.000  0.003  0.001  0.000  0.000  0.000  0.000  0.019
    7  0.007  0.008  0.000  0.003  0.001  0.000  0.000  0.000  0.000  0.019
    8  0.023  0.000  0.000  0.028  0.000  0.000  0.000  0.000  0.002  0.053
    9  0.023  0.021  0.000  0.007  0.001  0.000  0.000  0.000  0.000  0.053
   10  0.023  0.021  0.000  0.007  0.001  0.000  0.000  0.000  0.000  0.053
tot    0.531  0.058  0.035  0.058  0.003  0.000  0.002  0.000  0.003  0.692

band     9 # energy   -8.21035706 # occ.  1.00000000

ion      s     py     pz     px    dxy    dyz    dz2    dxz  x2-y2    tot
    1  0.000  0.006  0.000  0.000  0.004  0.023  0.000  0.007  0.000  0.039
    2  0.000  0.000  0.000  0.006  0.000  0.013  0.000  0.017  0.004  0.039
    3  0.000  0.008  0.000  0.012  0.000  0.000  0.000  0.000  0.000  0.021
    4  0.000  0.042  0.000  0.067  0.000  0.000  0.000  0.000  0.000  0.109
    5  0.007  0.012  0.000  0.080  0.000  0.000  0.000  0.001  0.000  0.100
    6  0.010  0.104  0.001  0.012  0.000  0.001  0.000  0.000  0.000  0.128
    7  0.000  0.002  0.000  0.031  0.000  0.000  0.000  0.000  0.001  0.034
    8  0.003  0.002  0.003  0.010  0.000  0.000  0.000  0.000  0.000  0.018
    9  0.004  0.014  0.004  0.001  0.000  0.000  0.000  0.000  0.000  0.023
   10  0.000  0.000  0.000  0.005  0.000  0.000  0.000  0.000  0.000  0.006
tot    0.024  0.189  0.007  0.225  0.005  0.037  0.000  0.025  0.005  0.517

band    10 # energy   -8.21033810 # occ.  1.00000000

ion      s     py     pz     px    dxy    dyz    dz2    dxz  x2-y2    tot
    1  0.000  0.000  0.000  0.006  0.000  0.007  0.000  0.023  0.004  0.039
    2  0.000  0.006  0.000  0.000  0.004  0.017  0.000  0.013  0.000  0.039
    3  0.000  0.012  0.000  0.008  0.000  0.000  0.000  0.000  0.000  0.021
    4  0.000  0.067  0.000  0.042  0.000  0.000  0.000  0.000  0.000  0.109
    5  0.004  0.019  0.000  0.050  0.001  0.000  0.000  0.000  0.000  0.075
    6  0.002  0.001  0.000  0.043  0.000  0.000  0.000  0.000  0.000  0.047
    7  0.011  0.103  0.001  0.024  0.000  0.001  0.000  0.000  0.000  0.141
    8  0.002  0.003  0.002  0.006  0.000  0.000  0.000  0.000  0.000  0.013
    9  0.001  0.000  0.001  0.007  0.000  0.000  0.000  0.000  0.000  0.008
   10  0.004  0.014  0.004  0.003  0.000  0.000  0.000  0.000  0.000  0.025
tot    0.024  0.225  0.007  0.189  0.005  0.025  0.000  0.037  0.005  0.517

band    11 # energy   -7.78693373 # occ.  1.00000000

ion      s     py     pz     px    dxy    dyz    dz2    dxz  x2-y2    tot
    1  0.043  0.000  0.000  0.000  0.000  0.000  0.015  0.000  0.000  0.058
    2  0.043  0.000  0.000  0.000  0.000  0.000  0.015  0.000  0.000  0.058
    3  0.008  0.000  0.059  0.000  0.000  0.000  0.001  0.000  0.000  0.069
    4  0.000  0.000  0.057  0.000  0.000  0.000  0.000  0.000  0.000  0.057
    5  0.003  0.000  0.039  0.005  0.000  0.000  0.000  0.000  0.000  0.047
    6  0.003  0.004  0.039  0.001  0.000  0.000  0.000  0.000  0.000  0.047
    7  0.003  0.004  0.039  0.001  0.000  0.000  0.000  0.000  0.000  0.047
    8  0.002  0.000  0.030  0.011  0.000  0.000  0.000  0.000  0.000  0.044
    9  0.002  0.008  0.030  0.003  0.000  0.000  0.000  0.000  0.000  0.044
   10  0.002  0.008  0.030  0.003  0.000  0.000  0.000  0.000  0.000  0.044
tot    0.110  0.024  0.324  0.024  0.001  0.000  0.033  0.000  0.001  0.516

band    12 # energy   -7.54840983 # occ.  1.00000000

ion      s     py     pz     px    dxy    dyz    dz2    dxz  x2-y2    tot
    1  0.083  0.000  0.000  0.000  0.000  0.000  0.025  0.000  0.000  0.109
    2  0.083  0.000  0.000  0.000  0.000  0.000  0.025  0.000  0.000  0.109
    3  0.000  0.000  0.000  0.000  0.000  0.000  0.000  0.000  0.000  0.000
    4  0.000  0.000  0.000  0.000  0.000  0.000  0.000  0.000  0.000  0.000
    5  0.000  0.063  0.000  0.000  0.000  0.000  0.000  0.000  0.000  0.064
    6  0.000  0.016  0.000  0.047  0.000  0.000  0.000  0.000  0.000  0.064
    7  0.000  0.016  0.000  0.047  0.000  0.000  0.000  0.000  0.000  0.064
    8  0.000  0.055  0.000  0.000  0.000  0.000  0.000  0.000  0.000  0.055
    9  0.000  0.014  0.000  0.041  0.000  0.000  0.000  0.000  0.000  0.055
   10  0.000  0.014  0.000  0.041  0.000  0.000  0.000  0.000  0.000  0.055
tot    0.166  0.177  0.000  0.177  0.001  0.001  0.051  0.001  0.001  0.576

band    13 # energy   -7.44663780 # occ.  1.00000000

ion      s     py     pz     px    dxy    dyz    dz2    dxz  x2-y2    tot
    1  0.000  0.011  0.000  0.007  0.000  0.001  0.000  0.017  0.012  0.048
    2  0.000  0.017  0.000  0.000  0.006  0.013  0.000  0.005  0.006  0.047
    3  0.000  0.013  0.000  0.071  0.000  0.000  0.000  0.001  0.000  0.086
    4  0.000  0.002  0.000  0.011  0.000  0.000  0.000  0.000  0.000  0.012
    5  0.000  0.001  0.010  0.022  0.000  0.000  0.001  0.000  0.000  0.033
    6  0.000  0.018  0.007  0.001  0.000  0.000  0.000  0.000  0.000  0.026
    7  0.000  0.003  0.000  0.003  0.000  0.000  0.000  0.000  0.000  0.006
    8  0.001  0.006  0.002  0.120  0.000  0.000  0.000  0.001  0.000  0.130
    9  0.001  0.103  0.001  0.002  0.000  0.001  0.000  0.000  0.000  0.109
   10  0.000  0.019  0.000  0.022  0.000  0.000  0.000  0.000  0.001  0.042
tot    0.003  0.192  0.020  0.258  0.007  0.015  0.002  0.024  0.020  0.539

band    14 # energy   -7.44661796 # occ.  1.00000000

ion      s     py     pz     px    dxy    dyz    dz2    dxz  x2-y2    tot
    1  0.000  0.007  0.000  0.011  0.012  0.017  0.000  0.001  0.000  0.048
    2  0.000  0.000  0.000  0.017  0.006  0.005  0.000  0.013  0.006  0.047
    3  0.000  0.071  0.000  0.013  0.000  0.001  0.000  0.000  0.000  0.086
    4  0.000  0.011  0.000  0.002  0.000  0.000  0.000  0.000  0.000  0.012
    5  0.000  0.005  0.002  0.004  0.000  0.000  0.000  0.000  0.000  0.011
    6  0.000  0.003  0.004  0.010  0.000  0.000  0.000  0.000  0.000  0.017
    7  0.000  0.018  0.011  0.008  0.000  0.000  0.001  0.000  0.000  0.038
    8  0.000  0.033  0.000  0.022  0.001  0.000  0.000  0.000  0.000  0.057
    9  0.001  0.013  0.001  0.063  0.000  0.000  0.000  0.000  0.000  0.078
   10  0.002  0.098  0.002  0.043  0.000  0.001  0.000  0.000  0.000  0.145
tot    0.003  0.259  0.020  0.192  0.020  0.024  0.002  0.015  0.007  0.539

band    15 # energy   -6.26697489 # occ.  1.00000000

ion      s     py     pz     px    dxy    dyz    dz2    dxz  x2-y2    tot
    1  0.000  0.000  0.050  0.000  0.000  0.000  0.000  0.000  0.000  0.050
    2  0.000  0.000  0.050  0.000  0.000  0.000  0.000  0.000  0.000  0.050
    3  0.000  0.000  0.000  0.000  0.000  0.000  0.000  0.000  0.000  0.000
    4  0.000  0.000  0.000  0.000  0.000  0.000  0.000  0.000  0.000  0.000
    5  0.000  0.070  0.000  0.000  0.000  0.000  0.000  0.000  0.000  0.070
    6  0.000  0.017  0.000  0.052  0.000  0.000  0.000  0.000  0.000  0.070
    7  0.000  0.017  0.000  0.052  0.000  0.000  0.000  0.000  0.000  0.070
    8  0.000  0.077  0.000  0.000  0.000  0.000  0.000  0.000  0.000  0.078
    9  0.000  0.019  0.000  0.058  0.000  0.000  0.000  0.000  0.000  0.078
   10  0.000  0.019  0.000  0.058  0.000  0.000  0.000  0.000  0.000  0.078
tot    0.000  0.220  0.101  0.220  0.001  0.000  0.000  0.000  0.001  0.544

band    16 # energy   -5.56231459 # occ.  1.00000000

ion      s     py     pz     px    dxy    dyz    dz2    dxz  x2-y2    tot
    1  0.000  0.002  0.000  0.000  0.000  0.000  0.000  0.101  0.122  0.225
    2  0.000  0.002  0.000  0.000  0.001  0.000  0.000  0.100  0.120  0.222
    3  0.000  0.000  0.000  0.000  0.000  0.000  0.000  0.000  0.001  0.001
    4  0.000  0.000  0.000  0.000  0.000  0.000  0.000  0.000  0.000  0.000
    5  0.002  0.000  0.051  0.005  0.000  0.000  0.000  0.000  0.000  0.058
    6  0.000  0.005  0.014  0.039  0.000  0.000  0.000  0.001  0.000  0.061
    7  0.000  0.006  0.011  0.041  0.000  0.000  0.000  0.001  0.000  0.060
    8  0.002  0.000  0.038  0.002  0.000  0.000  0.000  0.000  0.000  0.043
    9  0.001  0.005  0.011  0.027  0.000  0.000  0.000  0.001  0.000  0.045
   10  0.000  0.006  0.009  0.029  0.000  0.000  0.000  0.001  0.000  0.045
tot    0.005  0.026  0.134  0.144  0.001  0.000  0.001  0.205  0.243  0.759

band    17 # energy   -5.56230395 # occ.  1.00000000

ion      s     py     pz     px    dxy    dyz    dz2    dxz  x2-y2    tot
    1  0.000  0.000  0.000  0.002  0.122  0.101  0.000  0.000  0.000  0.225
    2  0.000  0.000  0.000  0.002  0.120  0.100  0.000  0.000  0.001  0.222
    3  0.000  0.000  0.000  0.000  0.001  0.000  0.000  0.000  0.000  0.001
    4  0.000  0.000  0.000  0.000  0.000  0.000  0.000  0.000  0.000  0.000
    5  0.000  0.060  0.000  0.000  0.000  0.001  0.000  0.000  0.000  0.061
    6  0.001  0.014  0.036  0.007  0.000  0.000  0.000  0.000  0.000  0.059
    7  0.001  0.012  0.040  0.005  0.000  0.000  0.000  0.000  0.000  0.059
    8  0.000  0.045  0.000  0.000  0.000  0.001  0.000  0.000  0.000  0.046
    9  0.001  0.007  0.028  0.006  0.000  0.000  0.000  0.000  0.000  0.044
   10  0.001  0.006  0.030  0.005  0.000  0.000  0.000  0.000  0.000  0.043
tot    0.005  0.144  0.134  0.026  0.243  0.205  0.001  0.000  0.001  0.759

band    18 # energy   -5.23331455 # occ.  1.00000000

ion      s     py     pz     px    dxy    dyz    dz2    dxz  x2-y2    tot
    1  0.000  0.000  0.000  0.001  0.083  0.080  0.000  0.009  0.007  0.181
    2  0.000  0.000  0.000  0.001  0.076  0.076  0.000  0.014  0.016  0.183
    3  0.000  0.000  0.000  0.000  0.000  0.000  0.000  0.002  0.000  0.003
    4  0.000  0.000  0.000  0.001  0.000  0.000  0.000  0.000  0.000  0.001
    5  0.005  0.001  0.092  0.001  0.000  0.000  0.000  0.000  0.000  0.099
    6  0.003  0.002  0.063  0.002  0.000  0.000  0.000  0.000  0.000  0.071
    7  0.000  0.002  0.003  0.006  0.000  0.000  0.000  0.000  0.000  0.011
    8  0.004  0.001  0.083  0.003  0.000  0.000  0.000  0.000  0.000  0.092
    9  0.003  0.004  0.057  0.000  0.000  0.000  0.000  0.000  0.000  0.064
   10  0.000  0.002  0.003  0.003  0.000  0.000  0.000  0.000  0.000  0.008
tot    0.016  0.013  0.300  0.017  0.159  0.157  0.000  0.026  0.024  0.712

band    19 # energy   -5.23329737 # occ.  1.00000000

ion      s     py     pz     px    dxy    dyz    dz2    dxz  x2-y2    tot
    1  0.000  0.001  0.000  0.000  0.007  0.009  0.000  0.080  0.083  0.181
    2  0.000  0.001  0.000  0.000  0.016  0.014  0.000  0.076  0.076  0.183
    3  0.000  0.000  0.000  0.000  0.000  0.002  0.000  0.000  0.000  0.003
    4  0.000  0.001  0.000  0.000  0.000  0.000  0.000  0.000  0.000  0.001
    5  0.001  0.007  0.013  0.000  0.000  0.000  0.000  0.000  0.000  0.022
    6  0.002  0.000  0.042  0.005  0.000  0.000  0.000  0.000  0.000  0.050
    7  0.005  0.000  0.102  0.001  0.000  0.000  0.000  0.000  0.000  0.109
    8  0.001  0.004  0.012  0.000  0.000  0.000  0.000  0.000  0.000  0.017
    9  0.002  0.000  0.038  0.004  0.000  0.000  0.000  0.000  0.000  0.045
   10  0.005  0.002  0.093  0.002  0.000  0.000  0.000  0.000  0.000  0.102
tot    0.016  0.017  0.300  0.013  0.024  0.026  0.000  0.157  0.159  0.712

band    20 # energy   -5.17258853 # occ.  1.00000000

ion      s     py     pz     px    dxy    dyz    dz2    dxz  x2-y2    tot
    1  0.003  0.000  0.000  0.000  0.000  0.000  0.131  0.000  0.000  0.135
    2  0.003  0.000  0.000  0.000  0.000  0.000  0.130  0.000  0.000  0.133
    3  0.000  0.000  0.069  0.000  0.000  0.000  0.009  0.000  0.000  0.078
    4  0.003  0.000  0.120  0.000  0.000  0.000  0.000  0.000  0.000  0.123
    5  0.000  0.000  0.004  0.014  0.000  0.000  0.000  0.001  0.000  0.020
    6  0.000  0.011  0.004  0.004  0.000  0.001  0.000  0.000  0.000  0.020
    7  0.000  0.011  0.004  0.004  0.000  0.001  0.000  0.000  0.000  0.020
    8  0.000  0.000  0.024  0.014  0.000  0.000  0.000  0.000  0.000  0.038
    9  0.000  0.010  0.024  0.003  0.000  0.000  0.000  0.000  0.000  0.038
   10  0.000  0.010  0.024  0.003  0.000  0.000  0.000  0.000  0.000  0.038
tot    0.010  0.042  0.272  0.042  0.001  0.001  0.271  0.001  0.001  0.642

band    21 # energy   -4.60084397 # occ.  1.00000000

ion      s     py     pz     px    dxy    dyz    dz2    dxz  x2-y2    tot
    1  0.000  0.016  0.000  0.001  0.003  0.001  0.000  0.044  0.000  0.066
    2  0.000  0.017  0.000  0.001  0.003  0.001  0.000  0.044  0.000  0.065
    3  0.000  0.000  0.000  0.015  0.000  0.000  0.000  0.000  0.003  0.017
    4  0.000  0.000  0.000  0.029  0.000  0.000  0.000  0.000  0.000  0.029
    5  0.007  0.000  0.077  0.031  0.000  0.000  0.000  0.000  0.002  0.117
    6  0.002  0.000  0.018  0.041  0.000  0.000  0.000  0.001  0.000  0.062
    7  0.002  0.000  0.021  0.040  0.000  0.000  0.000  0.001  0.000  0.064
    8  0.005  0.000  0.103  0.023  0.000  0.000  0.000  0.000  0.000  0.131
    9  0.001  0.000  0.024  0.012  0.000  0.000  0.000  0.000  0.000  0.038
   10  0.001  0.001  0.028  0.012  0.000  0.000  0.000  0.000  0.000  0.043
tot    0.017  0.035  0.271  0.205  0.007  0.002  0.000  0.090  0.006  0.631

band    22 # energy   -4.60083135 # occ.  1.00000000

ion      s     py     pz     px    dxy    dyz    dz2    dxz  x2-y2    tot
    1  0.000  0.001  0.000  0.016  0.000  0.044  0.000  0.001  0.003  0.066
    2  0.000  0.001  0.000  0.017  0.000  0.044  0.000  0.001  0.003  0.065
    3  0.000  0.015  0.000  0.000  0.003  0.000  0.000  0.000  0.000  0.017
    4  0.000  0.029  0.000  0.000  0.000  0.000  0.000  0.000  0.000  0.029
    5  0.000  0.044  0.000  0.000  0.000  0.001  0.000  0.000  0.000  0.045
    6  0.005  0.034  0.059  0.000  0.001  0.000  0.000  0.000  0.000  0.100
    7  0.005  0.034  0.057  0.000  0.001  0.000  0.000  0.000  0.000  0.097
    8  0.000  0.009  0.000  0.000  0.000  0.001  0.000  0.000  0.000  0.010
    9  0.004  0.019  0.079  0.001  0.000  0.000  0.000  0.000  0.000  0.103
   10  0.003  0.019  0.075  0.000  0.000  0.000  0.000  0.000  0.000  0.099
tot    0.017  0.205  0.271  0.035  0.006  0.090  0.000  0.002  0.007  0.631

band    23 # energy   -4.55086178 # occ.  1.00000000

ion      s     py     pz     px    dxy    dyz    dz2    dxz  x2-y2    tot
    1  0.000  0.000  0.012  0.000  0.000  0.000  0.016  0.000  0.000  0.028
    2  0.000  0.000  0.012  0.000  0.000  0.000  0.017  0.000  0.000  0.029
    3  0.004  0.000  0.019  0.000  0.000  0.000  0.001  0.000  0.000  0.025
    4  0.000  0.000  0.003  0.000  0.000  0.000  0.000  0.000  0.000  0.003
    5  0.001  0.000  0.072  0.001  0.000  0.000  0.000  0.000  0.000  0.073
    6  0.001  0.001  0.072  0.000  0.000  0.000  0.000  0.000  0.000  0.073
    7  0.001  0.001  0.072  0.000  0.000  0.000  0.000  0.000  0.000  0.073
    8  0.000  0.000  0.073  0.001  0.000  0.000  0.000  0.000  0.000  0.075
    9  0.000  0.001  0.073  0.000  0.000  0.000  0.000  0.000  0.000  0.075
   10  0.000  0.001  0.073  0.000  0.000  0.000  0.000  0.000  0.000  0.075
tot    0.007  0.003  0.480  0.003  0.000  0.000  0.034  0.000  0.000  0.528

band    24 # energy   -3.77821848 # occ.  1.00000000

ion      s     py     pz     px    dxy    dyz    dz2    dxz  x2-y2    tot
    1  0.000  0.000  0.000  0.005  0.232  0.161  0.000  0.000  0.000  0.399
    2  0.000  0.003  0.000  0.003  0.091  0.066  0.000  0.087  0.128  0.377
    3  0.000  0.000  0.000  0.000  0.001  0.000  0.000  0.000  0.000  0.002
    4  0.000  0.014  0.000  0.003  0.000  0.000  0.000  0.000  0.000  0.017
    5  0.000  0.000  0.002  0.000  0.001  0.000  0.000  0.000  0.000  0.003
    6  0.000  0.001  0.009  0.000  0.002  0.000  0.000  0.000  0.000  0.013
    7  0.000  0.000  0.003  0.000  0.001  0.000  0.000  0.000  0.000  0.005
    8  0.000  0.007  0.003  0.000  0.001  0.000  0.000  0.000  0.000  0.012
    9  0.001  0.001  0.017  0.000  0.000  0.000  0.000  0.000  0.000  0.020
   10  0.000  0.003  0.005  0.003  0.000  0.000  0.000  0.000  0.001  0.013
tot    0.002  0.029  0.039  0.016  0.329  0.228  0.001  0.088  0.130  0.862

band    25 # energy   -3.77821626 # occ.  1.00000000

ion      s     py     pz     px    dxy    dyz    dz2    dxz  x2-y2    tot
    1  0.000  0.005  0.000  0.000  0.000  0.000  0.000  0.161  0.232  0.399
    2  0.000  0.003  0.000  0.003  0.128  0.087  0.000  0.066  0.091  0.377
    3  0.000  0.000  0.000  0.000  0.000  0.000  0.000  0.000  0.001  0.002
    4  0.000  0.003  0.000  0.014  0.000  0.000  0.000  0.000  0.000  0.017
    5  0.000  0.000  0.008  0.001  0.000  0.000  0.000  0.000  0.002  0.011
    6  0.000  0.000  0.000  0.000  0.000  0.000  0.000  0.000  0.001  0.001
    7  0.000  0.001  0.006  0.000  0.000  0.000  0.000  0.000  0.001  0.009
    8  0.001  0.002  0.013  0.001  0.000  0.000  0.000  0.000  0.000  0.018
    9  0.000  0.002  0.000  0.006  0.000  0.000  0.000  0.000  0.001  0.010
   10  0.001  0.000  0.012  0.004  0.000  0.000  0.000  0.000  0.001  0.017
tot    0.002  0.016  0.039  0.029  0.130  0.088  0.001  0.228  0.329  0.862

band    26 # energy   -3.63386604 # occ.  1.00000000

ion      s     py     pz     px    dxy    dyz    dz2    dxz  x2-y2    tot
    1  0.000  0.000  0.000  0.002  0.214  0.139  0.000  0.005  0.000  0.361
    2  0.000  0.001  0.000  0.001  0.105  0.039  0.000  0.114  0.122  0.382
    3  0.000  0.006  0.000  0.027  0.000  0.000  0.000  0.000  0.001  0.033
    4  0.000  0.002  0.000  0.007  0.000  0.000  0.000  0.000  0.000  0.009
    5  0.002  0.002  0.002  0.003  0.000  0.000  0.001  0.000  0.000  0.010
    6  0.000  0.002  0.000  0.007  0.000  0.000  0.000  0.000  0.001  0.010
    7  0.002  0.000  0.002  0.005  0.000  0.000  0.001  0.000  0.000  0.010
    8  0.002  0.002  0.000  0.023  0.000  0.000  0.000  0.000  0.001  0.029
    9  0.000  0.001  0.000  0.008  0.000  0.000  0.000  0.000  0.000  0.009
   10  0.002  0.008  0.000  0.013  0.001  0.000  0.000  0.000  0.000  0.025
tot    0.007  0.023  0.004  0.097  0.321  0.178  0.002  0.119  0.126  0.877

band    27 # energy   -3.63385368 # occ.  1.00000000

ion      s     py     pz     px    dxy    dyz    dz2    dxz  x2-y2    tot
    1  0.000  0.002  0.000  0.000  0.000  0.005  0.000  0.139  0.214  0.361
    2  0.000  0.001  0.000  0.001  0.122  0.114  0.000  0.039  0.105  0.382
    3  0.000  0.027  0.000  0.006  0.001  0.000  0.000  0.000  0.000  0.033
    4  0.000  0.007  0.000  0.002  0.000  0.000  0.000  0.000  0.000  0.009
    5  0.000  0.008  0.000  0.001  0.001  0.000  0.000  0.000  0.000  0.010
    6  0.002  0.003  0.002  0.000  0.000  0.000  0.001  0.000  0.000  0.010
    7  0.001  0.005  0.001  0.003  0.000  0.000  0.000  0.000  0.001  0.010
    8  0.000  0.007  0.000  0.005  0.000  0.000  0.000  0.000  0.000  0.013
    9  0.002  0.022  0.000  0.006  0.001  0.000  0.001  0.000  0.000  0.033
   10  0.001  0.015  0.000  0.000  0.001  0.000  0.000  0.000  0.000  0.017
tot    0.007  0.097  0.004  0.023  0.126  0.119  0.002  0.178  0.321  0.877

band    28 # energy   -3.61403736 # occ.  1.00000000

ion      s     py     pz     px    dxy    dyz    dz2    dxz  x2-y2    tot
    1  0.013  0.000  0.000  0.000  0.000  0.000  0.444  0.000  0.000  0.458
    2  0.014  0.000  0.000  0.000  0.000  0.000  0.427  0.000  0.000  0.440
    3  0.000  0.000  0.000  0.000  0.000  0.000  0.000  0.000  0.000  0.000
    4  0.000  0.000  0.000  0.000  0.000  0.000  0.000  0.000  0.000  0.000
    5  0.000  0.003  0.000  0.000  0.000  0.001  0.000  0.000  0.000  0.003
    6  0.000  0.001  0.000  0.002  0.000  0.000  0.000  0.000  0.000  0.003
    7  0.000  0.001  0.000  0.002  0.000  0.000  0.000  0.000  0.000  0.003
    8  0.000  0.003  0.000  0.000  0.000  0.000  0.000  0.000  0.000  0.004
    9  0.000  0.001  0.000  0.002  0.000  0.000  0.000  0.000  0.000  0.004
   10  0.000  0.001  0.000  0.002  0.000  0.000  0.000  0.000  0.000  0.004
tot    0.027  0.009  0.000  0.009  0.000  0.001  0.871  0.001  0.000  0.919

band    29 # energy   -3.43367290 # occ.  1.00000000

ion      s     py     pz     px    dxy    dyz    dz2    dxz  x2-y2    tot
    1  0.017  0.000  0.001  0.000  0.000  0.000  0.260  0.000  0.000  0.277
    2  0.016  0.000  0.001  0.000  0.000  0.000  0.278  0.000  0.000  0.294
    3  0.002  0.000  0.039  0.000  0.000  0.000  0.002  0.000  0.000  0.043
    4  0.002  0.000  0.045  0.000  0.000  0.000  0.000  0.000  0.000  0.047
    5  0.002  0.000  0.028  0.000  0.000  0.000  0.001  0.000  0.000  0.031
    6  0.002  0.000  0.028  0.000  0.000  0.000  0.001  0.000  0.000  0.031
    7  0.002  0.000  0.028  0.000  0.000  0.000  0.001  0.000  0.000  0.031
    8  0.002  0.000  0.008  0.002  0.000  0.000  0.001  0.000  0.000  0.013
    9  0.002  0.001  0.008  0.000  0.000  0.000  0.001  0.000  0.000  0.013
   10  0.002  0.001  0.008  0.000  0.000  0.000  0.001  0.000  0.000  0.013
tot    0.051  0.003  0.191  0.003  0.000  0.001  0.545  0.001  0.000  0.793

band    30 # energy   -3.30071123 # occ.  1.00000000

ion      s     py     pz     px    dxy    dyz    dz2    dxz  x2-y2    tot
    1  0.000  0.002  0.000  0.021  0.064  0.005  0.000  0.004  0.002  0.098
    2  0.000  0.001  0.000  0.022  0.058  0.009  0.000  0.000  0.009  0.099
    3  0.000  0.000  0.000  0.006  0.000  0.000  0.000  0.000  0.004  0.011
    4  0.000  0.000  0.000  0.003  0.000  0.000  0.000  0.000  0.000  0.003
    5  0.001  0.008  0.019  0.019  0.000  0.000  0.000  0.000  0.001  0.046
    6  0.000  0.017  0.001  0.088  0.000  0.000  0.000  0.000  0.000  0.107
    7  0.000  0.001  0.010  0.064  0.000  0.000  0.000  0.000  0.000  0.076
    8  0.001  0.009  0.008  0.037  0.000  0.000  0.000  0.000  0.001  0.055
    9  0.000  0.018  0.001  0.111  0.000  0.000  0.000  0.001  0.000  0.131
   10  0.000  0.000  0.004  0.087  0.000  0.000  0.000  0.000  0.000  0.092
tot    0.002  0.056  0.042  0.457  0.123  0.013  0.000  0.006  0.017  0.718

band    31 # energy   -3.30069086 # occ.  1.00000000

ion      s     py     pz     px    dxy    dyz    dz2    dxz  x2-y2    tot
    1  0.000  0.021  0.000  0.002  0.002  0.004  0.000  0.005  0.064  0.098
    2  0.000  0.022  0.000  0.001  0.009  0.000  0.000  0.009  0.058  0.099
    3  0.000  0.006  0.000  0.000  0.004  0.000  0.000  0.000  0.000  0.011
    4  0.000  0.003  0.000  0.000  0.000  0.000  0.000  0.000  0.000  0.003
    5  0.000  0.103  0.001  0.001  0.000  0.000  0.000  0.000  0.000  0.106
    6  0.001  0.026  0.019  0.000  0.000  0.000  0.000  0.000  0.000  0.046
    7  0.000  0.042  0.010  0.024  0.000  0.000  0.000  0.000  0.000  0.077
    8  0.000  0.126  0.001  0.003  0.000  0.001  0.000  0.000  0.000  0.130
    9  0.001  0.046  0.008  0.000  0.001  0.000  0.000  0.000  0.000  0.055