<?xml version="1.0" encoding="ISO-8859-1"?>
<modeling>
 <generator>
  <i name="program" type="string">vasp </i>
  <i name="version" type="string">5.4.4.18Apr17-6-g9f103f2a35  </i>
  <i name="subversion" type="string">(build May  1 2020 15:48:39) complex            parallel </i>
  <i name="platform" type="string">LinuxGNU </i>
  <i name="date" type="string">2020 06 16 </i>
  <i name="time" type="string">13:38:20 </i>
 </generator>
 <incar>
  <i type="int" name="ISTART">     1</i>
  <i type="string" name="PREC">accurate</i>
  <i type="string" name="ALGO"> Normal</i>
  <i type="int" name="ISPIN">     2</i>
  <i name="AMIN">      0.01000000</i>
  <i type="int" name="NELM">   400</i>
  <i type="int" name="IBRION">     2</i>
  <i name="EDIFF">      0.00010000</i>
  <i type="int" name="NSW">    99</i>
  <i type="int" name="ISIF">     3</i>
  <i name="ENCUT">    520.00000000</i>
  <v name="MAGMOM">      5.00000000      5.00000000      0.60000000      0.60000000      0.60000000      0.60000000      0.60000000      0.60000000      0.60000000      0.60000000</v>
  <i type="string" name="LREAL"> Auto</i>
  <i type="int" name="ISMEAR">    -5</i>
  <i name="SIGMA">      0.05000000</i>
  <i type="logical" name="LWAVE"> F  </i>
  <i type="int" name="LORBIT">    11</i>
  <v type="int" name="KPOINT_BSE">    -1     0     0     0</v>
  <i type="int" name="NELM">   400</i>
  <i type="string" name="GGA"> Bo</i>
  <i name="PARAM1">      0.18333333</i>
  <i name="PARAM2">      0.22000000</i>
  <i type="logical" name="LUSE_VDW"> T  </i>
  <i name="AGGAC">      0.00000000</i>
 </incar>
 <structure name="primitive_cell" >
  <crystal>
   <varray name="basis" >
    <v>       6.90777700      -0.00000000       0.00000000 </v>
    <v>       3.45388800       5.98231000       0.00000000 </v>
    <v>       0.00000000       0.00000000      23.44458800 </v>
   </varray>
   <i name="volume">    968.83501932 </i>
   <varray name="rec_basis" >
    <v>       0.14476437      -0.08357974       0.00000000 </v>
    <v>       0.00000000       0.16715951      -0.00000000 </v>
    <v>      -0.00000000       0.00000000       0.04265377 </v>
   </varray>
  </crystal>
  <varray name="positions" >
   <v>       0.33333300       0.33333300       0.49992500 </v>
   <v>       0.00042000       0.37322400      -0.42624800 </v>
   <v>      -0.37364300       0.00042000      -0.42624800 </v>
   <v>       0.37322400      -0.37364300      -0.42624800 </v>
   <v>       0.37364300      -0.00042000       0.42624800 </v>
   <v>      -0.37322400       0.37364300       0.42624800 </v>
   <v>      -0.00042000      -0.37322400       0.42624800 </v>
   <v>      -0.33333300      -0.33333300      -0.49992500 </v>
   <v>       0.00000000       0.00000000       0.44821600 </v>
   <v>       0.00000000       0.00000000      -0.44821600 </v>
  </varray>
 </structure>
 <varray name="primitive_index" >
  <v type="int" >        1 </v>
  <v type="int" >        6 </v>
  <v type="int" >        5 </v>
  <v type="int" >        7 </v>
  <v type="int" >        8 </v>
  <v type="int" >       10 </v>
  <v type="int" >        9 </v>
  <v type="int" >        2 </v>
  <v type="int" >        3 </v>
  <v type="int" >        4 </v>
 </varray>
 <kpoints>
  <generation param="Gamma">
   <v type="int" name="divisions">       5        5        1 </v>
   <v name="usershift">      0.00000000       0.00000000       0.00000000 </v>
   <v name="genvec1">      0.20000000       0.00000000       0.00000000 </v>
   <v name="genvec2">      0.00000000       0.20000000       0.00000000 </v>
   <v name="genvec3">      0.00000000       0.00000000       1.00000000 </v>
   <v name="shift">      0.00000000       0.00000000       0.00000000 </v>
  </generation>
  <varray name="kpointlist" >
   <v>       0.00000000       0.00000000       0.00000000 </v>
   <v>       0.20000000       0.00000000       0.00000000 </v>
   <v>       0.40000000       0.00000000       0.00000000 </v>
   <v>       0.40000000       0.20000000       0.00000000 </v>
   <v>      -0.40000000       0.20000000       0.00000000 </v>
  </varray>
  <varray name="weights" >
   <v>       0.04000000 </v>
   <v>       0.24000000 </v>
   <v>       0.24000000 </v>
   <v>       0.24000000 </v>
   <v>       0.24000000 </v>
  </varray>
  <varray name="tetrahedronlist"  type="int" >
   <v type="int" >        6        1        1        2        2 </v>
   <v type="int" >       12        1        2        2        2 </v>
   <v type="int" >       12        2        2        3        4 </v>
   <v type="int" >       12        2        2        2        4 </v>
   <v type="int" >       12        2        3        3        4 </v>
   <v type="int" >       12        2        3        4        4 </v>
   <v type="int" >        6        2        2        4        4 </v>
   <v type="int" >       12        3        3        3        5 </v>
   <v type="int" >       12        3        3        4        5 </v>
   <v type="int" >       12        3        4        4        5 </v>
   <v type="int" >        6        3        3        5        5 </v>
   <v type="int" >       12        3        4        5        5 </v>
   <v type="int" >        6        4        4        5        5 </v>
   <v type="int" >       12        4        5        5        5 </v>
   <v type="int" >        6        5        5        5        5 </v>
  </varray>
  <i name="volumeweight">      0.00666667 </i>
 </kpoints>
 <parameters>
  <separator name="general" >
   <i type="string" name="SYSTEM">unknown system</i>
   <i type="logical" name="LCOMPAT"> F  </i>
  </separator>
  <separator name="electronic" >
   <i type="string" name="PREC">accura</i>
   <i name="ENMAX">    520.00000000</i>
   <i name="ENAUG">    446.84200000</i>
   <i name="EDIFF">      0.00010000</i>
   <i type="int" name="IALGO">    38</i>
   <i type="int" name="IWAVPR">    11</i>
   <i type="int" name="NBANDS">    48</i>
   <i name="NELECT">     57.00000000</i>
   <i type="int" name="TURBO">     0</i>
   <i type="int" name="IRESTART">     0</i>
   <i type="int" name="NREBOOT">     0</i>
   <i type="int" name="NMIN">     0</i>
   <i name="EREF">      0.00000000</i>
   <separator name="electronic smearing" >
    <i type="int" name="ISMEAR">    -5</i>
    <i name="SIGMA">      0.05000000</i>
    <i name="KSPACING">      0.50000000</i>
    <i type="logical" name="KGAMMA"> T  </i>
   </separator>
   <separator name="electronic projectors" >
    <i type="logical" name="LREAL"> T  </i>
    <v name="ROPT">     -0.00025000     -0.00025000     -0.00025000     -0.00025000</v>
    <i type="int" name="LMAXPAW">  -100</i>
    <i type="int" name="LMAXMIX">     2</i>
    <i type="logical" name="NLSPLINE"> F  </i>
   </separator>
   <separator name="electronic startup" >
    <i type="int" name="ISTART">     0</i>
    <i type="int" name="ICHARG">     2</i>
    <i type="int" name="INIWAV">     1</i>
   </separator>
   <separator name="electronic spin" >
    <i type="int" name="ISPIN">     2</i>
    <i type="logical" name="LNONCOLLINEAR"> F  </i>
    <v name="MAGMOM">      5.00000000      5.00000000      0.60000000      0.60000000      0.60000000      0.60000000      0.60000000      0.60000000      0.60000000      0.60000000</v>
    <i name="NUPDOWN">     -1.00000000</i>
    <i type="logical" name="LSORBIT"> F  </i>
    <v name="SAXIS">      0.00000000      0.00000000      1.00000000</v>
    <i type="logical" name="LSPIRAL"> F  </i>
    <v name="QSPIRAL">      0.00000000      0.00000000      0.00000000</v>
    <i type="logical" name="LZEROZ"> F  </i>
   </separator>
   <separator name="electronic exchange-correlation" >
    <i type="logical" name="LASPH"> F  </i>
    <i type="logical" name="LMETAGGA"> F  </i>
   </separator>
   <separator name="electronic convergence" >
    <i type="int" name="NELM">   400</i>
    <i type="int" name="NELMDL">     0</i>
    <i type="int" name="NELMIN">     2</i>
    <i name="ENINI">    520.00000000</i>
    <separator name="electronic convergence detail" >
     <i type="logical" name="LDIAG"> T  </i>
     <i type="logical" name="LSUBROT"> F  </i>
     <i name="WEIMIN">      0.00100000</i>
     <i name="EBREAK">      0.00000052</i>
     <i name="DEPER">      0.30000000</i>
     <i type="int" name="NRMM">     4</i>
     <i name="TIME">      0.40000000</i>
    </separator>
   </separator>
   <separator name="electronic mixer" >
    <i name="AMIX">      0.40000000</i>
    <i name="BMIX">      1.00000000</i>
    <i name="AMIN">      0.01000000</i>
    <i name="AMIX_MAG">      1.60000000</i>
    <i name="BMIX_MAG">      1.00000000</i>
    <separator name="electronic mixer details" >
     <i type="int" name="IMIX">     4</i>
     <i type="logical" name="MIXFIRST"> F  </i>
     <i type="int" name="MAXMIX">   -45</i>
     <i name="WC">    100.00000000</i>
     <i type="int" name="INIMIX">     1</i>
     <i type="int" name="MIXPRE">     1</i>
     <i type="int" name="MREMOVE">     5</i>
    </separator>
   </separator>
   <separator name="electronic dipolcorrection" >
    <i type="logical" name="LDIPOL"> F  </i>
    <i type="logical" name="LMONO"> F  </i>
    <i type="int" name="IDIPOL">     0</i>
    <i name="EPSILON">      1.00000000</i>
    <v name="DIPOL">   -100.00000000   -100.00000000   -100.00000000</v>
    <i name="EFIELD">      0.00000000</i>
   </separator>
  </separator>
  <separator name="grids" >
   <i type="int" name="NGX">    54</i>
   <i type="int" name="NGY">    54</i>
   <i type="int" name="NGZ">   180</i>
   <i type="int" name="NGXF">   108</i>
   <i type="int" name="NGYF">   108</i>
   <i type="int" name="NGZF">   360</i>
   <i type="logical" name="ADDGRID"> F  </i>
  </separator>
  <separator name="ionic" >
   <i type="int" name="NSW">    99</i>
   <i type="int" name="IBRION">     2</i>
   <i type="int" name="MDALGO">     0</i>
   <i type="int" name="ISIF">     3</i>
   <i name="PSTRESS">      0.00000000</i>
   <i name="EDIFFG">      0.00100000</i>
   <i type="int" name="NFREE">     1</i>
   <i name="POTIM">      0.50000000</i>
   <i name="SMASS">     -3.00000000</i>
   <i name="SCALEE">      1.00000000</i>
  </separator>
  <separator name="ionic md" >
   <i name="TEBEG">      0.00010000</i>
   <i name="TEEND">      0.00010000</i>
   <i type="int" name="NBLOCK">     1</i>
   <i type="int" name="KBLOCK">    99</i>
   <i type="int" name="NPACO">   256</i>
   <i name="APACO">     16.00000000</i>
  </separator>
  <separator name="symmetry" >
   <i type="int" name="ISYM">     2</i>
   <i name="SYMPREC">      0.00001000</i>
  </separator>
  <separator name="dos" >
   <i type="int" name="LORBIT">    11</i>
   <v name="RWIGS">     -1.00000000     -1.00000000     -1.00000000     -1.00000000</v>
   <i type="int" name="NEDOS">   301</i>
   <i name="EMIN">     10.00000000</i>
   <i name="EMAX">    -10.00000000</i>
   <i name="EFERMI">      0.00000000</i>
  </separator>
  <separator name="writing" >
   <i type="int" name="NWRITE">     2</i>
   <i type="logical" name="LWAVE"> F  </i>
   <i type="logical" name="LDOWNSAMPLE"> F  </i>
   <i type="logical" name="LCHARG"> T  </i>
   <i type="logical" name="LPARD"> F  </i>
   <i type="logical" name="LVTOT"> F  </i>
   <i type="logical" name="LVHAR"> F  </i>
   <i type="logical" name="LELF"> F  </i>
   <i type="logical" name="LOPTICS"> F  </i>
   <v name="STM">      0.00000000      0.00000000      0.00000000      0.00000000      0.00000000      0.00000000      0.00000000</v>
  </separator>
  <separator name="performance" >
   <i type="int" name="NPAR">    16</i>
   <i type="int" name="NSIM">     4</i>
   <i type="int" name="NBLK">    -1</i>
   <i type="logical" name="LPLANE"> T  </i>
   <i type="logical" name="LSCALAPACK"> T  </i>
   <i type="logical" name="LSCAAWARE"> F  </i>
   <i type="logical" name="LSCALU"> F  </i>
   <i type="logical" name="LASYNC"> F  </i>
   <i type="logical" name="LORBITALREAL"> F  </i>
  </separator>
  <separator name="miscellaneous" >
   <i type="int" name="IDIOT">     3</i>
   <i type="int" name="ISPECIAL">     0</i>
   <i type="logical" name="LMUSIC"> F  </i>
   <v name="POMASS">     51.99600000     72.61000000     30.97400000     78.96000000</v>
   <v name="DARWINR">      0.00000000      0.00000000      0.00000000      0.00000000</v>
   <v name="DARWINV">      1.00000000      1.00000000      1.00000000      1.00000000</v>
   <i type="logical" name="LCORR"> T  </i>
  </separator>
  <i type="logical" name="GGA_COMPAT"> T  </i>
  <i type="logical" name="LBERRY"> F  </i>
  <i type="int" name="ICORELEVEL">     0</i>
  <i type="logical" name="LDAU"> F  </i>
  <i type="int" name="I_CONSTRAINED_M">     0</i>
  <separator name="electronic exchange-correlation" >
   <i type="string" name="GGA">BO</i>
   <i type="int" name="VOSKOWN">     0</i>
   <i type="logical" name="LHFCALC"> F  </i>
   <i type="string" name="PRECFOCK"></i>
   <i type="logical" name="LSYMGRAD"> F  </i>
   <i type="logical" name="LHFONE"> F  </i>
   <i type="logical" name="LRHFCALC"> F  </i>
   <i type="logical" name="LTHOMAS"> F  </i>
   <i type="logical" name="LMODELHF"> F  </i>
   <i name="ENCUT4O">     -1.00000000</i>
   <i type="int" name="EXXOEP">     0</i>
   <i type="int" name="FOURORBIT">     0</i>
   <i name="AEXX">      0.00000000</i>
   <i name="HFALPHA">      0.00000000</i>
   <i name="MCALPHA">      0.00000000</i>
   <i name="ALDAX">      1.00000000</i>
   <i name="AGGAX">      1.00000000</i>
   <i name="ALDAC">      1.00000000</i>
   <i name="AGGAC">      0.00000000</i>
   <i type="int" name="NKREDX">     1</i>
   <i type="int" name="NKREDY">     1</i>
   <i type="int" name="NKREDZ">     1</i>
   <i type="logical" name="SHIFTRED"> F  </i>
   <i type="logical" name="ODDONLY"> F  </i>
   <i type="logical" name="EVENONLY"> F  </i>
   <i type="int" name="LMAXFOCK">     0</i>
   <i type="int" name="NMAXFOCKAE">     0</i>
   <i type="logical" name="LFOCKAEDFT"> F  </i>
   <i name="HFSCREEN">      0.00000000</i>
   <i name="HFSCREENC">      0.00000000</i>
   <i type="int" name="NBANDSGWLOW">     0</i>
  </separator>
  <separator name="vdW DFT" >
   <i type="logical" name="LUSE_VDW"> T  </i>
   <i name="Zab_VDW">     -0.84910000</i>
   <i name="PARAM1">      0.18333333</i>
   <i name="PARAM2">      0.22000000</i>
   <i name="PARAM3">      0.00000000</i>
  </separator>
  <separator name="model GW" >
   <i type="int" name="MODEL_GW">     0</i>
   <i name="MODEL_EPS0">     58.13010116</i>
   <i name="MODEL_ALPHA">      1.00000000</i>
  </separator>
  <separator name="linear response parameters" >
   <i type="logical" name="LEPSILON"> F  </i>
   <i type="logical" name="LRPA"> F  </i>
   <i type="logical" name="LNABLA"> F  </i>
   <i type="logical" name="LVEL"> F  </i>
   <i type="int" name="KINTER">     0</i>
   <i name="CSHIFT">      0.10000000</i>
   <i name="OMEGAMAX">     -1.00000000</i>
   <i name="DEG_THRESHOLD">      0.00200000</i>
   <i name="RTIME">     -0.10000000</i>
   <i name="WPLASMAI">      0.00000000</i>
   <v name="DFIELD">      0.00000000      0.00000000      0.00000000</v>
   <v name="WPLASMA">      0.00000000      0.00000000      0.00000000      0.00000000      0.00000000      0.00000000      0.00000000      0.00000000      0.00000000</v>
  </separator>
  <separator name="orbital magnetization" >
   <i type="logical" name="NUCIND"> F  </i>
   <v name="MAGPOS">      0.00000000      0.00000000      0.00000000</v>
   <i type="logical" name="LNICSALL"> T  </i>
   <i type="logical" name="ORBITALMAG"> F  </i>
   <i type="logical" name="LMAGBLOCH"> F  </i>
   <i type="logical" name="LCHIMAG"> F  </i>
   <i type="logical" name="LGAUGE"> T  </i>
   <i type="int" name="MAGATOM">     0</i>
   <v name="MAGDIPOL">      0.00000000      0.00000000      0.00000000</v>
   <v name="AVECCONST">      0.00000000      0.00000000      0.00000000</v>
  </separator>
  <separator name="response functions" >
   <i type="logical" name="LADDER"> F  </i>
   <i type="logical" name="LRPAFORCE"> F  </i>
   <i type="logical" name="LFXC"> F  </i>
   <i type="logical" name="LHARTREE"> T  </i>
   <i type="int" name="IBSE">     0</i>
   <v type="int" name="KPOINT">    -1     0     0     0</v>
   <i type="logical" name="LTCTE"> F  </i>
   <i type="logical" name="LTETE"> F  </i>
   <i type="logical" name="LTRIPLET"> F  </i>
   <i type="logical" name="LFXCEPS"> F  </i>
   <i type="logical" name="LFXHEG"> F  </i>
   <i type="int" name="NATURALO">     2</i>
   <i type="logical" name="L2ORDER"> F  </i>
   <i type="logical" name="LMP2LT"> F  </i>
   <i type="logical" name="LUSEW"> F  </i>
   <i name="ENCUTGW">     -2.00000000</i>
   <i name="ENCUTGWSOFT">     -2.00000000</i>
   <i name="ENCUTLF">     -1.00000000</i>
   <i type="int" name="LMAXMP2">    -1</i>
   <i name="SCISSOR">      0.00000000</i>
   <i type="int" name="NOMEGA">     0</i>
   <i type="int" name="NOMEGAR">     0</i>
   <i type="int" name="NBANDSGW">    -1</i>
   <i type="int" name="NBANDSO">    -1</i>
   <i type="int" name="NBANDSV">    -1</i>
   <i type="int" name="NELM">   400</i>
   <i type="int" name="NELMHF">     1</i>
   <i type="int" name="DIM">     3</i>
   <i type="int" name="ANTIRES">     0</i>
   <i name="OMEGAMAX">    -30.00000000</i>
   <i name="OMEGAMIN">    -30.00000000</i>
   <i name="OMEGATL">   -200.00000000</i>
   <i type="int" name="OMEGAGRID">   140</i>
   <i name="CSHIFT">     -0.10000000</i>
   <i type="logical" name="SELFENERGY"> F  </i>
   <i type="logical" name="LSPECTRAL"> F  </i>
   <i type="logical" name="LSPECTRALGW"> F  </i>
   <i type="logical" name="LSINGLES"> F  </i>
   <i type="logical" name="LFERMIGW"> F  </i>
   <i type="logical" name="ODDONLYGW"> F  </i>
   <i type="logical" name="EVENONLYGW"> F  </i>
   <i type="int" name="NKREDLFX">     1</i>
   <i type="int" name="NKREDLFY">     1</i>
   <i type="int" name="NKREDLFZ">     1</i>
   <i type="int" name="MAXMEM">  2800</i>
   <i type="int" name="TELESCOPE">     0</i>
   <i type="int" name="TAUPAR">     1</i>
   <i type="int" name="OMEGAPAR">    -1</i>
   <i name="LAMBDA">      1.00000000</i>
  </separator>
  <separator name="External order field" >
   <i name="OFIELD_KAPPA">      0.00000000</i>
   <v name="OFIELD_K">      0.00000000      0.00000000      0.00000000</v>
   <i name="OFIELD_Q6_NEAR">      0.00000000</i>
   <i name="OFIELD_Q6_FAR">      0.00000000</i>
   <i name="OFIELD_A">      0.00000000</i>
  </separator>
 </parameters>
 <atominfo>
  <atoms>      10 </atoms>
  <types>       4 </types>
  <array name="atoms" >
   <dimension dim="1">ion</dimension>
   <field type="string">element</field>
   <field type="int">atomtype</field>
   <set>
    <rc><c>Cr</c><c>   1</c></rc>
    <rc><c>Cr</c><c>   1</c></rc>
    <rc><c>Ge</c><c>   2</c></rc>
    <rc><c>P </c><c>   3</c></rc>
    <rc><c>Se</c><c>   4</c></rc>
    <rc><c>Se</c><c>   4</c></rc>
    <rc><c>Se</c><c>   4</c></rc>
    <rc><c>Se</c><c>   4</c></rc>
    <rc><c>Se</c><c>   4</c></rc>
    <rc><c>Se</c><c>   4</c></rc>
   </set>
  </array>
  <array name="atomtypes" >
   <dimension dim="1">type</dimension>
   <field type="int">atomspertype</field>
   <field type="string">element</field>
   <field>mass</field>
   <field>valence</field>
   <field type="string">pseudopotential</field>
   <set>
    <rc><c>   2</c><c>Cr</c><c>     51.99600000</c><c>      6.00000000</c><c> PAW_PBE Cr 06Sep2000                   </c></rc>
    <rc><c>   1</c><c>Ge</c><c>     72.61000000</c><c>      4.00000000</c><c> PAW_PBE Ge 05Jan2001                   </c></rc>
    <rc><c>   1</c><c>P </c><c>     30.97400000</c><c>      5.00000000</c><c>  PAW_PBE P 17Jan2003                   </c></rc>
    <rc><c>   6</c><c>Se</c><c>     78.96000000</c><c>      6.00000000</c><c> PAW_PBE Se 06Sep2000                   </c></rc>
   </set>
  </array>
 </atominfo>
 <structure name="initialpos" >
  <crystal>
   <varray name="basis" >
    <v>       6.90777700      -0.00000000       0.00000000 </v>
    <v>       3.45388800       5.98231000       0.00000000 </v>
    <v>       0.00000000       0.00000000      23.44458800 </v>
   </varray>
   <i name="volume">    968.83501932 </i>
   <varray name="rec_basis" >
    <v>       0.14476437      -0.08357974       0.00000000 </v>
    <v>       0.00000000       0.16715951      -0.00000000 </v>
    <v>      -0.00000000       0.00000000       0.04265377 </v>
   </varray>
  </crystal>
  <varray name="positions" >
   <v>       0.33333300       0.33333300       0.49992500 </v>
   <v>       0.66666700       0.66666700       0.50007500 </v>
   <v>       0.00000000       0.00000000       0.44821600 </v>
   <v>       0.00000000       0.00000000       0.55178400 </v>
   <v>       0.62635700       0.00042000       0.57375200 </v>
   <v>       0.00042000       0.37322400       0.57375200 </v>
   <v>       0.37322400       0.62635700       0.57375200 </v>
   <v>       0.37364300       0.99958000       0.42624800 </v>
   <v>       0.99958000       0.62677600       0.42624800 </v>
   <v>       0.62677600       0.37364300       0.42624800 </v>
  </varray>
  <varray name="selective"  type="logical" >
   <v type="logical" >  F  F  F </v>
   <v type="logical" >  F  F  F </v>
   <v type="logical" >  F  F  F </v>
   <v type="logical" >  T  T  T </v>
   <v type="logical" >  T  T  T </v>
   <v type="logical" >  T  T  T </v>
   <v type="logical" >  T  T  T </v>
   <v type="logical" >  T  T  T </v>
   <v type="logical" >  T  T  T </v>
   <v type="logical" >  T  T  T </v>
  </varray>
  <nose>
   <v>      -3.00000000       0.00000000       0.00010000       0.00010000 </v>
  </nose>
 </structure>
 <calculation>
  <scstep>
   <time name="dav">   22.37   22.80</time>
   <time name="total">   74.84   75.74</time>
   <energy>
    <i name="alphaZ">     32.59752184 </i>
    <i name="ewald">   6221.61188061 </i>
    <i name="hartreedc">  -8315.35165852 </i>
    <i name="XCdc">    -51.41176430 </i>
    <i name="pawpsdc">   1173.03776633 </i>
    <i name="pawaedc">  -1020.98751441 </i>
    <i name="eentropy">      0.00000000 </i>
    <i name="bandstr">    -20.82864913 </i>
    <i name="atom">   2388.97348331 </i>
    <i name="e_fr_energy">    407.64106573 </i>
    <i name="e_wo_entrp">    407.64106573 </i>
    <i name="e_0_energy">    407.64106573 </i>
   </energy>
  </scstep>
  <scstep>
   <time name="dav">   26.27   27.15</time>
   <time name="total">   26.28   27.16</time>
   <energy>
    <i name="e_fr_energy">     30.46745777 </i>
    <i name="e_wo_entrp">     30.46745777 </i>
    <i name="e_0_energy">     30.46745777 </i>
   </energy>
  </scstep>
  <scstep>
   <time name="dav">   30.73   31.50</time>
   <time name="total">   30.74   31.51</time>
   <energy>
    <i name="e_fr_energy">    -45.45722184 </i>
    <i name="e_wo_entrp">    -45.45722184 </i>
    <i name="e_0_energy">    -45.45722184 </i>
   </energy>
  </scstep>
  <scstep>
   <time name="dav">   27.97   28.17</time>
   <time name="total">   27.98   28.18</time>
   <energy>
    <i name="e_fr_energy">    -49.18386652 </i>
    <i name="e_wo_entrp">    -49.18386652 </i>
    <i name="e_0_energy">    -49.18386652 </i>
   </energy>
  </scstep>
  <scstep>
   <time name="dav">   30.74   30.86</time>
   <time name="total">   32.74   32.86</time>
   <energy>
    <i name="e_fr_energy">    -49.29764072 </i>
    <i name="e_wo_entrp">    -49.29764072 </i>
    <i name="e_0_energy">    -49.29764072 </i>
   </energy>
  </scstep>
  <scstep>
   <time name="dav">   31.39   31.81</time>
   <time name="total">   84.38   86.86</time>
   <energy>
    <i name="e_fr_energy">    -92.14810092 </i>
    <i name="e_wo_entrp">    -92.14810092 </i>
    <i name="e_0_energy">    -92.14810092 </i>
   </energy>
  </scstep>
  <scstep>
   <time name="dav">   25.08   25.42</time>
   <time name="total">   78.98   79.95</time>
   <energy>
    <i name="e_fr_energy">    -41.33449229 </i>
    <i name="e_wo_entrp">    -41.33449229 </i>
    <i name="e_0_energy">    -41.33449229 </i>
   </energy>
  </scstep>
  <scstep>
   <time name="dav">   29.46   29.72</time>
   <time name="total">   83.48   84.00</time>
   <energy>
    <i name="e_fr_energy">    -43.44650097 </i>
    <i name="e_wo_entrp">    -43.44650097 </i>
    <i name="e_0_energy">    -43.44650097 </i>
   </energy>
  </scstep>
  <scstep>
   <time name="dav">   34.17   34.27</time>
   <time name="total">   87.79   88.08</time>
   <energy>
    <i name="e_fr_energy">    -44.63320038 </i>
    <i name="e_wo_entrp">    -44.63320038 </i>
    <i name="e_0_energy">    -44.63320038 </i>
   </energy>
  </scstep>
  <scstep>
   <time name="dav">   31.84   32.33</time>
   <time name="total">   85.73   86.87</time>
   <energy>
    <i name="e_fr_energy">    -45.11405454 </i>
    <i name="e_wo_entrp">    -45.11405454 </i>
    <i name="e_0_energy">    -45.11405454 </i>
   </energy>
  </scstep>
  <scstep>
   <time name="dav">   35.16   35.54</time>
   <time name="total">   88.78   89.88</time>
   <energy>
    <i name="e_fr_energy">    -56.37159688 </i>
    <i name="e_wo_entrp">    -56.37159688 </i>
    <i name="e_0_energy">    -56.37159688 </i>
   </energy>
  </scstep>
  <scstep>
   <time name="dav">   24.18   24.46</time>
   <time name="total">   77.98   78.57</time>
   <energy>
    <i name="e_fr_energy">    -44.59009884 </i>
    <i name="e_wo_entrp">    -44.59009884 </i>
    <i name="e_0_energy">    -44.59009884 </i>
   </energy>
  </scstep>
  <scstep>
   <time name="dav">   27.32   27.58</time>
   <time name="total">   81.11   81.54</time>
   <energy>
    <i name="e_fr_energy">    -45.26457002 </i>
    <i name="e_wo_entrp">    -45.26457002 </i>
    <i name="e_0_energy">    -45.26457002 </i>
   </energy>
  </scstep>
  <scstep>
   <time name="dav">   26.97   27.01</time>
   <time name="total">   80.76   80.99</time>
   <energy>
    <i name="e_fr_energy">    -45.47328847 </i>
    <i name="e_wo_entrp">    -45.47328847 </i>
    <i name="e_0_energy">    -45.47328847 </i>
   </energy>
  </scstep>
  <scstep>
   <time name="dav">   29.90   31.00</time>
   <time name="total">   83.36   85.11</time>
   <energy>
    <i name="e_fr_energy">    -45.58059532 </i>
    <i name="e_wo_entrp">    -45.58059532 </i>
    <i name="e_0_energy">    -45.58059532 </i>
   </energy>
  </scstep>
  <scstep>
   <time name="dav">   23.89   24.15</time>
   <time name="total">   77.76   78.27</time>
   <energy>
    <i name="e_fr_energy">    -45.60599857 </i>
    <i name="e_wo_entrp">    -45.60599857 </i>
    <i name="e_0_energy">    -45.60599857 </i>
   </energy>
  </scstep>
  <scstep>
   <time name="dav">   29.35   29.46</time>
   <time name="total">   83.52   83.84</time>
   <energy>
    <i name="e_fr_energy">    -45.61487237 </i>
    <i name="e_wo_entrp">    -45.61487237 </i>
    <i name="e_0_energy">    -45.61487237 </i>
   </energy>
  </scstep>
  <scstep>
   <time name="dav">   26.43   26.68</time>
   <time name="total">   80.03   80.51</time>
   <energy>
    <i name="e_fr_energy">    -45.62634871 </i>
    <i name="e_wo_entrp">    -45.62634871 </i>
    <i name="e_0_energy">    -45.62634871 </i>
   </energy>
  </scstep>
  <scstep>
   <time name="dav">   24.72   25.41</time>
   <time name="total">   78.52   79.53</time>
   <energy>
    <i name="e_fr_energy">    -45.61707155 </i>
    <i name="e_wo_entrp">    -45.61707155 </i>
    <i name="e_0_energy">    -45.61707155 </i>
   </energy>
  </scstep>
  <scstep>
   <time name="dav">   27.57   27.71</time>
   <time name="total">   81.38   81.85</time>
   <energy>
    <i name="e_fr_energy">    -45.62014793 </i>
    <i name="e_wo_entrp">    -45.62014793 </i>
    <i name="e_0_energy">    -45.62014793 </i>
   </energy>
  </scstep>
  <scstep>
   <time name="dav">   24.79   25.48</time>
   <time name="total">   78.35   79.51</time>
   <energy>
    <i name="e_fr_energy">    -45.62477508 </i>
    <i name="e_wo_entrp">    -45.62477508 </i>
    <i name="e_0_energy">    -45.62477508 </i>
   </energy>
  </scstep>
  <scstep>
   <time name="dav">   23.34   23.47</time>
   <time name="total">   76.93   77.52</time>
   <energy>
    <i name="e_fr_energy">    -45.62197065 </i>
    <i name="e_wo_entrp">    -45.62197065 </i>
    <i name="e_0_energy">    -45.62197065 </i>
   </energy>
  </scstep>
  <scstep>
   <time name="dav">   23.98   24.10</time>
   <time name="total">   77.75   78.02</time>
   <energy>
    <i name="e_fr_energy">    -45.62580274 </i>
    <i name="e_wo_entrp">    -45.62580274 </i>
    <i name="e_0_energy">    -45.62580274 </i>
   </energy>
  </scstep>
  <scstep>
   <time name="dav">   23.23   23.40</time>
   <time name="total">   77.41   77.65</time>
   <energy>
    <i name="e_fr_energy">    -45.62340161 </i>
    <i name="e_wo_entrp">    -45.62340161 </i>
    <i name="e_0_energy">    -45.62340161 </i>
   </energy>
  </scstep>
  <scstep>
   <time name="dav">   23.39   23.49</time>
   <time name="total">   77.19   77.50</time>
   <energy>
    <i name="e_fr_energy">    -45.62462712 </i>
    <i name="e_wo_entrp">    -45.62462712 </i>
    <i name="e_0_energy">    -45.62462712 </i>
   </energy>
  </scstep>
  <scstep>
   <time name="dav">   22.74   22.99</time>
   <time name="total">   76.44   76.78</time>
   <energy>
    <i name="e_fr_energy">    -45.62523127 </i>
    <i name="e_wo_entrp">    -45.62523127 </i>
    <i name="e_0_energy">    -45.62523127 </i>
   </energy>
  </scstep>
  <scstep>
   <time name="dav">   23.00   23.10</time>
   <time name="total">   76.42   77.16</time>
   <energy>
    <i name="e_fr_energy">    -45.62506040 </i>
    <i name="e_wo_entrp">    -45.62506040 </i>
    <i name="e_0_energy">    -45.62506040 </i>
   </energy>
  </scstep>
  <scstep>
   <time name="dav">   22.08   22.17</time>
   <time name="total">   76.23   76.42</time>
   <energy>
    <i name="e_fr_energy">    -45.62548228 </i>
    <i name="e_wo_entrp">    -45.62548228 </i>
    <i name="e_0_energy">    -45.62548228 </i>
   </energy>
  </scstep>
  <scstep>
   <time name="dav">   20.28   20.58</time>
   <time name="total">   74.28   74.77</time>
   <energy>
    <i name="e_fr_energy">    -45.62536731 </i>
    <i name="e_wo_entrp">    -45.62536731 </i>
    <i name="e_0_energy">    -45.62536731 </i>
   </energy>
  </scstep>
  <scstep>
   <time name="dav">   21.98   22.28</time>
   <time name="total">   75.83   76.29</time>
   <energy>
    <i name="e_fr_energy">    -45.62554634 </i>
    <i name="e_wo_entrp">    -45.62554634 </i>
    <i name="e_0_energy">    -45.62554634 </i>
   </energy>
  </scstep>
  <scstep>
   <time name="dav">   19.66   20.20</time>
   <time name="total">   73.40   74.18</time>
   <energy>
    <i name="e_fr_energy">    -45.62456642 </i>
    <i name="e_wo_entrp">    -45.62456642 </i>
    <i name="e_0_energy">    -45.62456642 </i>
   </energy>
  </scstep>
  <scstep>
   <time name="dav">   20.54   21.01</time>
   <time name="total">   70.68   72.86</time>
   <energy>
    <i name="alphaZ">     32.59752184 </i>
    <i name="ewald">   6221.61188061 </i>
    <i name="hartreedc">  -8318.11180686 </i>
    <i name="XCdc">    -51.65540853 </i>
    <i name="pawpsdc">   1201.40624147 </i>
    <i name="pawaedc">  -1049.82955299 </i>
    <i name="eentropy">      0.00000000 </i>
    <i name="bandstr">   -470.61685618 </i>
    <i name="atom">   2388.97348331 </i>
    <i name="e_fr_energy">    -45.62449732 </i>
    <i name="e_wo_entrp">    -45.62449732 </i>
    <i name="e_0_energy">    -45.62449732 </i>
   </energy>
  </scstep>
  <structure>
   <crystal>
    <varray name="basis" >
     <v>       6.90777700      -0.00000000       0.00000000 </v>
     <v>       3.45388800       5.98231000       0.00000000 </v>
     <v>       0.00000000       0.00000000      23.44458800 </v>
    </varray>
    <i name="volume">    968.83501932 </i>
    <varray name="rec_basis" >
     <v>       0.14476437      -0.08357974       0.00000000 </v>
     <v>       0.00000000       0.16715951      -0.00000000 </v>
     <v>      -0.00000000       0.00000000       0.04265377 </v>
    </varray>
   </crystal>
   <varray name="positions" >
    <v>       0.33333300       0.33333300       0.49992500 </v>
    <v>       0.66666700       0.66666700       0.50007500 </v>
    <v>       0.00000000       0.00000000       0.44821600 </v>
    <v>       0.00000000       0.00000000       0.55178400 </v>
    <v>       0.62635700       0.00042000       0.57375200 </v>
    <v>       0.00042000       0.37322400       0.57375200 </v>
    <v>       0.37322400       0.62635700       0.57375200 </v>
    <v>       0.37364300       0.99958000       0.42624800 </v>
    <v>       0.99958000       0.62677600       0.42624800 </v>
    <v>       0.62677600       0.37364300       0.42624800 </v>
   </varray>
  </structure>
  <varray name="forces" >
   <v>      -0.00000000       0.00000000       0.19379154 </v>
   <v>      -0.00000000       0.00000000       0.18213224 </v>
   <v>      -0.00000000       0.00000000       0.14582236 </v>
   <v>      -0.00000000       0.00000000       0.57496672 </v>
   <v>       0.47360044      -0.01555365      -1.40937727 </v>
   <v>      -0.25027004      -0.40237316      -1.40937727 </v>
   <v>      -0.22333040       0.41792681      -1.40937727 </v>
   <v>      -0.58620208       0.00525228       1.04380632 </v>
   <v>       0.29764961       0.50503972       1.04380632 </v>
   <v>       0.28855248      -0.51029201       1.04380632 </v>
  </varray>
  <varray name="stress" >
   <v>     -32.00706166       0.00000223       0.00000000 </v>
   <v>       0.00000312     -32.00705774       0.00000000 </v>
   <v>      -0.00000000      -0.00000000     -20.88496817 </v>
  </varray>
  <energy>
   <i name="e_fr_energy">    -45.62449732 </i>
   <i name="e_wo_entrp">    -45.62449732 </i>
   <i name="e_0_energy">      0.00000000 </i>
  </energy>
  <time name="totalsc"> 2486.24 2510.84</time>
 </calculation>
 <calculation>
  <scstep>
   <time name="dav">   28.32   28.54</time>
   <time name="total">   82.88   83.30</time>
   <energy>
    <i name="alphaZ">     42.23052936 </i>
    <i name="ewald">   7360.67915866 </i>
    <i name="hartreedc">  -9619.45981958 </i>
    <i name="XCdc">    -42.39161499 </i>
    <i name="pawpsdc">   1201.40295537 </i>
    <i name="pawaedc">  -1049.82612295 </i>
    <i name="eentropy">      0.00000000 </i>
    <i name="bandstr">   -340.53277879 </i>
    <i name="atom">   2388.97348331 </i>
    <i name="e_fr_energy">    -58.92420960 </i>
    <i name="e_wo_entrp">    -58.92420960 </i>
    <i name="e_0_energy">    -58.92420960 </i>
   </energy>
  </scstep>
  <scstep>
   <time name="dav">   30.91   31.73</time>
   <time name="total">   85.48   86.52</time>
   <energy>
    <i name="e_fr_energy">    -51.87811717 </i>
    <i name="e_wo_entrp">    -51.87811717 </i>
    <i name="e_0_energy">    -51.87811717 </i>
   </energy>
  </scstep>
  <scstep>
   <time name="dav">   32.38   33.14</time>
   <time name="total">   86.78   88.10</time>
   <energy>
    <i name="e_fr_energy">    -50.86545143 </i>
    <i name="e_wo_entrp">    -50.86545143 </i>
    <i name="e_0_energy">    -50.86545143 </i>
   </energy>
  </scstep>
  <scstep>
   <time name="dav">   32.34   33.52</time>
   <time name="total">   85.92   88.19</time>
   <energy>
    <i name="e_fr_energy">    -48.01245567 </i>
    <i name="e_wo_entrp">    -48.01245567 </i>
    <i name="e_0_energy">    -48.01245567 </i>
   </energy>
  </scstep>
  <scstep>
   <time name="dav">   33.51   33.62</time>
   <time name="total">   87.62   88.36</time>
   <energy>
    <i name="e_fr_energy">    -48.00906727 </i>
    <i name="e_wo_entrp">    -48.00906727 </i>
    <i name="e_0_energy">    -48.00906727 </i>
   </energy>
  </scstep>
  <scstep>
   <time name="dav">   33.42   33.82</time>
   <time name="total">   88.01   88.73</time>
   <energy>
    <i name="e_fr_energy">    -48.02479946 </i>
    <i name="e_wo_entrp">    -48.02479946 </i>
    <i name="e_0_energy">    -48.02479946 </i>
   </energy>
  </scstep>
  <scstep>
   <time name="dav">   32.08   32.18</time>
   <time name="total">   86.91   87.13</time>
   <energy>
    <i name="e_fr_energy">    -48.01596855 </i>
    <i name="e_wo_entrp">    -48.01596855 </i>
    <i name="e_0_energy">    -48.01596855 </i>
   </energy>
  </scstep>
  <scstep>
   <time name="dav">   33.76   34.35</time>
   <time name="total">   88.15   89.02</time>
   <energy>
    <i name="e_fr_energy">    -48.01466944 </i>
    <i name="e_wo_entrp">    -48.01466944 </i>
    <i name="e_0_energy">    -48.01466944 </i>
   </energy>
  </scstep>
  <scstep>
   <time name="dav">   24.40   25.51</time>
   <time name="total">   79.01   80.51</time>
   <energy>
    <i name="e_fr_energy">    -48.01742730 </i>
    <i name="e_wo_entrp">    -48.01742730 </i>
    <i name="e_0_energy">    -48.01742730 </i>
   </energy>
  </scstep>
  <scstep>
   <time name="dav">   24.18   24.29</time>
   <time name="total">   78.44   79.61</time>
   <energy>
    <i name="e_fr_energy">    -48.01784756 </i>
    <i name="e_wo_entrp">    -48.01784756 </i>
    <i name="e_0_energy">    -48.01784756 </i>
   </energy>
  </scstep>
  <scstep>
   <time name="dav">   22.54   24.11</time>
   <time name="total">   75.69   79.08</time>
   <energy>
    <i name="e_fr_energy">    -48.01812944 </i>
    <i name="e_wo_entrp">    -48.01812944 </i>
    <i name="e_0_energy">    -48.01812944 </i>
   </energy>
  </scstep>
  <scstep>
   <time name="dav">   25.38   25.43</time>
   <time name="total">   79.84   80.18</time>
   <energy>
    <i name="e_fr_energy">    -48.01747013 </i>
    <i name="e_wo_entrp">    -48.01747013 </i>
    <i name="e_0_energy">    -48.01747013 </i>
   </energy>
  </scstep>
  <scstep>
   <time name="dav">   24.78   25.11</time>
   <time name="total">   79.33   79.90</time>
   <energy>
    <i name="e_fr_energy">    -48.01589162 </i>
    <i name="e_wo_entrp">    -48.01589162 </i>
    <i name="e_0_energy">    -48.01589162 </i>
   </energy>
  </scstep>
  <scstep>
   <time name="dav">   24.73   24.79</time>
   <time name="total">   78.76   79.30</time>
   <energy>
    <i name="e_fr_energy">    -48.01411405 </i>
    <i name="e_wo_entrp">    -48.01411405 </i>
    <i name="e_0_energy">    -48.01411405 </i>
   </energy>
  </scstep>
  <scstep>
   <time name="dav">   21.85   21.89</time>
   <time name="total">   76.72   76.87</time>
   <energy>
    <i name="e_fr_energy">    -48.01304962 </i>
    <i name="e_wo_entrp">    -48.01304962 </i>
    <i name="e_0_energy">    -48.01304962 </i>
   </energy>
  </scstep>
  <scstep>
   <time name="dav">   20.88   21.16</time>
   <time name="total">   75.38   75.86</time>
   <energy>
    <i name="e_fr_energy">    -48.01171807 </i>
    <i name="e_wo_entrp">    -48.01171807 </i>
    <i name="e_0_energy">    -48.01171807 </i>
   </energy>
  </scstep>
  <scstep>
   <time name="dav">   20.77   21.25</time>
   <time name="total">   75.54   76.22</time>
   <energy>
    <i name="e_fr_energy">    -48.00993057 </i>
    <i name="e_wo_entrp">    -48.00993057 </i>
    <i name="e_0_energy">    -48.00993057 </i>
   </energy>
  </scstep>
  <scstep>
   <time name="dav">   23.15   23.36</time>
   <time name="total">   76.64   78.60</time>
   <energy>
    <i name="e_fr_energy">    -48.00950527 </i>
    <i name="e_wo_entrp">    -48.00950527 </i>
    <i name="e_0_energy">    -48.00950527 </i>
   </energy>
  </scstep>
  <scstep>
   <time name="dav">   24.36   24.53</time>
   <time name="total">   77.58   78.08</time>
   <energy>
    <i name="alphaZ">     42.23052936 </i>
    <i name="ewald">   7360.67915866 </i>
    <i name="hartreedc">  -9482.71135803 </i>
    <i name="XCdc">    -47.49255239 </i>
    <i name="pawpsdc">   1313.33039032 </i>
    <i name="pawaedc">  -1163.28463760 </i>
    <i name="eentropy">      0.00000000 </i>
    <i name="bandstr">   -459.73458616 </i>
    <i name="atom">   2388.97348331 </i>
    <i name="e_fr_energy">    -48.00957252 </i>
    <i name="e_wo_entrp">    -48.00957252 </i>
    <i name="e_0_energy">    -48.00957252 </i>
   </energy>
  </scstep>
  <structure>
   <crystal>
    <varray name="basis" >
     <v>       6.26278466       0.00000004       0.00000000 </v>
     <v>       3.13139193       5.42373038       0.00000000 </v>
     <v>      -0.00000000      -0.00000000      22.01619780 </v>
    </varray>
    <i name="volume">    747.83861756 </i>
    <varray name="rec_basis" >
     <v>       0.15967338      -0.09218746       0.00000000 </v>
     <v>      -0.00000000       0.18437495       0.00000000 </v>
     <v>       0.00000000       0.00000000       0.04542110 </v>
    </varray>
   </crystal>
   <varray name="positions" >
    <v>       0.33333300       0.33333300       0.49992500 </v>
    <v>       0.66666700       0.66666700       0.50007500 </v>
    <v>       0.00000000       0.00000000       0.44821600 </v>
    <v>      -0.00000000       0.00000000       0.55296713 </v>
    <v>       0.62972725       0.00029457       0.57085188 </v>
    <v>       0.00029457       0.36997917       0.57085188 </v>
    <v>       0.36997917       0.62972725       0.57085188 </v>
    <v>       0.36952789       0.99962236       0.42839587 </v>
    <v>       0.99962236       0.63084875       0.42839587 </v>
    <v>       0.63084875       0.36952789       0.42839587 </v>
   </varray>
  </structure>
  <varray name="forces" >
   <v>       0.00000000       0.00000000       0.07706641 </v>
   <v>      -0.00000000       0.00000000       0.07940533 </v>
   <v>      -0.00000000       0.00000000       0.16132918 </v>
   <v>      -0.00000000       0.00000000       0.59438170 </v>
   <v>       0.03823933      -0.00599930       0.15188188 </v>
   <v>      -0.02431521      -0.03011658       0.15188188 </v>
   <v>      -0.01392412       0.03611588       0.15188188 </v>
   <v>       0.45667392       0.00834174      -0.45594275 </v>
   <v>      -0.22111278      -0.39966207      -0.45594275 </v>
   <v>      -0.23556114       0.39132033      -0.45594275 </v>
  </varray>
  <varray name="stress" >
   <v>       9.61716365      -0.00000153      -0.00000000 </v>
   <v>       0.00000025       9.61716272      -0.00000000 </v>
   <v>      -0.00000000       0.00000000       7.14902149 </v>
  </varray>
  <energy>
   <i name="e_fr_energy">    -48.00957252 </i>
   <i name="e_wo_entrp">    -48.00957252 </i>
   <i name="e_0_energy">      0.00000000 </i>
  </energy>
  <time name="totalsc"> 1682.23 1701.62</time>
 </calculation>
 <calculation>
  <scstep>
   <time name="dav">   31.21   31.56</time>
   <time name="total">   86.22   86.74</time>
   <energy>
    <i name="alphaZ">     40.74014182 </i>
    <i name="ewald">   7189.25050242 </i>
    <i name="hartreedc">  -9290.20981553 </i>
    <i name="XCdc">    -48.74846475 </i>
    <i name="pawpsdc">   1313.30520503 </i>
    <i name="pawaedc">  -1163.25954170 </i>
    <i name="eentropy">      0.00000000 </i>
    <i name="bandstr">   -478.34119670 </i>
    <i name="atom">   2388.97348331 </i>
    <i name="e_fr_energy">    -48.28968611 </i>
    <i name="e_wo_entrp">    -48.28968611 </i>
    <i name="e_0_energy">    -48.28968611 </i>
   </energy>
  </scstep>
  <scstep>
   <time name="dav">   30.57   30.61</time>
   <time name="total">   85.29   85.51</time>
   <energy>
    <i name="e_fr_energy">    -48.17621931 </i>
    <i name="e_wo_entrp">    -48.17621931 </i>
    <i name="e_0_energy">    -48.17621931 </i>
   </energy>
  </scstep>
  <scstep>
   <time name="dav">   31.70   31.76</time>
   <time name="total">   86.51   86.60</time>
   <energy>
    <i name="e_fr_energy">    -48.13509701 </i>
    <i name="e_wo_entrp">    -48.13509701 </i>
    <i name="e_0_energy">    -48.13509701 </i>
   </energy>
  </scstep>
  <scstep>
   <time name="dav">   29.90   30.34</time>
   <time name="total">   84.20   85.10</time>
   <energy>
    <i name="e_fr_energy">    -48.09682169 </i>
    <i name="e_wo_entrp">    -48.09682169 </i>
    <i name="e_0_energy">    -48.09682169 </i>
   </energy>
  </scstep>
  <scstep>
   <time name="dav">   30.89   30.96</time>
   <time name="total">   85.35   85.63</time>
   <energy>
    <i name="e_fr_energy">    -48.09523215 </i>
    <i name="e_wo_entrp">    -48.09523215 </i>
    <i name="e_0_energy">    -48.09523215 </i>
   </energy>
  </scstep>
  <scstep>
   <time name="dav">   26.96   27.00</time>
   <time name="total">   81.58   81.74</time>
   <energy>
    <i name="e_fr_energy">    -48.09494894 </i>
    <i name="e_wo_entrp">    -48.09494894 </i>
    <i name="e_0_energy">    -48.09494894 </i>
   </energy>
  </scstep>
  <scstep>
   <time name="dav">   23.99   24.03</time>
   <time name="total">   76.83   77.09</time>
   <energy>
    <i name="alphaZ">     40.74014182 </i>
    <i name="ewald">   7189.25050242 </i>
    <i name="hartreedc">  -9304.09624433 </i>
    <i name="XCdc">    -48.20132144 </i>
    <i name="pawpsdc">   1293.76066138 </i>
    <i name="pawaedc">  -1143.42498873 </i>
    <i name="eentropy">      0.00000000 </i>
    <i name="bandstr">   -465.09717068 </i>
    <i name="atom">   2388.97348331 </i>
    <i name="e_fr_energy">    -48.09493625 </i>
    <i name="e_wo_entrp">    -48.09493625 </i>
    <i name="e_0_energy">    -48.09493625 </i>
   </energy>
  </scstep>
  <structure>
   <crystal>
    <varray name="basis" >
     <v>       6.34887896       0.00000004       0.00000000 </v>
     <v>       3.17443907       5.49829021       0.00000000 </v>
     <v>      -0.00000000      -0.00000000      22.20686091 </v>
    </varray>
    <i name="volume">    775.19663134 </i>
    <varray name="rec_basis" >
     <v>       0.15750812      -0.09093735       0.00000000 </v>
     <v>      -0.00000000       0.18187472       0.00000000 </v>
     <v>       0.00000000       0.00000000       0.04503113 </v>
    </varray>
   </crystal>
   <varray name="positions" >
    <v>       0.33333300       0.33333300       0.49992500 </v>
    <v>       0.66666700       0.66666700       0.50007500 </v>
    <v>       0.00000000       0.00000000       0.44821600 </v>
    <v>      -0.00000000       0.00000000       0.55279896 </v>
    <v>       0.62923106       0.00031304       0.57126411 </v>
    <v>       0.00031304       0.37045690       0.57126411 </v>
    <v>       0.37045690       0.62923106       0.57126411 </v>
    <v>       0.37013375       0.99961612       0.42809057 </v>
    <v>       0.99961612       0.63024913       0.42809057 </v>
    <v>       0.63024913       0.37013375       0.42809057 </v>
   </varray>
  </structure>
  <varray name="forces" >
   <v>      -0.00000000       0.00000000       0.11281104 </v>
   <v>      -0.00000000       0.00000000       0.11313525 </v>
   <v>      -0.00000000       0.00000000       0.12894607 </v>
   <v>      -0.00000000       0.00000000       0.61221823 </v>
   <v>       0.12249561      -0.00049568      -0.16874845 </v>
   <v>      -0.06167707      -0.10583646      -0.16874845 </v>
   <v>      -0.06081854       0.10633214      -0.16874845 </v>
   <v>       0.22786041       0.00850795      -0.15362174 </v>
   <v>      -0.10656209      -0.20158686      -0.15362174 </v>
   <v>      -0.12129832       0.19307892      -0.15362174 </v>
  </varray>
  <varray name="stress" >
   <v>      -0.11242443      -0.00000086       0.00000000 </v>
   <v>       0.00000088      -0.11242442      -0.00000000 </v>
   <v>       0.00000000       0.00000000       1.68669419 </v>
  </varray>
  <energy>
   <i name="e_fr_energy">    -48.09493625 </i>
   <i name="e_wo_entrp">    -48.09493625 </i>
   <i name="e_0_energy">      0.00000000 </i>
  </energy>
  <time name="totalsc">  722.54  725.55</time>
 </calculation>
 <calculation>
  <scstep>
   <time name="dav">   23.35   23.59</time>
   <time name="total">   77.18   78.08</time>
   <energy>
    <i name="alphaZ">     40.72640566 </i>
    <i name="ewald">   7241.48305635 </i>
    <i name="hartreedc">  -9353.14333043 </i>
    <i name="XCdc">    -48.22325523 </i>
    <i name="pawpsdc">   1293.13932435 </i>
    <i name="pawaedc">  -1142.78835224 </i>
    <i name="eentropy">      0.00000000 </i>
    <i name="bandstr">   -468.28117448 </i>
    <i name="atom">   2388.97348331 </i>
    <i name="e_fr_energy">    -48.11384270 </i>
    <i name="e_wo_entrp">    -48.11384270 </i>
    <i name="e_0_energy">    -48.11384270 </i>
   </energy>
  </scstep>
  <scstep>
   <time name="dav">   25.12   25.35</time>
   <time name="total">   79.62   79.97</time>
   <energy>
    <i name="e_fr_energy">    -48.11941085 </i>
    <i name="e_wo_entrp">    -48.11941085 </i>
    <i name="e_0_energy">    -48.11941085 </i>
   </energy>
  </scstep>
  <scstep>
   <time name="dav">   30.38   30.97</time>
   <time name="total">   84.32   85.70</time>
   <energy>
    <i name="e_fr_energy">    -48.11908564 </i>
    <i name="e_wo_entrp">    -48.11908564 </i>
    <i name="e_0_energy">    -48.11908564 </i>
   </energy>
  </scstep>
  <scstep>
   <time name="dav">   31.74   32.41</time>
   <time name="total">   86.28   87.33</time>
   <energy>
    <i name="e_fr_energy">    -48.11821843 </i>
    <i name="e_wo_entrp">    -48.11821843 </i>
    <i name="e_0_energy">    -48.11821843 </i>
   </energy>
  </scstep>
  <scstep>
   <time name="dav">   30.12   30.91</time>
   <time name="total">   83.85   85.79</time>
   <energy>
    <i name="e_fr_energy">    -48.11806175 </i>
    <i name="e_wo_entrp">    -48.11806175 </i>
    <i name="e_0_energy">    -48.11806175 </i>
   </energy>
  </scstep>
  <scstep>
   <time name="dav">   23.34   23.37</time>
   <time name="total">   78.09   78.22</time>
   <energy>
    <i name="e_fr_energy">    -48.11791892 </i>
    <i name="e_wo_entrp">    -48.11791892 </i>
    <i name="e_0_energy">    -48.11791892 </i>
   </energy>
  </scstep>
  <scstep>
   <time name="dav">   18.19   18.21</time>
   <time name="total">   71.14   71.18</time>
   <energy>
    <i name="alphaZ">     40.72640566 </i>
    <i name="ewald">   7241.48305635 </i>
    <i name="hartreedc">  -9355.84727719 </i>
    <i name="XCdc">    -48.20190400 </i>
    <i name="pawpsdc">   1292.59005389 </i>
    <i name="pawaedc">  -1142.22506048 </i>
    <i name="eentropy">      0.00000000 </i>
    <i name="bandstr">   -465.61660273 </i>
    <i name="atom">   2388.97348331 </i>
    <i name="e_fr_energy">    -48.11784518 </i>
    <i name="e_wo_entrp">    -48.11784518 </i>
    <i name="e_0_energy">    -48.11784518 </i>
   </energy>
  </scstep>
  <structure>
   <crystal>
    <varray name="basis" >
     <v>       6.34013137       0.00000003      -0.00000000 </v>
     <v>       3.17006529       5.49071457      -0.00000000 </v>
     <v>      -0.00000000       0.00000000      22.27569211 </v>
    </varray>
    <i name="volume">    775.45808873 </i>
    <varray name="rec_basis" >
     <v>       0.15772544      -0.09106282       0.00000000 </v>
     <v>      -0.00000000       0.18212566      -0.00000000 </v>
     <v>       0.00000000       0.00000000       0.04489198 </v>
    </varray>
   </crystal>
   <varray name="positions" >
    <v>       0.33333300       0.33333300       0.49992500 </v>
    <v>       0.66666700       0.66666700       0.50007500 </v>
    <v>       0.00000000       0.00000000       0.44821600 </v>
    <v>      -0.00000000       0.00000000       0.55410846 </v>
    <v>       0.63018320       0.00030716       0.57087050 </v>
    <v>       0.00030716       0.36951063       0.57087050 </v>
    <v>       0.36951063       0.63018320       0.57087050 </v>
    <v>       0.37172880       0.99968933       0.42779301 </v>
    <v>       0.99968933       0.62858087       0.42779301 </v>
    <v>       0.62858087       0.37172880       0.42779301 </v>
   </varray>
  </structure>
  <varray name="forces" >
   <v>       0.00000000       0.00000000       0.02148800 </v>
   <v>       0.00000000      -0.00000000       0.01910319 </v>
   <v>       0.00000000       0.00000000       0.40812121 </v>
   <v>       0.00000000       0.00000000       0.08770388 </v>
   <v>       0.01197922      -0.00543803      -0.09565355 </v>
   <v>      -0.01069908      -0.00765530      -0.09565355 </v>
   <v>      -0.00128014       0.01309333      -0.09565355 </v>
   <v>       0.14111789       0.00600792      -0.08315188 </v>
   <v>      -0.06535593      -0.12521563      -0.08315188 </v>
   <v>      -0.07576196       0.11920771      -0.08315188 </v>
  </varray>
  <varray name="stress" >
   <v>       0.52248886      -0.00000087      -0.00000000 </v>
   <v>       0.00000080       0.52248880       0.00000000 </v>
   <v>       0.00000000       0.00000000      -0.11448277 </v>
  </varray>
  <energy>
   <i name="e_fr_energy">    -48.11784518 </i>
   <i name="e_wo_entrp">    -48.11784518 </i>
   <i name="e_0_energy">      0.00000000 </i>
  </energy>
  <time name="totalsc">  697.08  703.56</time>
 </calculation>
 <calculation>
  <scstep>
   <time name="dav">   23.28   23.32</time>
   <time name="total">   78.48   78.64</time>
   <energy>
    <i name="alphaZ">     40.71860505 </i>
    <i name="ewald">   7272.16508310 </i>
    <i name="hartreedc">  -9385.07854662 </i>
    <i name="XCdc">    -48.21097171 </i>
    <i name="pawpsdc">   1292.45488195 </i>
    <i name="pawaedc">  -1142.08743168 </i>
    <i name="eentropy">      0.00000000 </i>
    <i name="bandstr">   -467.05287318 </i>
    <i name="atom">   2388.97348331 </i>
    <i name="e_fr_energy">    -48.11776978 </i>
    <i name="e_wo_entrp">    -48.11776978 </i>
    <i name="e_0_energy">    -48.11776978 </i>
   </energy>
  </scstep>
  <scstep>
   <time name="dav">   25.37   26.06</time>
   <time name="total">   80.22   81.14</time>
   <energy>
    <i name="e_fr_energy">    -48.11960243 </i>
    <i name="e_wo_entrp">    -48.11960243 </i>
    <i name="e_0_energy">    -48.11960243 </i>
   </energy>
  </scstep>
  <scstep>
   <time name="dav">   30.68   30.72</time>
   <time name="total">   85.50   85.84</time>
   <energy>
    <i name="e_fr_energy">    -48.11948901 </i>
    <i name="e_wo_entrp">    -48.11948901 </i>
    <i name="e_0_energy">    -48.11948901 </i>
   </energy>
  </scstep>
  <scstep>
   <time name="dav">   25.37   25.48</time>
   <time name="total">   80.35   80.51</time>
   <energy>
    <i name="e_fr_energy">    -48.11917242 </i>
    <i name="e_wo_entrp">    -48.11917242 </i>
    <i name="e_0_energy">    -48.11917242 </i>
   </energy>
  </scstep>
  <scstep>
   <time name="dav">   24.68   24.74</time>
   <time name="total">   79.37   79.54</time>
   <energy>
    <i name="e_fr_energy">    -48.11904626 </i>
    <i name="e_wo_entrp">    -48.11904626 </i>
    <i name="e_0_energy">    -48.11904626 </i>
   </energy>
  </scstep>
  <scstep>
   <time name="dav">   18.44   18.47</time>
   <time name="total">   70.65   71.14</time>
   <energy>
    <i name="alphaZ">     40.71860505 </i>
    <i name="ewald">   7272.16508310 </i>
    <i name="hartreedc">  -9386.85640442 </i>
    <i name="XCdc">    -48.20029521 </i>
    <i name="pawpsdc">   1292.42237630 </i>
    <i name="pawaedc">  -1142.04973985 </i>
    <i name="eentropy">      0.00000000 </i>
    <i name="bandstr">   -465.29208645 </i>
    <i name="atom">   2388.97348331 </i>
    <i name="e_fr_energy">    -48.11897817 </i>
    <i name="e_wo_entrp">    -48.11897817 </i>
    <i name="e_0_energy">    -48.11897817 </i>
   </energy>
  </scstep>
  <structure>
   <crystal>
    <varray name="basis" >
     <v>       6.33500116       0.00000002      -0.00000000 </v>
     <v>       3.16750018       5.48627167      -0.00000000 </v>
     <v>       0.00000000       0.00000000      22.31605973 </v>
    </varray>
    <i name="volume">    775.60664612 </i>
    <varray name="rec_basis" >
     <v>       0.15785317      -0.09113656       0.00000000 </v>
     <v>      -0.00000000       0.18227315      -0.00000000 </v>
     <v>       0.00000000       0.00000000       0.04481078 </v>
    </varray>
   </crystal>
   <varray name="positions" >
    <v>       0.33333300       0.33333300       0.49992500 </v>
    <v>       0.66666700       0.66666700       0.50007500 </v>
    <v>       0.00000000       0.00000000       0.44821600 </v>
    <v>      -0.00000000       0.00000000       0.55487408 </v>
    <v>       0.63074238       0.00030372       0.57064037 </v>
    <v>       0.00030372       0.36895491       0.57064037 </v>
    <v>       0.36895491       0.63074238       0.57064037 </v>
    <v>       0.37266555       0.99973233       0.42761903 </v>
    <v>       0.99973233       0.62760113       0.42761903 </v>
    <v>       0.62760113       0.37266555       0.42761903 </v>
   </varray>
  </structure>
  <varray name="forces" >
   <v>       0.00000000      -0.00000000      -0.03324187 </v>
   <v>       0.00000000      -0.00000000      -0.03827139 </v>
   <v>       0.00000000      -0.00000000       0.54726304 </v>
   <v>       0.00000000      -0.00000000      -0.18989674 </v>
   <v>      -0.05200822      -0.00564389      -0.05083938 </v>
   <v>       0.02111636       0.04786239      -0.05083938 </v>
   <v>       0.03089187      -0.04221850      -0.05083938 </v>
   <v>       0.10193022       0.00293523      -0.04444497 </v>
   <v>      -0.04842312      -0.08974178      -0.04444497 </v>
   <v>      -0.05350710       0.08680654      -0.04444497 </v>
  </varray>
  <varray name="stress" >
   <v>       0.88284848      -0.00000120       0.00000000 </v>
   <v>       0.00000108       0.88284840       0.00000000 </v>
   <v>       0.00000000       0.00000000      -1.26281893 </v>
  </varray>
  <energy>
   <i name="e_fr_energy">    -48.11897817 </i>
   <i name="e_wo_entrp">    -48.11897817 </i>
   <i name="e_0_energy">      0.00000000 </i>
  </energy>
  <time name="totalsc">  610.88  614.04</time>
 </calculation>
 <calculation>
  <scstep>
   <time name="dav">   23.59   24.02</time>
   <time name="total">   78.28   79.05</time>
   <energy>
    <i name="alphaZ">     40.66222780 </i>
    <i name="ewald">   7218.90726147 </i>
    <i name="hartreedc">  -9335.83410235 </i>
    <i name="XCdc">    -48.25451563 </i>
    <i name="pawpsdc">   1292.38301038 </i>
    <i name="pawaedc">  -1142.00984232 </i>
    <i name="eentropy">      0.00000000 </i>
    <i name="bandstr">   -462.94982358 </i>
    <i name="atom">   2388.97348331 </i>
    <i name="e_fr_energy">    -48.12230092 </i>
    <i name="e_wo_entrp">    -48.12230092 </i>
    <i name="e_0_energy">    -48.12230092 </i>
   </energy>
  </scstep>
  <scstep>
   <time name="dav">   25.05   25.12</time>
   <time name="total">   79.55   80.11</time>
   <energy>
    <i name="e_fr_energy">    -48.12334861 </i>
    <i name="e_wo_entrp">    -48.12334861 </i>
    <i name="e_0_energy">    -48.12334861 </i>
   </energy>
  </scstep>
  <scstep>
   <time name="dav">   30.67   31.02</time>
   <time name="total">   85.18   85.73</time>
   <energy>
    <i name="e_fr_energy">    -48.12301989 </i>
    <i name="e_wo_entrp">    -48.12301989 </i>
    <i name="e_0_energy">    -48.12301989 </i>
   </energy>
  </scstep>
  <scstep>
   <time name="dav">   29.98   30.41</time>
   <time name="total">   83.59   85.11</time>
   <energy>
    <i name="e_fr_energy">    -48.12283835 </i>
    <i name="e_wo_entrp">    -48.12283835 </i>
    <i name="e_0_energy">    -48.12283835 </i>
   </energy>
  </scstep>
  <scstep>
   <time name="dav">   23.06   24.17</time>
   <time name="total">   74.85   77.00</time>
   <energy>
    <i name="alphaZ">     40.66222780 </i>
    <i name="ewald">   7218.90726147 </i>
    <i name="hartreedc">  -9335.78768590 </i>
    <i name="XCdc">    -48.24911583 </i>
    <i name="pawpsdc">   1291.37832335 </i>
    <i name="pawaedc">  -1140.98458103 </i>
    <i name="eentropy">      0.00000000 </i>
    <i name="bandstr">   -463.02273102 </i>
    <i name="atom">   2388.97348331 </i>
    <i name="e_fr_energy">    -48.12281784 </i>
    <i name="e_wo_entrp">    -48.12281784 </i>
    <i name="e_0_energy">    -48.12281784 </i>
   </energy>
  </scstep>
  <structure>
   <crystal>
    <varray name="basis" >
     <v>       6.34631353      -0.00000000      -0.00000000 </v>
     <v>       3.17315639       5.49606846      -0.00000000 </v>
     <v>       0.00000000       0.00000000      22.26740386 </v>
    </varray>
    <i name="volume">    776.68200691 </i>
    <varray name="rec_basis" >
     <v>       0.15757179      -0.09097411      -0.00000000 </v>
     <v>       0.00000000       0.18194824      -0.00000000 </v>
     <v>       0.00000000       0.00000000       0.04490869 </v>
    </varray>
   </crystal>
   <varray name="positions" >
    <v>       0.33333300       0.33333300       0.49992500 </v>
    <v>       0.66666700       0.66666700       0.50007500 </v>
    <v>       0.00000000       0.00000000       0.44821600 </v>
    <v>      -0.00000000       0.00000000       0.55485935 </v>
    <v>       0.63065479       0.00024780       0.57039109 </v>
    <v>       0.00024780       0.36909841       0.57039109 </v>
    <v>       0.36909841       0.63065479       0.57039109 </v>
    <v>       0.37402521       0.99978470       0.42741645 </v>
    <v>       0.99978470       0.62618909       0.42741645 </v>
    <v>       0.62618909       0.37402521       0.42741645 </v>
   </varray>
  </structure>
  <varray name="forces" >
   <v>       0.00000000      -0.00000000      -0.07454750 </v>
   <v>       0.00000000      -0.00000000      -0.08436932 </v>
   <v>       0.00000000      -0.00000000       0.42974133 </v>
   <v>       0.00000000      -0.00000000      -0.13129210 </v>
   <v>      -0.04128721      -0.00249144      -0.02380716 </v>
   <v>       0.01848595       0.03700149      -0.02380716 </v>
   <v>       0.02280125      -0.03451005      -0.02380716 </v>
   <v>      -0.00434216       0.00410896      -0.02270365 </v>
   <v>       0.00572955       0.00170594      -0.02270365 </v>
   <v>      -0.00138739      -0.00581490      -0.02270365 </v>
  </varray>
  <varray name="stress" >
   <v>      -0.38015445      -0.00000141       0.00000000 </v>
   <v>       0.00000147      -0.38015441      -0.00000000 </v>
   <v>       0.00000000       0.00000000      -1.72023816 </v>
  </varray>
  <energy>
   <i name="e_fr_energy">    -48.12281784 </i>
   <i name="e_wo_entrp">    -48.12281784 </i>
   <i name="e_0_energy">      0.00000000 </i>
  </energy>
  <time name="totalsc">  537.46  544.19</time>
 </calculation>
 <calculation>
  <scstep>
   <time name="dav">   26.17   26.24</time>
   <time name="total">   80.94   81.12</time>
   <energy>
    <i name="alphaZ">     40.64220426 </i>
    <i name="ewald">   7199.95132700 </i>
    <i name="hartreedc">  -9317.54669140 </i>
    <i name="XCdc">    -48.27060467 </i>
    <i name="pawpsdc">   1291.29602005 </i>
    <i name="pawaedc">  -1140.89561697 </i>
    <i name="eentropy">      0.00000000 </i>
    <i name="bandstr">   -462.27298954 </i>
    <i name="atom">   2388.97348331 </i>
    <i name="e_fr_energy">    -48.12286796 </i>
    <i name="e_wo_entrp">    -48.12286796 </i>
    <i name="e_0_energy">    -48.12286796 </i>
   </energy>
  </scstep>
  <scstep>
   <time name="dav">   24.98   25.38</time>
   <time name="total">   79.39   80.18</time>
   <energy>
    <i name="e_fr_energy">    -48.12297071 </i>
    <i name="e_wo_entrp">    -48.12297071 </i>
    <i name="e_0_energy">    -48.12297071 </i>
   </energy>
  </scstep>
  <scstep>
   <time name="dav">   22.33   22.86</time>
   <time name="total">   75.42   76.04</time>
   <energy>
    <i name="alphaZ">     40.64220426 </i>
    <i name="ewald">   7199.95132700 </i>
    <i name="hartreedc">  -9317.46011460 </i>
    <i name="XCdc">    -48.27063543 </i>
    <i name="pawpsdc">   1291.06162230 </i>
    <i name="pawaedc">  -1140.65228290 </i>
    <i name="eentropy">      0.00000000 </i>
    <i name="bandstr">   -462.36852030 </i>
    <i name="atom">   2388.97348331 </i>
    <i name="e_fr_energy">    -48.12291636 </i>
    <i name="e_wo_entrp">    -48.12291636 </i>
    <i name="e_0_energy">    -48.12291636 </i>
   </energy>
  </scstep>
  <structure>
   <crystal>
    <varray name="basis" >
     <v>       6.35035718      -0.00000001      -0.00000000 </v>
     <v>       3.17517822       5.49957036      -0.00000000 </v>
     <v>       0.00000000       0.00000000      22.25001166 </v>
    </varray>
    <i name="volume">    777.06466161 </i>
    <varray name="rec_basis" >
     <v>       0.15747146      -0.09091618      -0.00000000 </v>
     <v>       0.00000000       0.18183239      -0.00000000 </v>
     <v>       0.00000000       0.00000000       0.04494380 </v>
    </varray>
   </crystal>
   <varray name="positions" >
    <v>       0.33333300       0.33333300       0.49992500 </v>
    <v>       0.66666700       0.66666700       0.50007500 </v>
    <v>       0.00000000       0.00000000       0.44821600 </v>
    <v>      -0.00000000       0.00000000       0.55485408 </v>
    <v>       0.63062354       0.00022784       0.57030179 </v>
    <v>       0.00022784       0.36914962       0.57030179 </v>
    <v>       0.36914962       0.63062354       0.57030179 </v>
    <v>       0.37451036       0.99980339       0.42734388 </v>
    <v>       0.99980339       0.62568525       0.42734388 </v>
    <v>       0.62568525       0.37451036       0.42734388 </v>
   </varray>
  </structure>
  <varray name="forces" >
   <v>       0.00000000       0.00000000      -0.09255372 </v>
   <v>       0.00000000       0.00000000      -0.10289759 </v>
   <v>       0.00000000       0.00000000       0.38763972 </v>
   <v>       0.00000000       0.00000000      -0.11149986 </v>
   <v>      -0.03412098      -0.00537089      -0.01854831 </v>
   <v>       0.01240916       0.03223508      -0.01854831 </v>
   <v>       0.02171182      -0.02686419      -0.01854831 </v>
   <v>      -0.04100884       0.00123709      -0.00834787 </v>
   <v>       0.02157577       0.03489615      -0.00834787 </v>
   <v>       0.01943307      -0.03613324      -0.00834787 </v>
  </varray>
  <varray name="stress" >
   <v>      -0.12262638      -0.00000080      -0.00000000 </v>
   <v>       0.00000082      -0.12262637      -0.00000000 </v>
   <v>       0.00000000       0.00000000      -1.23932255 </v>
  </varray>
  <energy>
   <i name="e_fr_energy">    -48.12291636 </i>
   <i name="e_wo_entrp">    -48.12291636 </i>
   <i name="e_0_energy">      0.00000000 </i>
  </energy>
  <time name="totalsc">  372.01  374.23</time>
 </calculation>
 <calculation>
  <scstep>
   <time name="dav">   25.72   26.43</time>
   <time name="total">   79.40   81.25</time>
   <energy>
    <i name="alphaZ">     40.80375560 </i>
    <i name="ewald">   7169.43554614 </i>
    <i name="hartreedc">  -9292.12517808 </i>
    <i name="XCdc">    -48.13432474 </i>
    <i name="pawpsdc">   1291.04738505 </i>
    <i name="pawaedc">  -1140.64271592 </i>
    <i name="eentropy">      0.00000000 </i>
    <i name="bandstr">   -457.48692567 </i>
    <i name="atom">   2388.97348331 </i>
    <i name="e_fr_energy">    -48.12897430 </i>
    <i name="e_wo_entrp">    -48.12897430 </i>
    <i name="e_0_energy">    -48.12897430 </i>
   </energy>
  </scstep>
  <scstep>
   <time name="dav">   27.86   28.71</time>
   <time name="total">   82.24   83.38</time>
   <energy>
    <i name="e_fr_energy">    -48.12626770 </i>
    <i name="e_wo_entrp">    -48.12626770 </i>
    <i name="e_0_energy">    -48.12626770 </i>
   </energy>
  </scstep>
  <scstep>
   <time name="dav">   30.73   31.05</time>
   <time name="total">   84.80   85.84</time>
   <energy>
    <i name="e_fr_energy">    -48.12435063 </i>
    <i name="e_wo_entrp">    -48.12435063 </i>
    <i name="e_0_energy">    -48.12435063 </i>
   </energy>
  </scstep>
  <scstep>
   <time name="dav">   28.93   29.04</time>
   <time name="total">   83.47   83.75</time>
   <energy>
    <i name="e_fr_energy">    -48.12282148 </i>
    <i name="e_wo_entrp">    -48.12282148 </i>
    <i name="e_0_energy">    -48.12282148 </i>
   </energy>
  </scstep>
  <scstep>
   <time name="dav">   26.68   27.19</time>
   <time name="total">   79.22   79.98</time>
   <energy>
    <i name="alphaZ">     40.80375560 </i>
    <i name="ewald">   7169.43554614 </i>
    <i name="hartreedc">  -9289.41352496 </i>
    <i name="XCdc">    -48.20582386 </i>
    <i name="pawpsdc">   1292.09221315 </i>
    <i name="pawaedc">  -1141.69020839 </i>
    <i name="eentropy">      0.00000000 </i>
    <i name="bandstr">   -460.11819953 </i>
    <i name="atom">   2388.97348331 </i>
    <i name="e_fr_energy">    -48.12275853 </i>
    <i name="e_wo_entrp">    -48.12275853 </i>
    <i name="e_0_energy">    -48.12275853 </i>
   </energy>
  </scstep>
  <structure>
   <crystal>
    <varray name="basis" >
     <v>       6.34894032      -0.00000003      -0.00000000 </v>
     <v>       3.17446981       5.49834331      -0.00000000 </v>
     <v>       0.00000000       0.00000000      22.17181143 </v>
    </varray>
    <i name="volume">    773.98808602 </i>
    <varray name="rec_basis" >
     <v>       0.15750660      -0.09093647      -0.00000000 </v>
     <v>       0.00000000       0.18187296      -0.00000000 </v>
     <v>       0.00000000       0.00000000       0.04510231 </v>
    </varray>
   </crystal>
   <varray name="positions" >
    <v>       0.33333300       0.33333300       0.49992500 </v>
    <v>       0.66666700       0.66666700       0.50007500 </v>
    <v>       0.00000000       0.00000000       0.44821600 </v>
    <v>      -0.00000000       0.00000000       0.55457146 </v>
    <v>       0.63034351       0.00016947       0.57023936 </v>
    <v>       0.00016947       0.36948802       0.57023936 </v>
    <v>       0.36948802       0.63034351       0.57023936 </v>
    <v>       0.37422550       0.99981929       0.42731014 </v>
    <v>       0.99981929       0.62595421       0.42731014 </v>
    <v>       0.62595421       0.37422550       0.42731014 </v>
   </varray>
  </structure>
  <varray name="forces" >
   <v>       0.00000000      -0.00000000      -0.09546950 </v>
   <v>       0.00000000      -0.00000000      -0.10833995 </v>
   <v>       0.00000000      -0.00000000       0.27641637 </v>
   <v>       0.00000000      -0.00000000       0.04152582 </v>
   <v>      -0.01465724       0.00166945       0.01134905 </v>
   <v>       0.00877441       0.01185882       0.01134905 </v>
   <v>       0.00588284      -0.01352827       0.01134905 </v>
   <v>      -0.03224624       0.00407439      -0.04939330 </v>
   <v>       0.01965165       0.02588887      -0.04939330 </v>
   <v>       0.01259460      -0.02996326      -0.04939330 </v>
  </varray>
  <varray name="stress" >
   <v>       0.04814423      -0.00000069       0.00000000 </v>
   <v>       0.00000068       0.04814422      -0.00000000 </v>
   <v>       0.00000000      -0.00000000      -0.25907158 </v>
  </varray>
  <energy>
   <i name="e_fr_energy">    -48.12275853 </i>
   <i name="e_wo_entrp">    -48.12275853 </i>
   <i name="e_0_energy">      0.00000000 </i>
  </energy>
  <time name="totalsc">  544.82  551.72</time>
 </calculation>
 <calculation>
  <scstep>
   <time name="dav">   26.31   26.49</time>
   <time name="total">   80.75   81.44</time>
   <energy>
    <i name="alphaZ">     40.83134442 </i>
    <i name="ewald">   7164.24223440 </i>
    <i name="hartreedc">  -9285.03559659 </i>
    <i name="XCdc">    -48.18293121 </i>
    <i name="pawpsdc">   1292.30477581 </i>
    <i name="pawaedc">  -1141.91200413 </i>
    <i name="eentropy">      0.00000000 </i>
    <i name="bandstr">   -459.34419601 </i>
    <i name="atom">   2388.97348331 </i>
    <i name="e_fr_energy">    -48.12289001 </i>
    <i name="e_wo_entrp">    -48.12289001 </i>
    <i name="e_0_energy">    -48.12289001 </i>
   </energy>
  </scstep>
  <scstep>
   <time name="dav">   25.94   26.02</time>
   <time name="total">   77.93   78.78</time>
   <energy>
    <i name="alphaZ">     40.83134442 </i>
    <i name="ewald">   7164.24223440 </i>
    <i name="hartreedc">  -9284.67188219 </i>
    <i name="XCdc">    -48.19536848 </i>
    <i name="pawpsdc">   1292.41539650 </i>
    <i name="pawaedc">  -1142.01234201 </i>
    <i name="eentropy">      0.00000000 </i>
    <i name="bandstr">   -459.70570210 </i>
    <i name="atom">   2388.97348331 </i>
    <i name="e_fr_energy">    -48.12283614 </i>
    <i name="e_wo_entrp">    -48.12283614 </i>
    <i name="e_0_energy">    -48.12283614 </i>
   </energy>
  </scstep>
  <structure>
   <crystal>
    <varray name="basis" >
     <v>       6.34869936      -0.00000003      -0.00000000 </v>
     <v>       3.17434933       5.49813464      -0.00000000 </v>
     <v>       0.00000000       0.00000000      22.15851234 </v>
    </varray>
    <i name="volume">    773.46511961 </i>
    <varray name="rec_basis" >
     <v>       0.15751258      -0.09093992      -0.00000000 </v>
     <v>       0.00000000       0.18187987      -0.00000000 </v>
     <v>       0.00000000       0.00000000       0.04512938 </v>
    </varray>
   </crystal>
   <varray name="positions" >
    <v>       0.33333300       0.33333300       0.49992500 </v>
    <v>       0.66666700       0.66666700       0.50007500 </v>
    <v>       0.00000000       0.00000000       0.44821600 </v>
    <v>      -0.00000000       0.00000000       0.55452323 </v>
    <v>       0.63029587       0.00015954       0.57022870 </v>
    <v>       0.00015954       0.36954558       0.57022870 </v>
    <v>       0.36954558       0.63029587       0.57022870 </v>
    <v>       0.37417705       0.99982199       0.42730438 </v>
    <v>       0.99982199       0.62599996       0.42730438 </v>
    <v>       0.62599996       0.37417705       0.42730438 </v>
   </varray>
  </structure>
  <varray name="forces" >
   <v>       0.00000000       0.00000000      -0.09751147 </v>
   <v>      -0.00000000       0.00000000      -0.11023359 </v>
   <v>       0.00000000       0.00000000       0.25709650 </v>
   <v>      -0.00000000       0.00000000       0.06788344 </v>
   <v>      -0.01263643       0.00094248       0.01499300 </v>
   <v>       0.00713443       0.01047223       0.01499300 </v>
   <v>       0.00550200      -0.01141471       0.01499300 </v>
   <v>      -0.02769546       0.00292765      -0.05407130 </v>
   <v>       0.01638315       0.02252115      -0.05407130 </v>
   <v>       0.01131231      -0.02544879      -0.05407130 </v>
  </varray>
  <varray name="stress" >
   <v>       0.23700040      -0.00000049       0.00000000 </v>
   <v>       0.00000046       0.23700038       0.00000000 </v>
   <v>       0.00000000       0.00000000      -0.05713183 </v>
  </varray>
  <energy>
   <i name="e_fr_energy">    -48.12283614 </i>
   <i name="e_wo_entrp">    -48.12283614 </i>
   <i name="e_0_energy">      0.00000000 </i>
  </energy>
  <time name="totalsc">  293.50  295.19</time>
  <eigenvalues>
   <array>
    <dimension dim="1">band</dimension>
    <dimension dim="2">kpoint</dimension>
    <dimension dim="3">spin</dimension>
    <field>eigene</field>
    <field>occ</field>
    <set>
     <set comment="spin 1">
      <set comment="kpoint 1">
       <r>  -17.3695    1.0000 </r>
       <r>  -16.3127    1.0000 </r>
       <r>  -15.4341    1.0000 </r>
       <r>  -15.4341    1.0000 </r>
       <r>  -15.1845    1.0000 </r>
       <r>  -15.1844    1.0000 </r>
       <r>  -13.0344    1.0000 </r>
       <r>  -10.3924    1.0000 </r>
       <r>   -8.2104    1.0000 </r>
       <r>   -8.2103    1.0000 </r>
       <r>   -7.7869    1.0000 </r>
       <r>   -7.5484    1.0000 </r>
       <r>   -7.4466    1.0000 </r>
       <r>   -7.4466    1.0000 </r>
       <r>   -6.2670    1.0000 </r>
       <r>   -5.5623    1.0000 </r>
       <r>   -5.5623    1.0000 </r>
       <r>   -5.2333    1.0000 </r>
       <r>   -5.2333    1.0000 </r>
       <r>   -5.1726    1.0000 </r>
       <r>   -4.6008    1.0000 </r>
       <r>   -4.6008    1.0000 </r>
       <r>   -4.5509    1.0000 </r>
       <r>   -3.7782    1.0000 </r>
       <r>   -3.7782    1.0000 </r>
       <r>   -3.6339    1.0000 </r>
       <r>   -3.6339    1.0000 </r>
       <r>   -3.6140    1.0000 </r>
       <r>   -3.4337    1.0000 </r>
       <r>   -3.3007    1.0000 </r>
       <r>   -3.3007    1.0000 </r>
       <r>   -1.8042    0.0000 </r>
       <r>   -1.4836    0.0000 </r>
       <r>   -1.4836    0.0000 </r>
       <r>   -1.1468    0.0000 </r>
       <r>   -0.9737    0.0000 </r>
       <r>   -0.9737    0.0000 </r>
       <r>    0.1923    0.0000 </r>
       <r>    0.1924    0.0000 </r>
       <r>    1.3997    0.0000 </r>
       <r>    1.6091    0.0000 </r>
       <r>    2.0313    0.0000 </r>
       <r>    2.0805    0.0000 </r>
       <r>    2.1315    0.0000 </r>
       <r>    2.1315    0.0000 </r>
       <r>    2.5204    0.0000 </r>
       <r>    3.1672    0.0000 </r>
       <r>    3.3941    0.0000 </r>
      </set>
      <set comment="kpoint 2">
       <r>  -17.2482    1.0000 </r>
       <r>  -16.2224    1.0000 </r>
       <r>  -15.6246    1.0000 </r>
       <r>  -15.5093    1.0000 </r>
       <r>  -15.2883    1.0000 </r>
       <r>  -15.2523    1.0000 </r>
       <r>  -12.8882    1.0000 </r>
       <r>  -10.4570    1.0000 </r>
       <r>   -8.2359    1.0000 </r>
       <r>   -7.9649    1.0000 </r>
       <r>   -7.6921    1.0000 </r>
       <r>   -7.6457    1.0000 </r>
       <r>   -6.9882    1.0000 </r>
       <r>   -6.7581    1.0000 </r>
       <r>   -6.1261    1.0000 </r>
       <r>   -5.7944    1.0000 </r>
       <r>   -5.7618    1.0000 </r>
       <r>   -5.5566    1.0000 </r>
       <r>   -5.1076    1.0000 </r>
       <r>   -5.0054    1.0000 </r>
       <r>   -4.9123    1.0000 </r>
       <r>   -4.8346    1.0000 </r>
       <r>   -4.4277    1.0000 </r>
       <r>   -4.3049    1.0000 </r>
       <r>   -4.1016    1.0000 </r>
       <r>   -3.7323    1.0000 </r>
       <r>   -3.7093    1.0000 </r>
       <r>   -3.5664    1.0000 </r>
       <r>   -3.5112    1.0000 </r>
       <r>   -3.3119    1.0000 </r>
       <r>   -3.2004    1.0000 </r>
       <r>   -2.1064   -0.0262 </r>
       <r>   -1.4368    0.0000 </r>
       <r>   -1.4087    0.0000 </r>
       <r>   -1.2144    0.0000 </r>
       <r>   -0.9759    0.0000 </r>
       <r>   -0.5074    0.0000 </r>
       <r>    0.1840    0.0000 </r>
       <r>    0.3503    0.0000 </r>
       <r>    1.2241    0.0000 </r>
       <r>    1.6875    0.0000 </r>
       <r>    1.9438    0.0000 </r>
       <r>    2.0338    0.0000 </r>
       <r>    2.2359    0.0000 </r>
       <r>    2.2536    0.0000 </r>
       <r>    2.5903    0.0000 </r>
       <r>    3.3091    0.0000 </r>
       <r>    3.3827    0.0000 </r>
      </set>
      <set comment="kpoint 3">
       <r>  -16.9526    1.0000 </r>
       <r>  -16.1069    1.0000 </r>
       <r>  -15.9524    1.0000 </r>
       <r>  -15.6051    1.0000 </r>
       <r>  -15.5157    1.0000 </r>
       <r>  -15.3532    1.0000 </r>
       <r>  -12.6695    1.0000 </r>
       <r>  -10.5149    1.0000 </r>
       <r>   -8.1094    1.0000 </r>
       <r>   -7.7244    1.0000 </r>
       <r>   -7.3094    1.0000 </r>
       <r>   -7.0970    1.0000 </r>
       <r>   -6.3753    1.0000 </r>
       <r>   -6.2838    1.0000 </r>
       <r>   -6.2302    1.0000 </r>
       <r>   -6.1002    1.0000 </r>
       <r>   -5.9333    1.0000 </r>
       <r>   -5.8411    1.0000 </r>
       <r>   -5.4204    1.0000 </r>
       <r>   -5.3296    1.0000 </r>
       <r>   -5.2099    1.0000 </r>
       <r>   -4.6851    1.0000 </r>
       <r>   -4.6282    1.0000 </r>
       <r>   -4.4223    1.0000 </r>
       <r>   -4.1656    1.0000 </r>
       <r>   -4.0344    1.0000 </r>
       <r>   -3.7657    1.0000 </r>
       <r>   -3.5154    1.0000 </r>
       <r>   -3.4585    1.0000 </r>
       <r>   -3.3984    1.0000 </r>
       <r>   -3.2698    1.0000 </r>
       <r>   -2.1346    0.0081 </r>
       <r>   -1.7627    0.0000 </r>
       <r>   -1.4161    0.0000 </r>
       <r>   -1.3238    0.0000 </r>
       <r>   -1.0206    0.0000 </r>
       <r>   -0.5867    0.0000 </r>
       <r>    0.0079    0.0000 </r>
       <r>    0.7032    0.0000 </r>
       <r>    1.0453    0.0000 </r>
       <r>    1.4766    0.0000 </r>
       <r>    1.6922    0.0000 </r>
       <r>    2.3848    0.0000 </r>
       <r>    2.5340    0.0000 </r>
       <r>    2.6946    0.0000 </r>
       <r>    2.8153    0.0000 </r>
       <r>    3.1472    0.0000 </r>
       <r>    3.2469    0.0000 </r>
      </set>
      <set comment="kpoint 4">
       <r>  -17.0330    1.0000 </r>
       <r>  -16.0759    1.0000 </r>
       <r>  -15.8460    1.0000 </r>
       <r>  -15.7060    1.0000 </r>
       <r>  -15.4218    1.0000 </r>
       <r>  -15.3492    1.0000 </r>
       <r>  -12.6936    1.0000 </r>
       <r>  -10.4948    1.0000 </r>
       <r>   -8.2292    1.0000 </r>
[...]
        <r>  0.0006  0.0045  0.0028  0.0001  0.0007  0.0001  0.0013  0.0002  0.0014 </r>
        <r>  0.0000  0.0002  0.0000  0.0005  0.0005  0.0000  0.0000  0.0001  0.0017 </r>
        <r>  0.0006  0.0007  0.0027  0.0039  0.0014  0.0002  0.0013  0.0001  0.0006 </r>
       </set>
       <set comment="band 30">
        <r>  0.0001  0.0002  0.0001  0.0003  0.1851  0.0127  0.0184  0.0286  0.1875 </r>
        <r>  0.0001  0.0005  0.0000  0.0000  0.1317  0.0290  0.0180  0.0133  0.2382 </r>
        <r>  0.0000  0.0001  0.0000  0.0003  0.0000  0.0000  0.0000  0.0000  0.0001 </r>
        <r>  0.0000  0.0007  0.0000  0.0022  0.0000  0.0000  0.0000  0.0000  0.0000 </r>
        <r>  0.0000  0.0018  0.0006  0.0010  0.0010  0.0003  0.0003  0.0000  0.0002 </r>
        <r>  0.0000  0.0009  0.0000  0.0027  0.0003  0.0001  0.0000  0.0002  0.0008 </r>
        <r>  0.0000  0.0018  0.0006  0.0010  0.0002  0.0001  0.0003  0.0002  0.0010 </r>
        <r>  0.0004  0.0048  0.0012  0.0001  0.0003  0.0001  0.0001  0.0000  0.0002 </r>
        <r>  0.0000  0.0005  0.0000  0.0016  0.0003  0.0002  0.0000  0.0006  0.0008 </r>
        <r>  0.0004  0.0008  0.0011  0.0040  0.0002  0.0001  0.0001  0.0001  0.0003 </r>
       </set>
       <set comment="band 31">
        <r>  0.0013  0.0001  0.0001  0.0006  0.0370  0.0039  0.2202  0.0018  0.1174 </r>
        <r>  0.0012  0.0003  0.0001  0.0004  0.0691  0.0029  0.2148  0.0023  0.0898 </r>
        <r>  0.0071  0.0039  0.0033  0.0014  0.0002  0.0002  0.0005  0.0001  0.0001 </r>
        <r>  0.0018  0.0103  0.0068  0.0037  0.0000  0.0000  0.0000  0.0000  0.0000 </r>
        <r>  0.0001  0.0007  0.0005  0.0002  0.0004  0.0009  0.0000  0.0004  0.0001 </r>
        <r>  0.0024  0.0045  0.0027  0.0015  0.0007  0.0000  0.0016  0.0000  0.0002 </r>
        <r>  0.0001  0.0005  0.0004  0.0005  0.0002  0.0000  0.0000  0.0013  0.0002 </r>
        <r>  0.0004  0.0020  0.0007  0.0047  0.0001  0.0003  0.0001  0.0007  0.0000 </r>
        <r>  0.0010  0.0011  0.0049  0.0004  0.0003  0.0000  0.0014  0.0000  0.0001 </r>
        <r>  0.0004  0.0015  0.0006  0.0053  0.0000  0.0004  0.0001  0.0006  0.0002 </r>
       </set>
       <set comment="band 32">
        <r>  0.0024  0.0002  0.0005  0.0007  0.0775  0.0107  0.1613  0.0035  0.1342 </r>
        <r>  0.0024  0.0003  0.0005  0.0005  0.1783  0.0064  0.1665  0.0076  0.0302 </r>
        <r>  0.0000  0.0039  0.0000  0.0114  0.0001  0.0001  0.0000  0.0002  0.0003 </r>
        <r>  0.0000  0.0058  0.0000  0.0162  0.0000  0.0000  0.0000  0.0000  0.0000 </r>
        <r>  0.0025  0.0014  0.0006  0.0043  0.0001  0.0005  0.0007  0.0000  0.0002 </r>
        <r>  0.0000  0.0005  0.0000  0.0017  0.0002  0.0006  0.0000  0.0017  0.0005 </r>
        <r>  0.0025  0.0020  0.0006  0.0036  0.0001  0.0001  0.0007  0.0004  0.0002 </r>
        <r>  0.0014  0.0027  0.0031  0.0010  0.0004  0.0006  0.0009  0.0000  0.0001 </r>
        <r>  0.0000  0.0007  0.0000  0.0022  0.0002  0.0002  0.0000  0.0005  0.0005 </r>
        <r>  0.0014  0.0008  0.0032  0.0029  0.0000  0.0002  0.0009  0.0004  0.0005 </r>
       </set>
       <set comment="band 33">
        <r>  0.0011  0.0001  0.0003  0.0000  0.1264  0.0171  0.0377  0.0642  0.0350 </r>
        <r>  0.0011  0.0001  0.0003  0.0000  0.0834  0.0423  0.0372  0.0376  0.0803 </r>
        <r>  0.0148  0.0021  0.0278  0.0007  0.0000  0.0000  0.0030  0.0000  0.0000 </r>
        <r>  0.0034  0.0030  0.0238  0.0010  0.0000  0.0000  0.0000  0.0000  0.0000 </r>
        <r>  0.0018  0.0013  0.0036  0.0005  0.0001  0.0001  0.0005  0.0015  0.0010 </r>
        <r>  0.0058  0.0038  0.0025  0.0013  0.0001  0.0008  0.0000  0.0003  0.0000 </r>
        <r>  0.0019  0.0009  0.0036  0.0009  0.0009  0.0011  0.0005  0.0005  0.0002 </r>
        <r>  0.0022  0.0007  0.0049  0.0062  0.0000  0.0002  0.0002  0.0026  0.0005 </r>
        <r>  0.0054  0.0059  0.0005  0.0019  0.0003  0.0017  0.0001  0.0006  0.0001 </r>
        <r>  0.0021  0.0031  0.0048  0.0038  0.0004  0.0018  0.0002  0.0009  0.0001 </r>
       </set>
       <set comment="band 34">
        <r>  0.0003  0.0001  0.0014  0.0003  0.0129  0.1259  0.0939  0.0531  0.0042 </r>
        <r>  0.0003  0.0002  0.0014  0.0001  0.0020  0.1282  0.0963  0.0502  0.0151 </r>
        <r>  0.0000  0.0027  0.0000  0.0080  0.0010  0.0002  0.0000  0.0007  0.0029 </r>
        <r>  0.0000  0.0048  0.0000  0.0145  0.0000  0.0000  0.0000  0.0000  0.0000 </r>
        <r>  0.0051  0.0005  0.0083  0.0171  0.0018  0.0004  0.0001  0.0002  0.0002 </r>
        <r>  0.0000  0.0007  0.0000  0.0019  0.0007  0.0003  0.0000  0.0008  0.0022 </r>
        <r>  0.0051  0.0109  0.0083  0.0065  0.0002  0.0000  0.0001  0.0006  0.0018 </r>
        <r>  0.0027  0.0031  0.0055  0.0103  0.0017  0.0005  0.0001  0.0003  0.0005 </r>
        <r>  0.0000  0.0007  0.0000  0.0023  0.0005  0.0001  0.0000  0.0003  0.0016 </r>
        <r>  0.0027  0.0046  0.0056  0.0088  0.0002  0.0001  0.0001  0.0007  0.0019 </r>
       </set>
       <set comment="band 35">
        <r>  0.0007  0.0001  0.0007  0.0000  0.0256  0.0963  0.0261  0.1315  0.0271 </r>
        <r>  0.0007  0.0000  0.0007  0.0000  0.0483  0.0778  0.0266  0.1402  0.0041 </r>
        <r>  0.0036  0.0031  0.0010  0.0009  0.0012  0.0011  0.0002  0.0004  0.0004 </r>
        <r>  0.0014  0.0125  0.0018  0.0041  0.0000  0.0000  0.0000  0.0000  0.0000 </r>
        <r>  0.0009  0.0032  0.0027  0.0017  0.0018  0.0013  0.0000  0.0001  0.0000 </r>
        <r>  0.0032  0.0363  0.0100  0.0127  0.0006  0.0005  0.0001  0.0002  0.0002 </r>
        <r>  0.0008  0.0039  0.0025  0.0008  0.0005  0.0008  0.0000  0.0006  0.0012 </r>
        <r>  0.0018  0.0071  0.0051  0.0017  0.0007  0.0012  0.0000  0.0002  0.0000 </r>
        <r>  0.0038  0.0241  0.0116  0.0075  0.0002  0.0007  0.0001  0.0002  0.0001 </r>
        <r>  0.0018  0.0055  0.0050  0.0040  0.0001  0.0008  0.0000  0.0006  0.0005 </r>
       </set>
       <set comment="band 36">
        <r>  0.0041  0.0005  0.0024  0.0012  0.0156  0.0151  0.0161  0.0180  0.0341 </r>
        <r>  0.0041  0.0007  0.0025  0.0010  0.0383  0.0225  0.0147  0.0099  0.0136 </r>
        <r>  0.0019  0.0174  0.0002  0.0055  0.0016  0.0043  0.0001  0.0013  0.0005 </r>
        <r>  0.0003  0.0657  0.0025  0.0206  0.0000  0.0000  0.0000  0.0000  0.0000 </r>
        <r>  0.0028  0.0136  0.0029  0.0192  0.0034  0.0007  0.0001  0.0005  0.0014 </r>
        <r>  0.0185  0.0414  0.0117  0.0156  0.0017  0.0016  0.0004  0.0007  0.0006 </r>
        <r>  0.0035  0.0069  0.0034  0.0256  0.0033  0.0001  0.0001  0.0013  0.0015 </r>
        <r>  0.0012  0.0018  0.0027  0.0006  0.0013  0.0012  0.0000  0.0002  0.0008 </r>
        <r>  0.0065  0.0164  0.0027  0.0066  0.0008  0.0013  0.0004  0.0005  0.0003 </r>
        <r>  0.0018  0.0001  0.0032  0.0025  0.0010  0.0000  0.0000  0.0014  0.0010 </r>
       </set>
       <set comment="band 37">
        <r>  0.0013  0.0007  0.0003  0.0005  0.0194  0.1065  0.0112  0.1407  0.0177 </r>
        <r>  0.0014  0.0005  0.0003  0.0007  0.0036  0.0404  0.0129  0.2187  0.0330 </r>
        <r>  0.0000  0.0016  0.0000  0.0062  0.0001  0.0001  0.0000  0.0005  0.0004 </r>
        <r>  0.0000  0.0012  0.0000  0.0073  0.0000  0.0000  0.0000  0.0000  0.0000 </r>
        <r>  0.0040  0.0266  0.0021  0.0059  0.0005  0.0008  0.0002  0.0003  0.0004 </r>
        <r>  0.0000  0.0068  0.0000  0.0133  0.0002  0.0009  0.0000  0.0022  0.0006 </r>
        <r>  0.0034  0.0069  0.0018  0.0260  0.0000  0.0001  0.0002  0.0009  0.0009 </r>
        <r>  0.0053  0.0164  0.0028  0.0010  0.0003  0.0003  0.0002  0.0001  0.0002 </r>
        <r>  0.0000  0.0073  0.0000  0.0202  0.0004  0.0012  0.0000  0.0035  0.0009 </r>
        <r>  0.0048  0.0019  0.0025  0.0145  0.0001  0.0000  0.0002  0.0002  0.0006 </r>
       </set>
       <set comment="band 38">
        <r>  0.0002  0.0004  0.0002  0.0008  0.0381  0.1381  0.0040  0.0532  0.0228 </r>
        <r>  0.0002  0.0005  0.0002  0.0007  0.0364  0.1191  0.0040  0.0724  0.0252 </r>
        <r>  0.0300  0.0018  0.0226  0.0006  0.0001  0.0002  0.0017  0.0001  0.0000 </r>
        <r>  0.0057  0.0015  0.0297  0.0005  0.0000  0.0000  0.0000  0.0000  0.0000 </r>
        <r>  0.0008  0.0001  0.0142  0.0155  0.0001  0.0002  0.0001  0.0003  0.0006 </r>
        <r>  0.0005  0.0165  0.0042  0.0054  0.0003  0.0002  0.0001  0.0001  0.0001 </r>
        <r>  0.0008  0.0123  0.0142  0.0036  0.0004  0.0004  0.0001  0.0000  0.0003 </r>
        <r>  0.0011  0.0007  0.0033  0.0380  0.0002  0.0002  0.0001  0.0005  0.0011 </r>
        <r>  0.0008  0.0148  0.0013  0.0050  0.0002  0.0000  0.0000  0.0000  0.0001 </r>
        <r>  0.0011  0.0251  0.0033  0.0135  0.0012  0.0006  0.0001  0.0000  0.0000 </r>
       </set>
       <set comment="band 39">
        <r>  0.0039  0.0011  0.0012  0.0010  0.0315  0.0360  0.0067  0.0649  0.0040 </r>
        <r>  0.0039  0.0015  0.0013  0.0006  0.0205  0.0969  0.0068  0.0054  0.0154 </r>
        <r>  0.0000  0.0029  0.0000  0.0086  0.0001  0.0013  0.0000  0.0040  0.0002 </r>
        <r>  0.0000  0.0169  0.0000  0.0503  0.0000  0.0000  0.0000  0.0000  0.0000 </r>
        <r>  0.0053  0.0293  0.0010  0.0468  0.0007  0.0012  0.0003  0.0013  0.0019 </r>
        <r>  0.0000  0.0107  0.0000  0.0322  0.0008  0.0001  0.0000  0.0002  0.0025 </r>
        <r>  0.0053  0.0737  0.0011  0.0022  0.0014  0.0022  0.0003  0.0003  0.0012 </r>
        <r>  0.0021  0.0225  0.0010  0.0063  0.0004  0.0019  0.0001  0.0006  0.0003 </r>
        <r>  0.0000  0.0018  0.0000  0.0053  0.0002  0.0000  0.0000  0.0001  0.0005 </r>
        <r>  0.0021  0.0196  0.0009  0.0093  0.0006  0.0014  0.0001  0.0011  0.0001 </r>
       </set>
       <set comment="band 40">
        <r>  0.0094  0.0032  0.0017  0.0004  0.0349  0.0041  0.0095  0.0064  0.0057 </r>
        <r>  0.0095  0.0012  0.0017  0.0023  0.0018  0.0103  0.0096  0.0003  0.0387 </r>
        <r>  0.0054  0.0584  0.0571  0.0194  0.0059  0.0003  0.0041  0.0001  0.0019 </r>
        <r>  0.0116  0.0162  0.0221  0.0054  0.0000  0.0000  0.0000  0.0000  0.0000 </r>
        <r>  0.0003  0.0017  0.0058  0.0013  0.0010  0.0007  0.0011  0.0005  0.0009 </r>
        <r>  0.0025  0.0044  0.0050  0.0015  0.0006  0.0033  0.0001  0.0011  0.0002 </r>
        <r>  0.0003  0.0002  0.0058  0.0026  0.0016  0.0008  0.0011  0.0004  0.0003 </r>
        <r>  0.0006  0.0020  0.0051  0.0024  0.0044  0.0006  0.0004  0.0008  0.0030 </r>
        <r>  0.0202  0.0158  0.0234  0.0053  0.0009  0.0029  0.0000  0.0010  0.0003 </r>
        <r>  0.0006  0.0007  0.0051  0.0037  0.0059  0.0014  0.0004  0.0001  0.0015 </r>
       </set>
       <set comment="band 41">
        <r>  0.0083  0.0019  0.0007  0.0027  0.0085  0.0081  0.0121  0.0207  0.0334 </r>
        <r>  0.0084  0.0038  0.0007  0.0008  0.0338  0.0111  0.0123  0.0177  0.0080 </r>
        <r>  0.0053  0.0512  0.0598  0.0171  0.0058  0.0002  0.0054  0.0001  0.0019 </r>
        <r>  0.0131  0.0107  0.0201  0.0035  0.0000  0.0000  0.0000  0.0000  0.0000 </r>
        <r>  0.0007  0.0014  0.0034  0.0011  0.0012  0.0004  0.0001  0.0025  0.0001 </r>
        <r>  0.0041  0.0036  0.0165  0.0012  0.0010  0.0000  0.0010  0.0000  0.0003 </r>
        <r>  0.0007  0.0019  0.0033  0.0007  0.0006  0.0027  0.0001  0.0003  0.0007 </r>
        <r>  0.0028  0.0024  0.0156  0.0007  0.0042  0.0001  0.0001  0.0031  0.0004 </r>
        <r>  0.0067  0.0230  0.0143  0.0076  0.0044  0.0003  0.0012  0.0001  0.0015 </r>
        <r>  0.0028  0.0001  0.0155  0.0029  0.0016  0.0028  0.0001  0.0004  0.0029 </r>
       </set>
       <set comment="band 42">
        <r>  0.0096  0.0012  0.0014  0.0000  0.0060  0.0219  0.0079  0.0152  0.0168 </r>
        <r>  0.0093  0.0004  0.0014  0.0008  0.0104  0.0096  0.0076  0.0279  0.0128 </r>
        <r>  0.0000  0.0312  0.0000  0.0939  0.0033  0.0002  0.0000  0.0005  0.0100 </r>
        <r>  0.0000  0.0075  0.0000  0.0226  0.0000  0.0000  0.0000  0.0000  0.0000 </r>
        <r>  0.0009  0.0023  0.0014  0.0087  0.0007  0.0005  0.0014  0.0008  0.0014 </r>
        <r>  0.0000  0.0024  0.0000  0.0069  0.0006  0.0002  0.0000  0.0006  0.0019 </r>
        <r>  0.0009  0.0093  0.0014  0.0017  0.0004  0.0007  0.0014  0.0006  0.0017 </r>
        <r>  0.0098  0.0123  0.0007  0.0358  0.0026  0.0000  0.0012  0.0008  0.0051 </r>
        <r>  0.0000  0.0073  0.0000  0.0220  0.0027  0.0000  0.0000  0.0000  0.0081 </r>
        <r>  0.0098  0.0478  0.0007  0.0003  0.0021  0.0007  0.0012  0.0002  0.0055 </r>
       </set>
       <set comment="band 43">
        <r>  0.0011  0.0006  0.0005  0.0040  0.0014  0.0018  0.0040  0.0013  0.0002 </r>
        <r>  0.0011  0.0021  0.0005  0.0026  0.0001  0.0020  0.0039  0.0011  0.0016 </r>
        <r>  0.0038  0.0010  0.0040  0.0003  0.0002  0.0001  0.0062  0.0000  0.0001 </r>
        <r>  0.0014  0.0018  0.0047  0.0006  0.0000  0.0000  0.0000  0.0000  0.0000 </r>
        <r>  0.0005  0.0006  0.0021  0.0036  0.0002  0.0004  0.0006  0.0005  0.0001 </r>
        <r>  0.0036  0.0022  0.0039  0.0007  0.0003  0.0001  0.0049  0.0000  0.0001 </r>
        <r>  0.0005  0.0017  0.0021  0.0025  0.0000  0.0003  0.0006  0.0006  0.0003 </r>
        <r>  0.0006  0.0003  0.0020  0.0028  0.0002  0.0003  0.0011  0.0006  0.0001 </r>
        <r>  0.0025  0.0030  0.0024  0.0010  0.0005  0.0014  0.0027  0.0005  0.0002 </r>
        <r>  0.0006  0.0014  0.0020  0.0017  0.0001  0.0006  0.0011  0.0003  0.0002 </r>
       </set>
       <set comment="band 44">
        <r>  0.0033  0.0030  0.0022  0.0027  0.0043  0.0007  0.0004  0.0008  0.0056 </r>
        <r>  0.0033  0.0043  0.0023  0.0014  0.0041  0.0009  0.0004  0.0007  0.0056 </r>
        <r>  0.0000  0.0017  0.0000  0.0049  0.0002  0.0001  0.0000  0.0003  0.0006 </r>
        <r>  0.0000  0.0008  0.0000  0.0025  0.0000  0.0000  0.0000  0.0000  0.0000 </r>
        <r>  0.0030  0.0011  0.0126  0.0024  0.0001  0.0011  0.0032  0.0011  0.0001 </r>
        <r>  0.0000  0.0008  0.0000  0.0023  0.0000  0.0012  0.0000  0.0034  0.0001 </r>
        <r>  0.0030  0.0034  0.0125  0.0000  0.0000  0.0003  0.0032  0.0019  0.0002 </r>
        <r>  0.0004  0.0008  0.0056  0.0027  0.0003  0.0012  0.0011  0.0013  0.0007 </r>
        <r>  0.0000  0.0005  0.0000  0.0014  0.0003  0.0009  0.0000  0.0027  0.0009 </r>
        <r>  0.0004  0.0028  0.0056  0.0007  0.0003  0.0003  0.0011  0.0022  0.0007 </r>
       </set>
       <set comment="band 45">
        <r>  0.0200  0.0026  0.0070  0.0015  0.0054  0.0007  0.0047  0.0004  0.0099 </r>
        <r>  0.0199  0.0015  0.0068  0.0027  0.0061  0.0009  0.0046  0.0002  0.0097 </r>
        <r>  0.0003  0.0111  0.0032  0.0037  0.0030  0.0019  0.0003  0.0006  0.0010 </r>
        <r>  0.0000  0.0032  0.0001  0.0011  0.0000  0.0000  0.0000  0.0000  0.0000 </r>
        <r>  0.0007  0.0021  0.0004  0.0008  0.0015  0.0085  0.0005  0.0003  0.0000 </r>
        <r>  0.0010  0.0031  0.0097  0.0010  0.0006  0.0031  0.0031  0.0011  0.0002 </r>
        <r>  0.0007  0.0000  0.0004  0.0029  0.0006  0.0034  0.0005  0.0054  0.0009 </r>
        <r>  0.0002  0.0035  0.0004  0.0007  0.0021  0.0071  0.0002  0.0006  0.0005 </r>
        <r>  0.0009  0.0039  0.0113  0.0013  0.0003  0.0015  0.0059  0.0005  0.0001 </r>
        <r>  0.0002  0.0005  0.0004  0.0039  0.0015  0.0034  0.0002  0.0043  0.0012 </r>
       </set>
       <set comment="band 46">
        <r>  0.0024  0.0012  0.0001  0.0005  0.0014  0.0007  0.0076  0.0002  0.0024 </r>
        <r>  0.0024  0.0002  0.0001  0.0015  0.0015  0.0006  0.0078  0.0004  0.0021 </r>
        <r>  0.0000  0.0013  0.0000  0.0039  0.0004  0.0001  0.0000  0.0003  0.0011 </r>
        <r>  0.0000  0.0003  0.0000  0.0010  0.0000  0.0000  0.0000  0.0000  0.0000 </r>
        <r>  0.0014  0.0007  0.0009  0.0016  0.0000  0.0002  0.0007  0.0003  0.0002 </r>
        <r>  0.0000  0.0006  0.0000  0.0019  0.0001  0.0000  0.0000  0.0000  0.0002 </r>
        <r>  0.0014  0.0009  0.0009  0.0013  0.0001  0.0001  0.0007  0.0003  0.0001 </r>
        <r>  0.0029  0.0015  0.0080  0.0027  0.0000  0.0001  0.0037  0.0002  0.0004 </r>
        <r>  0.0000  0.0009  0.0000  0.0029  0.0002  0.0003  0.0000  0.0009  0.0005 </r>
        <r>  0.0029  0.0036  0.0081  0.0006  0.0002  0.0001  0.0037  0.0002  0.0002 </r>
       </set>
       <set comment="band 47">
        <r>  0.0275  0.0023  0.0023  0.0024  0.0008  0.0011  0.0003  0.0001  0.0048 </r>
        <r>  0.0275  0.0022  0.0023  0.0025  0.0021  0.0003  0.0003  0.0009  0.0035 </r>
        <r>  0.0003  0.0022  0.0116  0.0007  0.0009  0.0016  0.0028  0.0005  0.0003 </r>
        <r>  0.0007  0.0052  0.0091  0.0017  0.0000  0.0000  0.0000  0.0000  0.0000 </r>
        <r>  0.0006  0.0014  0.0063  0.0009  0.0024  0.0052  0.0001  0.0000  0.0003 </r>
        <r>  0.0002  0.0025  0.0042  0.0009  0.0037  0.0045  0.0006  0.0015  0.0012 </r>
        <r>  0.0006  0.0002  0.0063  0.0021  0.0001  0.0015  0.0001  0.0038  0.0026 </r>
        <r>  0.0006  0.0010  0.0036  0.0001  0.0009  0.0066  0.0003  0.0002  0.0002 </r>
        <r>  0.0002  0.0010  0.0116  0.0003  0.0014  0.0036  0.0008  0.0012  0.0005 </r>
        <r>  0.0005  0.0001  0.0035  0.0010  0.0000  0.0028  0.0003  0.0040  0.0010 </r>
       </set>
       <set comment="band 48">
        <r>  0.0016  0.0004  0.0001  0.0007  0.0002  0.0001  0.0001  0.0001  0.0003 </r>
        <r>  0.0016  0.0002  0.0001  0.0010  0.0001  0.0001  0.0001  0.0001  0.0004 </r>
        <r>  0.0004  0.0001  0.0001  0.0000  0.0001  0.0001  0.0003  0.0000  0.0000 </r>
        <r>  0.0003  0.0003  0.0000  0.0001  0.0000  0.0000  0.0000  0.0000  0.0000 </r>
        <r>  0.0002  0.0001  0.0005  0.0001  0.0003  0.0005  0.0001  0.0001  0.0001 </r>
        <r>  0.0002  0.0007  0.0003  0.0002  0.0002  0.0001  0.0002  0.0000  0.0001 </r>
        <r>  0.0002  0.0001  0.0005  0.0000  0.0000  0.0000  0.0001  0.0005  0.0004 </r>
        <r>  0.0001  0.0001  0.0003  0.0003  0.0000  0.0004  0.0001  0.0000  0.0000 </r>
        <r>  0.0003  0.0004  0.0013  0.0001  0.0000  0.0000  0.0003  0.0000  0.0000 </r>
        <r>  0.0001  0.0003  0.0003  0.0000  0.0000  0.0001  0.0001  0.0004  0.0001 </r>
       </set>
      </set>
     </set>
    </set>
   </array>
  </projected>
 </calculation>
 <structure name="finalpos" >
  <crystal>
   <varray name="basis" >
    <v>       6.34869936      -0.00000003      -0.00000000 </v>
    <v>       3.17434933       5.49813464      -0.00000000 </v>
    <v>       0.00000000       0.00000000      22.15851234 </v>
   </varray>
   <i name="volume">    773.46511961 </i>
   <varray name="rec_basis" >
    <v>       0.15751258      -0.09093992      -0.00000000 </v>
    <v>       0.00000000       0.18187987      -0.00000000 </v>
    <v>       0.00000000       0.00000000       0.04512938 </v>
   </varray>
  </crystal>
  <varray name="positions" >
   <v>       0.33333300       0.33333300       0.49992500 </v>
   <v>       0.66666700       0.66666700       0.50007500 </v>
   <v>       0.00000000       0.00000000       0.44821600 </v>
   <v>      -0.00000000       0.00000000       0.55452323 </v>
   <v>       0.63029587       0.00015954       0.57022870 </v>
   <v>       0.00015954       0.36954558       0.57022870 </v>
   <v>       0.36954558       0.63029587       0.57022870 </v>
   <v>       0.37417705       0.99982199       0.42730438 </v>
   <v>       0.99982199       0.62599996       0.42730438 </v>
   <v>       0.62599996       0.37417705       0.42730438 </v>
  </varray>
  <varray name="selective"  type="logical" >
   <v type="logical" >  F  F  F </v>
   <v type="logical" >  F  F  F </v>
   <v type="logical" >  F  F  F </v>
   <v type="logical" >  T  T  T </v>
   <v type="logical" >  T  T  T </v>
   <v type="logical" >  T  T  T </v>
   <v type="logical" >  T  T  T </v>
   <v type="logical" >  T  T  T </v>
   <v type="logical" >  T  T  T </v>
   <v type="logical" >  T  T  T </v>
  </varray>
  <nose>
   <v>      -3.00000000       0.00000000       0.00010000       0.00010000 </v>
  </nose>
 </structure>
</modeling>
