unknown system                          
           1
     6.907777   -0.000000    0.000000
     3.453888    5.982310    0.000000
     0.000000    0.000000   23.444588
   Cr   Ge   P    Se
   2   1   1   6
Direct configuration=     1
   0.33333300  0.33333300  0.49992500
   0.66666700  0.66666700  0.50007500
   0.00000000  0.00000000  0.44821600
   0.00000000  0.00000000  0.55178400
   0.62635700  0.00042000  0.57375200
   0.00042000  0.37322400  0.57375200
   0.37322400  0.62635700  0.57375200
   0.37364300  0.99958000  0.42624800
   0.99958000  0.62677600  0.42624800
   0.62677600  0.37364300  0.42624800
unknown system                          
           1
     6.262785    0.000000    0.000000
     3.131392    5.423730    0.000000
    -0.000000   -0.000000   22.016198
   Cr   Ge   P    Se
   2   1   1   6
Direct configuration=     2
   0.33333300  0.33333300  0.49992500
   0.66666700  0.66666700  0.50007500
   0.00000000  0.00000000  0.44821600
  -0.00000000  0.00000000  0.55296713
   0.62972725  0.00029457  0.57085188
   0.00029457  0.36997917  0.57085188
   0.36997917  0.62972725  0.57085188
   0.36952789  0.99962236  0.42839587
   0.99962236  0.63084875  0.42839587
   0.63084875  0.36952789  0.42839587
unknown system                          
           1
     6.348879    0.000000    0.000000
     3.174439    5.498290    0.000000
    -0.000000   -0.000000   22.206861
   Cr   Ge   P    Se
   2   1   1   6
Direct configuration=     3
   0.33333300  0.33333300  0.49992500
   0.66666700  0.66666700  0.50007500
   0.00000000  0.00000000  0.44821600
  -0.00000000  0.00000000  0.55279896
   0.62923106  0.00031304  0.57126411
   0.00031304  0.37045690  0.57126411
   0.37045690  0.62923106  0.57126411
   0.37013375  0.99961612  0.42809057
   0.99961612  0.63024913  0.42809057
   0.63024913  0.37013375  0.42809057
unknown system                          
           1
     6.340131    0.000000   -0.000000
     3.170065    5.490715   -0.000000
    -0.000000    0.000000   22.275692
   Cr   Ge   P    Se
   2   1   1   6
Direct configuration=     4
   0.33333300  0.33333300  0.49992500
   0.66666700  0.66666700  0.50007500
   0.00000000  0.00000000  0.44821600
  -0.00000000  0.00000000  0.55410846
   0.63018320  0.00030716  0.57087050
   0.00030716  0.36951063  0.57087050
   0.36951063  0.63018320  0.57087050
   0.37172880  0.99968933  0.42779301
   0.99968933  0.62858087  0.42779301
   0.62858087  0.37172880  0.42779301
unknown system                          
           1
     6.335001    0.000000   -0.000000
     3.167500    5.486272   -0.000000
     0.000000    0.000000   22.316060
   Cr   Ge   P    Se
   2   1   1   6
Direct configuration=     5
   0.33333300  0.33333300  0.49992500
   0.66666700  0.66666700  0.50007500
   0.00000000  0.00000000  0.44821600
  -0.00000000  0.00000000  0.55487408
   0.63074238  0.00030372  0.57064037
   0.00030372  0.36895491  0.57064037
   0.36895491  0.63074238  0.57064037
   0.37266555  0.99973233  0.42761903
   0.99973233  0.62760113  0.42761903
   0.62760113  0.37266555  0.42761903
unknown system                          
           1
     6.346314   -0.000000   -0.000000
     3.173156    5.496068   -0.000000
     0.000000    0.000000   22.267404
   Cr   Ge   P    Se
   2   1   1   6
Direct configuration=     6
   0.33333300  0.33333300  0.49992500
   0.66666700  0.66666700  0.50007500
   0.00000000  0.00000000  0.44821600
  -0.00000000  0.00000000  0.55485935
   0.63065479  0.00024780  0.57039109
   0.00024780  0.36909841  0.57039109
   0.36909841  0.63065479  0.57039109
   0.37402521  0.99978470  0.42741645
   0.99978470  0.62618909  0.42741645
   0.62618909  0.37402521  0.42741645
unknown system                          
           1
     6.350357   -0.000000   -0.000000
     3.175178    5.499570   -0.000000
     0.000000    0.000000   22.250012
   Cr   Ge   P    Se
   2   1   1   6
Direct configuration=     7
   0.33333300  0.33333300  0.49992500
   0.66666700  0.66666700  0.50007500
   0.00000000  0.00000000  0.44821600
  -0.00000000  0.00000000  0.55485408
   0.63062354  0.00022784  0.57030179
   0.00022784  0.36914962  0.57030179
   0.36914962  0.63062354  0.57030179
   0.37451036  0.99980339  0.42734388
   0.99980339  0.62568525  0.42734388
   0.62568525  0.37451036  0.42734388
unknown system                          
           1
     6.348940   -0.000000   -0.000000
     3.174470    5.498343   -0.000000
     0.000000    0.000000   22.171811
   Cr   Ge   P    Se
   2   1   1   6
Direct configuration=     8
   0.33333300  0.33333300  0.49992500
   0.66666700  0.66666700  0.50007500
   0.00000000  0.00000000  0.44821600
  -0.00000000  0.00000000  0.55457146
   0.63034351  0.00016947  0.57023936
   0.00016947  0.36948802  0.57023936
   0.36948802  0.63034351  0.57023936
   0.37422550  0.99981929  0.42731014
   0.99981929  0.62595421  0.42731014
   0.62595421  0.37422550  0.42731014
unknown system                          
           1
     6.348699   -0.000000   -0.000000
     3.174349    5.498135   -0.000000
     0.000000    0.000000   22.158512
   Cr   Ge   P    Se
   2   1   1   6
Direct configuration=     9
   0.33333300  0.33333300  0.49992500
   0.66666700  0.66666700  0.50007500
   0.00000000  0.00000000  0.44821600
  -0.00000000  0.00000000  0.55452323
   0.63029587  0.00015954  0.57022870
   0.00015954  0.36954558  0.57022870
   0.36954558  0.63029587  0.57022870
   0.37417705  0.99982199  0.42730438
   0.99982199  0.62599996  0.42730438
   0.62599996  0.37417705  0.42730438
