 vasp.5.4.4.18Apr17-6-g9f103f2a35 (build May  1 2020 15:48:39) complex           
 executed on             LinuxGNU date 2020.06.15  22:54:07
 running on   24 total cores
 distrk:  each k-point on   24 cores,    1 groups
 distr:  one band on NCORES_PER_BAND=   1 cores,   24 groups


--------------------------------------------------------------------------------------------------------


 INCAR:
 POTCAR:   PAW_PBE Ni 06Sep2000                   
 POTCAR:    PAW_PBE P 17Jan2003                   
 POTCAR:   PAW_PBE Te 08Apr2002                   

 ----------------------------------------------------------------------------- 
|                                                                             |
|           W    W    AA    RRRRR   N    N  II  N    N   GGGG   !!!           |
|           W    W   A  A   R    R  NN   N  II  NN   N  G    G  !!!           |
|           W    W  A    A  R    R  N N  N  II  N N  N  G       !!!           |
|           W WW W  AAAAAA  RRRRR   N  N N  II  N  N N  G  GGG   !            |
|           WW  WW  A    A  R   R   N   NN  II  N   NN  G    G                |
|           W    W  A    A  R    R  N    N  II  N    N   GGGG   !!!           |
|                                                                             |
|      For optimal performance we recommend to set                            |
|        NCORE= 4 - approx SQRT( number of cores)                             |
|      NCORE specifies how many cores store one orbital (NPAR=cpu/NCORE).     |
|      This setting can  greatly improve the performance of VASP for DFT.     |
|      The default,   NCORE=1            might be grossly inefficient         |
|      on modern multi-core architectures or massively parallel machines.     |
|      Do your own testing !!!!                                               |
|      Unfortunately you need to use the default for GW and RPA calculations. |
|      (for HF NCORE is supported but not extensively tested yet)             |
|                                                                             |
 ----------------------------------------------------------------------------- 


 ----------------------------------------------------------------------------- 
|                                                                             |
|  ADVICE TO THIS USER RUNNING 'VASP/VAMP'   (HEAR YOUR MASTER'S VOICE ...):  |
|                                                                             |
|      You have switched on vdW-DFT.                                          |
|      This routine was written and supplied by Jiri Klimes.                  |
|      We recommed that you carefully read and cite the following             |
|      publication                                                            |
|      J. Klimes, D.R. Bowler, A. Michelides                                  |
|        J. Phys.: Cond Matt. 22 022201 (2010)                                |
|      J. Klimes, D.R. Bowler, A. Michelides                                  |
|        Phys. Rev. B. 83, 195131 (2011)                                      |
|      and references therein.                                                |
|                                                                             |
 ----------------------------------------------------------------------------- 

 POTCAR:   PAW_PBE Ni 06Sep2000                   
   VRHFIN =Ni:                                                                  
   LEXCH  = PE                                                                  
   EATOM  =  1077.9025 eV,   79.2236 Ry                                         
                                                                                
   TITEL  = PAW_PBE Ni 06Sep2000                                                
   LULTRA =        F    use ultrasoft PP ?                                      
   IUNSCR =        1    unscreen: 0-lin 1-nonlin 2-no                           
   RPACOR =    2.000    partial core radius                                     
   POMASS =   58.690; ZVAL   =   10.000    mass and valenz                      
   RCORE  =    2.300    outmost cutoff radius                                   
   RWIGS  =    2.430; RWIGS  =    1.286    wigner-seitz radius (au A)           
   ENMAX  =  269.533; ENMIN  =  202.150 eV                                      
   RCLOC  =    1.681    cutoff for local pot                                    
   LCOR   =        T    correct aug charges                                     
   LPAW   =        T    paw PP                                                  
   EAUG   =  544.565                                                            
   DEXC   =    -.009                                                            
   RMAX   =    2.808    core radius for proj-oper                               
   RAUG   =    1.300    factor for augmentation sphere                          
   RDEP   =    2.390    radius for radial grids                                 
   QCUT   =   -4.451; QGAM   =    8.902    optimization parameters              
                                                                                
   Description                                                                  
     l     E      TYP  RCUT    TYP  RCUT                                        
     2   .000     23  2.300                                                     
     2   .000     23  2.300                                                     
     0   .000     23  2.300                                                     
     0   .000     23  2.300                                                     
     1  -.200     23  2.300                                                     
     1   .000     23  2.300                                                     
     3   .000      7   .000                                                     
  local pseudopotential read in
  partial core-charges read in
  atomic valenz-charges read in
  non local Contribution for L=           2  read in
    real space projection operators read in
  non local Contribution for L=           2  read in
    real space projection operators read in
  non local Contribution for L=           0  read in
    real space projection operators read in
  non local Contribution for L=           0  read in
    real space projection operators read in
  non local Contribution for L=           1  read in
    real space projection operators read in
  non local Contribution for L=           1  read in
    real space projection operators read in
    PAW grid and wavefunctions read in

   number of l-projection  operators is LMAX  =           6
   number of lm-projection operators is LMMAX =          18

 POTCAR:    PAW_PBE P 17Jan2003                   
   VRHFIN =P : s2p3                                                             
   LEXCH  = PE                                                                  
   EATOM  =   176.0430 eV,   12.9388 Ry                                         
                                                                                
   TITEL  = PAW_PBE P 17Jan2003                                                 
   LULTRA =        F    use ultrasoft PP ?                                      
   IUNSCR =        1    unscreen: 0-lin 1-nonlin 2-no                           
   RPACOR =    1.500    partial core radius                                     
   POMASS =   30.974; ZVAL   =    5.000    mass and valenz                      
   RCORE  =    1.900    outmost cutoff radius                                   
   RWIGS  =    2.330; RWIGS  =    1.233    wigner-seitz radius (au A)           
   ENMAX  =  270.000; ENMIN  =  191.280 eV                                      
   ICORE  =        2    local potential                                         
   LCOR   =        T    correct aug charges                                     
   LPAW   =        T    paw PP                                                  
   EAUG   =  342.924                                                            
   DEXC   =    -.002                                                            
   RMAX   =    2.887    core radius for proj-oper                               
   RAUG   =    1.300    factor for augmentation sphere                          
   RDEP   =    1.931    radius for radial grids                                 
   QCUT   =   -4.330; QGAM   =    8.659    optimization parameters              
                                                                                
   Description                                                                  
     l     E      TYP  RCUT    TYP  RCUT                                        
     0   .000     23  1.900                                                     
     0   .000     23  1.900                                                     
     1   .000     23  1.900                                                     
     1   .000     23  1.900                                                     
     2   .000     23  1.900                                                     
  local pseudopotential read in
  partial core-charges read in
  atomic valenz-charges read in
  non local Contribution for L=           0  read in
    real space projection operators read in
  non local Contribution for L=           0  read in
    real space projection operators read in
  non local Contribution for L=           1  read in
    real space projection operators read in
  non local Contribution for L=           1  read in
    real space projection operators read in
    PAW grid and wavefunctions read in

   number of l-projection  operators is LMAX  =           4
   number of lm-projection operators is LMMAX =           8

 POTCAR:   PAW_PBE Te 08Apr2002                   
   VRHFIN =Te: s2p4                                                             
   LEXCH  = PE                                                                  
   EATOM  =   223.2721 eV,   16.4100 Ry                                         
                                                                                
   TITEL  = PAW_PBE Te 08Apr2002                                                
   LULTRA =        F    use ultrasoft PP ?                                      
   IUNSCR =        1    unscreen: 0-lin 1-nonlin 2-no                           
   RPACOR =    2.200    partial core radius                                     
   POMASS =  127.600; ZVAL   =    6.000    mass and valenz                      
   RCORE  =    2.300    outmost cutoff radius                                   
   RWIGS  =    2.900; RWIGS  =    1.535    wigner-seitz radius (au A)           
   ENMAX  =  174.982; ENMIN  =  131.236 eV                                      
   ICORE  =        3    local potential                                         
   LCOR   =        T    correct aug charges                                     
   LPAW   =        T    paw PP                                                  
   EAUG   =  368.792                                                            
   DEXC   =    -.169                                                            
   RMAX   =    3.486    core radius for proj-oper                               
   RAUG   =    1.300    factor for augmentation sphere                          
   RDEP   =    2.397    radius for radial grids                                 
   QCUT   =   -3.586; QGAM   =    7.172    optimization parameters              
                                                                                
   Description                                                                  
     l     E      TYP  RCUT    TYP  RCUT                                        
     0   .000     23  2.300                                                     
     0   .000     23  2.300                                                     
     1   .000     23  2.300                                                     
     1   .000     23  2.300                                                     
     2   .000     23  2.300                                                     
     3  -.100     23  2.300                                                     
  local pseudopotential read in
  partial core-charges read in
  atomic valenz-charges read in
  non local Contribution for L=           0  read in
    real space projection operators read in
  non local Contribution for L=           0  read in
    real space projection operators read in
  non local Contribution for L=           1  read in
    real space projection operators read in
  non local Contribution for L=           1  read in
    real space projection operators read in
  non local Contribution for L=           2  read in
    real space projection operators read in
    PAW grid and wavefunctions read in

   number of l-projection  operators is LMAX  =           5
   number of lm-projection operators is LMMAX =          13

 Optimization of the real space projectors (new method)

 maximal supplied QI-value         = 16.25
 optimisation between [QCUT,QGAM] = [ 11.54, 23.24] = [ 37.28,151.24] Ry 
 Optimized for a Real-space Cutoff    1.49 Angstroem

   l    n(q)    QCUT    max X(q) W(low)/X(q) W(high)/X(q)  e(spline) 
   2      9    11.539     4.811    0.20E-04    0.14E-04    0.45E-07
   2      9    11.539    15.146    0.24E-03    0.12E-03    0.20E-06
   0     10    11.539    14.357    0.18E-04    0.12E-05    0.14E-07
   0     10    11.539    43.282    0.39E-04    0.17E-04    0.23E-06
   1     10    11.539     5.514    0.99E-05    0.13E-04    0.19E-07
   1     10    11.539     7.697    0.38E-04    0.79E-04    0.91E-07
 Optimization of the real space projectors (new method)

 maximal supplied QI-value         = 19.84
 optimisation between [QCUT,QGAM] = [ 11.51, 23.22] = [ 37.09,150.92] Ry 
 Optimized for a Real-space Cutoff    1.21 Angstroem

   l    n(q)    QCUT    max X(q) W(low)/X(q) W(high)/X(q)  e(spline) 
   0      8    11.508     6.651    0.19E-04    0.31E-05    0.49E-08
   0      8    11.508    90.285    0.95E-04    0.17E-03    0.51E-07
   1      8    11.508     4.328    0.14E-04    0.32E-04    0.22E-07
   1      8    11.508    54.583    0.16E-03    0.71E-04    0.89E-07
 Optimization of the real space projectors (new method)

 maximal supplied QI-value         = 16.25
 optimisation between [QCUT,QGAM] = [ 11.54, 23.24] = [ 37.28,151.24] Ry 
 Optimized for a Real-space Cutoff    1.36 Angstroem

   l    n(q)    QCUT    max X(q) W(low)/X(q) W(high)/X(q)  e(spline) 
   0      9    11.539     7.090    0.13E-04    0.25E-05    0.51E-08
   0      9    11.539   101.654    0.53E-04    0.69E-04    0.12E-06
   1      9    11.539     5.276    0.20E-04    0.98E-05    0.24E-07
   1      9    11.539    81.891    0.24E-03    0.13E-04    0.15E-06
   2      9    11.539     5.599    0.30E-04    0.97E-04    0.54E-07

 ----------------------------------------------------------------------------- 
|                                                                             |
|  ADVICE TO THIS USER RUNNING 'VASP/VAMP'   (HEAR YOUR MASTER'S VOICE ...):  |
|                                                                             |
|      You enforced a specific xc-type in the INCAR file,                     |
|      a different type was found on the POTCAR file                          |
|          I HOPE YOU KNOW, WHAT YOU ARE  DOING                               |
|                                                                             |
 ----------------------------------------------------------------------------- 

 PAW_PBE Ni 06Sep2000                   :
 energy of atom  1       EATOM=-1077.9025
 kinetic energy error for atom=    0.0030 (will be added to EATOM!!)
  PAW_PBE P 17Jan2003                   :
 energy of atom  2       EATOM= -176.0430
 kinetic energy error for atom=    0.0011 (will be added to EATOM!!)
 PAW_PBE Te 08Apr2002                   :
 energy of atom  3       EATOM= -223.2721
 kinetic energy error for atom=    0.0007 (will be added to EATOM!!)


 POSCAR: Ni2 P2 Te6                              
  positions in direct lattice
  velocities in cartesian coordinates
  No initial velocities read in
 exchange correlation table for  LEXCH =       42
   RHO(1)=    0.500       N(1)  =     2000
   RHO(2)=  100.500       N(2)  =     4000



--------------------------------------------------------------------------------------------------------


 ion  position               nearest neighbor table
   1  0.333  0.333  0.500-   6 2.78   5 2.78   7 2.78   8 2.78  10 2.78   9 2.78
   2  0.667  0.667  0.500-   9 2.78   8 2.78  10 2.78   5 2.78   7 2.78   6 2.78
   3  0.000  0.000  0.448-   4 2.43   8 2.63  10 2.63   9 2.63
   4  0.000  0.000  0.552-   3 2.43   5 2.63   7 2.63   6 2.63
   5  0.626  0.000  0.574-   4 2.63   1 2.78   2 2.78
   6  0.000  0.373  0.574-   4 2.63   1 2.78   2 2.78
   7  0.373  0.626  0.574-   4 2.63   1 2.78   2 2.78
   8  0.374  1.000  0.426-   3 2.63   2 2.78   1 2.78
   9  1.000  0.627  0.426-   3 2.63   2 2.78   1 2.78
  10  0.627  0.374  0.426-   3 2.63   2 2.78   1 2.78

  LATTYP: Found a hexagonal cell.
 ALAT       =     6.9077769333
 C/A-ratio  =     3.3939410937
  
  Lattice vectors:
  
 A1 = (   3.4538890000,  -5.9823100000,   0.0000000000)
 A2 = (  -6.9077770000,   0.0000000000,   0.0000000000)
 A3 = (   0.0000000000,   0.0000000000, -23.4445880000)


Analysis of symmetry for initial positions (statically):
=====================================================================
 Subroutine PRICEL returns:
 Original cell was already a primitive cell.
 

 Routine SETGRP: Setting up the symmetry group for a 
 hexagonal supercell.


 Subroutine GETGRP returns: Found  6 space group operations
 (whereof  6 operations were pure point group operations)
 out of a pool of 24 trial point group operations.


The static configuration has the point symmetry S_6 .


Analysis of symmetry for dynamics (positions and initial velocities):
=====================================================================
 Subroutine PRICEL returns:
 Original cell was already a primitive cell.
 

 Routine SETGRP: Setting up the symmetry group for a 
 hexagonal supercell.


 Subroutine GETGRP returns: Found  6 space group operations
 (whereof  6 operations were pure point group operations)
 out of a pool of 24 trial point group operations.


The dynamic configuration has the point symmetry S_6 .


Analysis of structural, dynamic, and magnetic symmetry:
=====================================================================
 Subroutine PRICEL returns:
 Original cell was already a primitive cell.
 

 Routine SETGRP: Setting up the symmetry group for a 
 hexagonal supercell.


 Subroutine GETGRP returns: Found  6 space group operations
 (whereof  6 operations were pure point group operations)
 out of a pool of 24 trial point group operations.


The magnetic configuration has the point symmetry S_6 .


 Subroutine INISYM returns: Found  6 space group operations
 (whereof  6 operations are pure point group operations),
 and found     1 'primitive' translations



 KPOINTS: Kpoints from vasprun.xml                

Automatic generation of k-mesh.
Space group operators:
 irot       det(A)        alpha          n_x          n_y          n_z        tau_x        tau_y        tau_z
    1     1.000000     0.000000     1.000000     0.000000     0.000000     0.000000     0.000000     0.000000
    2    -1.000000     0.000000     1.000000     0.000000     0.000000     0.000000     0.000000     0.000000
    3     1.000000   120.000000     0.000000     0.000000     1.000000     0.000000     0.000000     0.000000
    4    -1.000000   120.000000     0.000000     0.000000     1.000000     0.000000     0.000000     0.000000
    5     1.000000   120.000000     0.000000     0.000000    -1.000000     0.000000     0.000000     0.000000
    6    -1.000000   120.000000     0.000000     0.000000    -1.000000     0.000000     0.000000     0.000000
 
 Subroutine IBZKPT returns following result:
 ===========================================
 
 Found      5 irreducible k-points:
 
 Following reciprocal coordinates:
            Coordinates               Weight
  0.000000  0.000000  0.000000      1.000000
  0.200000  0.000000  0.000000      6.000000
  0.400000  0.000000  0.000000      6.000000
  0.400000  0.200000  0.000000      6.000000
 -0.400000  0.200000  0.000000      6.000000
 
 Following cartesian coordinates:
            Coordinates               Weight
  0.000000  0.000000  0.000000      1.000000
  0.028953 -0.016716  0.000000      6.000000
  0.057906 -0.033432  0.000000      6.000000
  0.057906  0.000000  0.000000      6.000000
 -0.057906  0.066864  0.000000      6.000000
 
 TETIRR: Found     15 inequivalent tetrahedra from      150


--------------------------------------------------------------------------------------------------------




 Dimension of arrays:
   k-points           NKPTS =      5   k-points in BZ     NKDIM =      5   number of bands    NBANDS=     48
   number of dos      NEDOS =    301   number of ions     NIONS =     10
   non local maximal  LDIM  =      6   non local SUM 2l+1 LMDIM =     18
   total plane-waves  NPLWV = 524880
   max r-space proj   IRMAX =   7543   max aug-charges    IRDMAX=  31706
   dimension x,y,z NGX =    54 NGY =   54 NGZ =  180
   dimension x,y,z NGXF=   108 NGYF=  108 NGZF=  360
   support grid    NGXF=   108 NGYF=  108 NGZF=  360
   ions per type =               2   2   6
   NGX,Y,Z   is equivalent  to a cutoff of  13.00, 13.00, 12.76 a.u.
   NGXF,Y,Z  is equivalent  to a cutoff of  25.99, 25.99, 25.53 a.u.

 SYSTEM =  unknown system                          
 POSCAR =  Ni2 P2 Te6                              

 Startparameter for this run:
   NWRITE =      2    write-flag & timer
   PREC   = accura    normal or accurate (medium, high low for compatibility)
   ISTART =      0    job   : 0-new  1-cont  2-samecut
   ICHARG =      2    charge: 1-file 2-atom 10-const
   ISPIN  =      2    spin polarized calculation?
   LNONCOLLINEAR =      F non collinear calculations
   LSORBIT =      F    spin-orbit coupling
   INIWAV =      1    electr: 0-lowe 1-rand  2-diag
   LASPH  =      F    aspherical Exc in radial PAW
   METAGGA=      F    non-selfconsistent MetaGGA calc.

 Electronic Relaxation 1
   ENCUT  =  520.0 eV  38.22 Ry    6.18 a.u.  12.84 12.84 43.59*2*pi/ulx,y,z
   ENINI  =  520.0     initial cutoff
   ENAUG  =  544.6 eV  augmentation charge cutoff
   NELM   =    400;   NELMIN=  2; NELMDL=  0     # of ELM steps 
   EDIFF  = 0.1E-03   stopping-criterion for ELM
   LREAL  =      T    real-space projection
   NLSPLINE    = F    spline interpolate recip. space projectors
   LCOMPAT=      F    compatible to vasp.4.4
   GGA_COMPAT  = T    GGA compatible to vasp.4.4-vasp.4.6
   LMAXPAW     = -100 max onsite density
   LMAXMIX     =    2 max onsite mixed and CHGCAR
   VOSKOWN=      0    Vosko Wilk Nusair interpolation
   ROPT   =   -0.00025  -0.00025  -0.00025
 Ionic relaxation
   EDIFFG = 0.1E-02   stopping-criterion for IOM
   NSW    =     99    number of steps for IOM
   NBLOCK =      1;   KBLOCK =     99    inner block; outer block 
   IBRION =      2    ionic relax: 0-MD 1-quasi-New 2-CG
   NFREE  =      1    steps in history (QN), initial steepest desc. (CG)
   ISIF   =      3    stress and relaxation
   IWAVPR =     11    prediction:  0-non 1-charg 2-wave 3-comb
   ISYM   =      2    0-nonsym 1-usesym 2-fastsym
   LCORR  =      T    Harris-Foulkes like correction to forces

   POTIM  = 0.5000    time-step for ionic-motion
   TEIN   =    0.0    initial temperature
   TEBEG  =    0.0;   TEEND  =   0.0 temperature during run
   SMASS  =  -3.00    Nose mass-parameter (am)
   estimated Nose-frequenzy (Omega)   =  0.10E-29 period in steps =****** mass=  -0.109E-26a.u.
   SCALEE = 1.0000    scale energy and forces
   NPACO  =    256;   APACO  = 16.0  distance and # of slots for P.C.
   PSTRESS=    0.0 pullay stress

  Mass of Ions in am
   POMASS =  58.69 30.97127.60
  Ionic Valenz
   ZVAL   =  10.00  5.00  6.00
  Atomic Wigner-Seitz radii
   RWIGS  =  -1.00 -1.00 -1.00
  virtual crystal weights 
   VCA    =   1.00  1.00  1.00
   NELECT =      66.0000    total number of electrons
   NUPDOWN=      -1.0000    fix difference up-down

 DOS related values:
   EMIN   =  10.00;   EMAX   =-10.00  energy-range for DOS
   EFERMI =   0.00
   ISMEAR =    -5;   SIGMA  =   0.05  broadening in eV -4-tet -1-fermi 0-gaus

 Electronic relaxation 2 (details)
   IALGO  =     38    algorithm
   LDIAG  =      T    sub-space diagonalisation (order eigenvalues)
   LSUBROT=      F    optimize rotation matrix (better conditioning)
   TURBO    =      0    0=normal 1=particle mesh
   IRESTART =      0    0=no restart 2=restart with 2 vectors
   NREBOOT  =      0    no. of reboots
   NMIN     =      0    reboot dimension
   EREF     =   0.00    reference energy to select bands
   IMIX   =      4    mixing-type and parameters
     AMIX     =   0.40;   BMIX     =  1.00
     AMIX_MAG =   1.60;   BMIX_MAG =  1.00
     AMIN     =   0.01
     WC   =   100.;   INIMIX=   1;  MIXPRE=   1;  MAXMIX= -45

 Intra band minimization:
   WEIMIN = 0.0010     energy-eigenvalue tresh-hold
   EBREAK =  0.52E-06  absolut break condition
   DEPER  =   0.30     relativ break condition  

   TIME   =   0.40     timestep for ELM

  volume/ion in A,a.u.               =      96.88       653.80
  Fermi-wavevector in a.u.,A,eV,Ry     =   0.668610  1.263490  6.082339  0.447039
  Thomas-Fermi vector in A             =   1.743574

 Write flags
   LWAVE        =      F    write WAVECAR
   LDOWNSAMPLE  =      F    k-point downsampling of WAVECAR
   LCHARG       =      T    write CHGCAR
   LVTOT        =      F    write LOCPOT, total local potential
   LVHAR        =      F    write LOCPOT, Hartree potential only
   LELF         =      F    write electronic localiz. function (ELF)
   LORBIT       =     11    0 simple, 1 ext, 2 COOP (PROOUT), +10 PAW based schemes


 Dipole corrections
   LMONO  =      F    monopole corrections only (constant potential shift)
   LDIPOL =      F    correct potential (dipole corrections)
   IDIPOL =      0    1-x, 2-y, 3-z, 4-all directions 
   EPSILON=  1.0000000 bulk dielectric constant

 Exchange correlation treatment:
   GGA     =    BO    GGA type
   LEXCH   =    42    internal setting for exchange type
   VOSKOWN=      0    Vosko Wilk Nusair interpolation
   LHFCALC =     F    Hartree Fock is set to
   LHFONE  =     F    Hartree Fock one center treatment
   AEXX    =    0.0000 exact exchange contribution

 vdW DFT:
   LUSE_VDW   =     T    switch on vdW DFT
   Zab_VDW    =-.8491    correlation parameter
   PARAM1     =0.1833
   PARAM2     =0.2200
   PARAM3     =0.0000
   -- rVV10 --
   BPARAM     = 6.3000
   CPARAM     = 0.0093

 Linear response parameters
   LEPSILON=     F    determine dielectric tensor
   LRPA    =     F    only Hartree local field effects (RPA)
   LNABLA  =     F    use nabla operator in PAW spheres
   LVEL    =     F    velocity operator in full k-point grid
   LINTERFAST=   F  fast interpolation
   KINTER  =     0    interpolate to denser k-point grid
   CSHIFT  =0.1000    complex shift for real part using Kramers Kronig
   OMEGAMAX=  -1.0    maximum frequency
   DEG_THRESHOLD= 0.2000000E-02 threshold for treating states as degnerate
   RTIME   =   -0.100 relaxation time in fs
  (WPLASMAI=    0.000 imaginary part of plasma frequency in eV, 0.658/RTIME)
   DFIELD  = 0.0000000 0.0000000 0.0000000 field for delta impulse in time

 Orbital magnetization related:
   ORBITALMAG=     F  switch on orbital magnetization
   LCHIMAG   =     F  perturbation theory with respect to B field
   DQ        =  0.001000  dq finite difference perturbation B field
   LLRAUG    =     F  two centre corrections for induced B field



--------------------------------------------------------------------------------------------------------


 conjugate gradient relaxation of ions
 charge density and potential will be updated during run
 spin polarized calculation
 Variant of blocked Davidson
 Davidson routine will perform the subspace rotation
 perform sub-space diagonalisation
    after iterative eigenvector-optimisation
 modified Broyden-mixing scheme, WC =      100.0
 initial mixing is a Kerker type mixing with AMIX =  0.4000 and BMIX =      1.0000
 Hartree-type preconditioning will be used
 using additional bands           15
 real space projection scheme for non local part
 use partial core corrections
 calculate Harris-corrections to forces   (improved forces if not selfconsistent)
 use gradient corrections 
 use of overlap-Matrix (Vanderbilt PP)
 Fermi weights with tetrahedron method with Bloechl corrections


--------------------------------------------------------------------------------------------------------


  energy-cutoff  :      520.00
  volume of cell :      968.84
      direct lattice vectors                 reciprocal lattice vectors
     6.907777000 -0.000000000  0.000000000     0.144764372 -0.083579742  0.000000000
     3.453888000  5.982310000  0.000000000     0.000000000  0.167159509 -0.000000000
     0.000000000  0.000000000 23.444588000    -0.000000000  0.000000000  0.042653767

  length of vectors
     6.907777000  6.907776433 23.444588000     0.167159495  0.167159509  0.042653767



 k-points in units of 2pi/SCALE and weight: Kpoints from vasprun.xml                
   0.00000000  0.00000000  0.00000000       0.040
   0.02895287 -0.01671595  0.00000000       0.240
   0.05790575 -0.03343190  0.00000000       0.240
   0.05790575  0.00000000  0.00000000       0.240
  -0.05790575  0.06686380  0.00000000       0.240

 k-points in reciprocal lattice and weights: Kpoints from vasprun.xml                
   0.00000000  0.00000000  0.00000000       0.040
   0.20000000  0.00000000  0.00000000       0.240
   0.40000000  0.00000000  0.00000000       0.240
   0.40000000  0.20000000  0.00000000       0.240
  -0.40000000  0.20000000  0.00000000       0.240

 position of ions in fractional coordinates (direct lattice) 
   0.33333300  0.33333300  0.49992500
   0.66666700  0.66666700  0.50007500
   0.00000000  0.00000000  0.44821600
   0.00000000  0.00000000  0.55178400
   0.62635700  0.00042000  0.57375200
   0.00042000  0.37322400  0.57375200
   0.37322400  0.62635700  0.57375200
   0.37364300  0.99958000  0.42624800
   0.99958000  0.62677600  0.42624800
   0.62677600  0.37364300  0.42624800

 position of ions in cartesian coordinates  (Angst):
   3.45388488  1.99410134 11.72053566
   6.90778012  3.98820866 11.72405234
   0.00000000  0.00000000 10.50823946
   0.00000000  0.00000000 12.93634854
   4.32818511  0.00251257 13.45137925
   1.29197516  2.23274167 13.45137925
   4.74151509  3.74706174 13.45137925
   6.03347989  5.97979743  9.99320875
   9.06968984  3.74956833  9.99320875
   5.62014991  2.23524826  9.99320875



--------------------------------------------------------------------------------------------------------


 k-point  1 :   0.0000 0.0000 0.0000  plane waves:   26073
 k-point  2 :   0.2000 0.0000 0.0000  plane waves:   26070
 k-point  3 :   0.4000 0.0000 0.0000  plane waves:   26086
 k-point  4 :   0.4000 0.2000 0.0000  plane waves:   26085
 k-point  5 :  -0.4000 0.2000 0.0000  plane waves:   26115

 maximum and minimum number of plane-waves per node :     26115    26070

 maximum number of plane-waves:     26115
 maximum index in each direction: 
   IXMAX=   13   IYMAX=   12   IZMAX=   43
   IXMIN=  -13   IYMIN=  -13   IZMIN=  -43


 serial   3D FFT for wavefunctions
 parallel 3D FFT for charge:
    minimum data exchange during FFTs selected (reduces bandwidth)


 total amount of memory used by VASP MPI-rank0   114493. kBytes
=======================================================================

   base      :      30000. kBytes
   nonlr-proj:       7947. kBytes
   fftplans  :       8558. kBytes
   grid      :      59268. kBytes
   one-center:        311. kBytes
   wavefun   :       8409. kBytes

     INWAV:  cpu time    0.0000: real time    0.0005
 Broyden mixing: mesh for mixing (old mesh)
   NGX = 25   NGY = 25   NGZ = 87
  (NGX  =108   NGY  =108   NGZ  =360)
  gives a total of  54375 points

 initial charge density was supplied:
 charge density of overlapping atoms calculated
 number of electron      66.0000000 magnetization       7.3200000
 keeping initial charge density in first step


--------------------------------------------------------------------------------------------------------


 Maximum index for non-local projection operator         7247
 Maximum index for augmentation-charges         1805 (set IRDMAX)


--------------------------------------------------------------------------------------------------------


 First call to EWALD:  gamma=   0.179
 Maximum number of real-space cells 4x 4x 1
 Maximum number of reciprocal cells 2x 2x 6

    FEWALD:  cpu time    0.0000: real time    0.0021


--------------------------------------- Iteration      1(   1)  ---------------------------------------


vdW kernel read from vdw_kernel.bindat
  0.0000  0.2424  0.5071  0.7962  1.1119  1.4567  1.8333  2.2446  2.6937  3.1842
  3.7199  4.3049  4.9438  5.6415  6.4036  7.2358  8.1446  9.1372 10.2212 11.4050
 12.6979 14.1099 15.6519 17.3360 19.1751 21.1837 23.3773 25.7729 28.3892 31.2465
 34.3669 37.7748 41.4965 45.5611 50.0000

    POTLOK:  cpu time   41.4760: real time   61.6801
    SETDIJ:  cpu time    0.0400: real time    0.0908
     EDDAV:  cpu time   20.7640: real time   31.7004
 BZINTS: Fermi energy:  5.518519; 66.000000 electrons
         Band energy:  -1.573899;  BLOECHL correction: -0.086586
       DOS:  cpu time    0.0040: real time    0.0108
    --------------------------------------------
      LOOP:  cpu time   62.2840: real time   93.4822

 eigenvalue-minimisations  :   960
 total energy-change (2. order) : 0.3949731E+03  (-0.2063530E+04)
 number of electron      66.0000000 magnetization       7.3200000
 augmentation part       66.0000000 magnetization       7.3200000

 Free energy of the ion-electron system (eV)
  ---------------------------------------------------
  alpha Z        PSCENC =        18.23723925
  Ewald energy   TEWEN  =      8617.63405943
  -Hartree energ DENC   =    -12119.82053606
  -exchange      EXHF   =         0.00000000
  -V(xc)+E(xc)   XCENC  =      -108.24801966
  PAW double counting   =      2464.94989243    -2339.93726137
  entropy T*S    EENTRO =         0.00000000
  eigenvalues    EBANDS =        -1.57389874
  atomic energy  EATOM  =      3863.73160596
  Solvation  Ediel_sol  =         0.00000000
  ---------------------------------------------------
  free energy    TOTEN  =       394.97308124 eV

  energy without entropy =      394.97308124  energy(sigma->0) =      394.97308124


--------------------------------------------------------------------------------------------------------




--------------------------------------- Iteration      1(   2)  ---------------------------------------


     EDDAV:  cpu time   25.2680: real time   37.9981
 BZINTS: Fermi energy: -1.063206; 66.000000 electrons
         Band energy:-387.037561;  BLOECHL correction: -0.019084
       DOS:  cpu time    0.0080: real time    0.0108
    --------------------------------------------
      LOOP:  cpu time   25.2760: real time   38.0088

 eigenvalue-minimisations  :  1272
 total energy-change (2. order) :-0.3854637E+03  (-0.3728636E+03)
 number of electron      66.0000000 magnetization       7.3200000
 augmentation part       66.0000000 magnetization       7.3200000

 Free energy of the ion-electron system (eV)
  ---------------------------------------------------
  alpha Z        PSCENC =        18.23723925
  Ewald energy   TEWEN  =      8617.63405943
  -Hartree energ DENC   =    -12119.82053606
  -exchange      EXHF   =         0.00000000
  -V(xc)+E(xc)   XCENC  =      -108.24801966
  PAW double counting   =      2464.94989243    -2339.93726137
  entropy T*S    EENTRO =         0.00000000
  eigenvalues    EBANDS =      -387.03756074
  atomic energy  EATOM  =      3863.73160596
  Solvation  Ediel_sol  =         0.00000000
  ---------------------------------------------------
  free energy    TOTEN  =         9.50941924 eV

  energy without entropy =        9.50941924  energy(sigma->0) =        9.50941924


--------------------------------------------------------------------------------------------------------




--------------------------------------- Iteration      1(   3)  ---------------------------------------


     EDDAV:  cpu time   26.0280: real time   39.4426
 BZINTS: Fermi energy: -1.790650; 66.000000 electrons
         Band energy:-429.038368;  BLOECHL correction: -0.019567
       DOS:  cpu time    0.0080: real time    0.0127
    --------------------------------------------
      LOOP:  cpu time   26.0360: real time   39.4552

 eigenvalue-minimisations  :  1344
 total energy-change (2. order) :-0.4200081E+02  (-0.4155987E+02)
 number of electron      66.0000000 magnetization       7.3200000
 augmentation part       66.0000000 magnetization       7.3200000

 Free energy of the ion-electron system (eV)
  ---------------------------------------------------
  alpha Z        PSCENC =        18.23723925
  Ewald energy   TEWEN  =      8617.63405943
  -Hartree energ DENC   =    -12119.82053606
  -exchange      EXHF   =         0.00000000
  -V(xc)+E(xc)   XCENC  =      -108.24801966
  PAW double counting   =      2464.94989243    -2339.93726137
  entropy T*S    EENTRO =         0.00000000
  eigenvalues    EBANDS =      -429.03836848
  atomic energy  EATOM  =      3863.73160596
  Solvation  Ediel_sol  =         0.00000000
  ---------------------------------------------------
  free energy    TOTEN  =       -32.49138850 eV

  energy without entropy =      -32.49138850  energy(sigma->0) =      -32.49138850


--------------------------------------------------------------------------------------------------------




--------------------------------------- Iteration      1(   4)  ---------------------------------------


     EDDAV:  cpu time   28.6400: real time   41.7883
 BZINTS: Fermi energy: -1.802968; 66.000000 electrons
         Band energy:-430.373484;  BLOECHL correction: -0.018735
       DOS:  cpu time    0.0120: real time    0.0150
    --------------------------------------------
      LOOP:  cpu time   28.6520: real time   41.8033

 eigenvalue-minimisations  :  1440
 total energy-change (2. order) :-0.1335116E+01  (-0.1334133E+01)
 number of electron      66.0000000 magnetization       7.3200000
 augmentation part       66.0000000 magnetization       7.3200000

 Free energy of the ion-electron system (eV)
  ---------------------------------------------------
  alpha Z        PSCENC =        18.23723925
  Ewald energy   TEWEN  =      8617.63405943
  -Hartree energ DENC   =    -12119.82053606
  -exchange      EXHF   =         0.00000000
  -V(xc)+E(xc)   XCENC  =      -108.24801966
  PAW double counting   =      2464.94989243    -2339.93726137
  entropy T*S    EENTRO =         0.00000000
  eigenvalues    EBANDS =      -430.37348442
  atomic energy  EATOM  =      3863.73160596
  Solvation  Ediel_sol  =         0.00000000
  ---------------------------------------------------
  free energy    TOTEN  =       -33.82650444 eV

  energy without entropy =      -33.82650444  energy(sigma->0) =      -33.82650444


--------------------------------------------------------------------------------------------------------




--------------------------------------- Iteration      1(   5)  ---------------------------------------


     EDDAV:  cpu time   30.4520: real time   46.4485
 BZINTS: Fermi energy: -1.803045; 66.000000 electrons
         Band energy:-430.385405;  BLOECHL correction: -0.018708
       DOS:  cpu time    0.0080: real time    0.0088
    CHARGE:  cpu time    1.7040: real time    2.4271
    MIXING:  cpu time    0.0560: real time    0.0682
    --------------------------------------------
      LOOP:  cpu time   32.2200: real time   48.9527

 eigenvalue-minimisations  :  1608
 total energy-change (2. order) :-0.1192054E-01  (-0.1192420E-01)
 number of electron      65.9999995 magnetization       6.8155398
 augmentation part        2.5317286 magnetization       5.6308556

 Broyden mixing:
  rms(total) = 0.14137E+01    rms(broyden)= 0.14129E+01
  rms(prec ) = 0.15055E+01
  weight for this iteration     100.00

 Free energy of the ion-electron system (eV)
  ---------------------------------------------------
  alpha Z        PSCENC =        18.23723925
  Ewald energy   TEWEN  =      8617.63405943
  -Hartree energ DENC   =    -12119.82053606
  -exchange      EXHF   =         0.00000000
  -V(xc)+E(xc)   XCENC  =      -108.24801966
  PAW double counting   =      2464.94989243    -2339.93726137
  entropy T*S    EENTRO =         0.00000000
  eigenvalues    EBANDS =      -430.38540496
  atomic energy  EATOM  =      3863.73160596
  Solvation  Ediel_sol  =         0.00000000
  ---------------------------------------------------
  free energy    TOTEN  =       -33.83842498 eV

  energy without entropy =      -33.83842498  energy(sigma->0) =      -33.83842498


--------------------------------------------------------------------------------------------------------




--------------------------------------- Iteration      1(   6)  ---------------------------------------


    POTLOK:  cpu time   39.3640: real time   60.1004
    SETDIJ:  cpu time    0.0680: real time    0.0695
     EDDAV:  cpu time   23.7120: real time   34.8299
 BZINTS: Fermi energy: -2.760230; 66.000000 electrons
         Band energy:-530.032011;  BLOECHL correction: -0.048255
       DOS:  cpu time    0.0080: real time    0.0252
    CHARGE:  cpu time    1.5640: real time    2.5389
    MIXING:  cpu time    0.0320: real time    0.0561
    --------------------------------------------
      LOOP:  cpu time   64.7480: real time   97.6200

 eigenvalue-minimisations  :  1152
 total energy-change (2. order) :-0.1014174E+02  (-0.1413562E+02)
 number of electron      65.9999996 magnetization       6.6269342
 augmentation part        7.1173984 magnetization       4.8455860

 Broyden mixing:
  rms(total) = 0.24333E+01    rms(broyden)= 0.24330E+01
  rms(prec ) = 0.26159E+01
  weight for this iteration     100.00

 eigenvalues of (default mixing * dielectric matrix)
  average eigenvalue GAMMA=   0.3037
  0.3037

 Free energy of the ion-electron system (eV)
  ---------------------------------------------------
  alpha Z        PSCENC =        18.23723925
  Ewald energy   TEWEN  =      8617.63405943
  -Hartree energ DENC   =    -12041.48448615
  -exchange      EXHF   =         0.00000000
  -V(xc)+E(xc)   XCENC  =      -110.94760212
  PAW double counting   =      2365.60772520    -2226.72669177
  entropy T*S    EENTRO =         0.00000000
  eigenvalues    EBANDS =      -530.03201068
  atomic energy  EATOM  =      3863.73160596
  Solvation  Ediel_sol  =         0.00000000
  ---------------------------------------------------
  free energy    TOTEN  =       -43.98016089 eV

  energy without entropy =      -43.98016089  energy(sigma->0) =      -43.98016089


--------------------------------------------------------------------------------------------------------




--------------------------------------- Iteration      1(   7)  ---------------------------------------


    POTLOK:  cpu time   40.1320: real time   60.6358
    SETDIJ:  cpu time    0.0640: real time    0.0663
     EDDAV:  cpu time   24.0120: real time   35.7283
 BZINTS: Fermi energy: -2.268970; 66.000000 electrons
         Band energy:-454.301304;  BLOECHL correction: -0.018950
       DOS:  cpu time    0.0080: real time    0.0201
    CHARGE:  cpu time    1.5040: real time    2.3747
    MIXING:  cpu time    0.0640: real time    0.0630
    --------------------------------------------
      LOOP:  cpu time   65.7840: real time   98.8881

 eigenvalue-minimisations  :  1200
 total energy-change (2. order) : 0.1127550E+02  (-0.2010602E+01)
 number of electron      65.9999995 magnetization       6.1957165
 augmentation part        5.2364308 magnetization       4.5431899

 Broyden mixing:
  rms(total) = 0.73397E+00    rms(broyden)= 0.73389E+00
  rms(prec ) = 0.80321E+00
  weight for this iteration     100.00

 eigenvalues of (default mixing * dielectric matrix)
  average eigenvalue GAMMA=   0.6111
  0.6910  0.5312

 Free energy of the ion-electron system (eV)
  ---------------------------------------------------
  alpha Z        PSCENC =        18.23723925
  Ewald energy   TEWEN  =      8617.63405943
  -Hartree energ DENC   =    -12094.69321931
  -exchange      EXHF   =         0.00000000
  -V(xc)+E(xc)   XCENC  =      -109.36684115
  PAW double counting   =      2461.90594528    -2335.85214842
  entropy T*S    EENTRO =         0.00000000
  eigenvalues    EBANDS =      -454.30130433
  atomic energy  EATOM  =      3863.73160596
  Solvation  Ediel_sol  =         0.00000000
  ---------------------------------------------------
  free energy    TOTEN  =       -32.70466330 eV

  energy without entropy =      -32.70466330  energy(sigma->0) =      -32.70466330


--------------------------------------------------------------------------------------------------------




--------------------------------------- Iteration      1(   8)  ---------------------------------------


    POTLOK:  cpu time   38.9840: real time   58.4876
    SETDIJ:  cpu time    0.0720: real time    0.0720
     EDDAV:  cpu time   22.5920: real time   35.2008
 BZINTS: Fermi energy: -1.794430; 66.000000 electrons
         Band energy:-427.009143;  BLOECHL correction: -0.007875
       DOS:  cpu time    0.0160: real time    0.0152
    CHARGE:  cpu time    1.6400: real time    2.5508
    MIXING:  cpu time    0.0320: real time    0.0621
    --------------------------------------------
      LOOP:  cpu time   63.3360: real time   96.3885

 eigenvalue-minimisations  :  1176
 total energy-change (2. order) :-0.2603090E+00  (-0.9248688E+00)
 number of electron      65.9999995 magnetization       5.6303502
 augmentation part        2.9599389 magnetization       4.5604708

 Broyden mixing:
  rms(total) = 0.98964E+00    rms(broyden)= 0.98928E+00
  rms(prec ) = 0.10688E+01
  weight for this iteration     100.00

 eigenvalues of (default mixing * dielectric matrix)
  average eigenvalue GAMMA=   0.7002
  1.2572  0.4217  0.4217

 Free energy of the ion-electron system (eV)
  ---------------------------------------------------
  alpha Z        PSCENC =        18.23723925
  Ewald energy   TEWEN  =      8617.63405943
  -Hartree energ DENC   =    -12119.68217181
  -exchange      EXHF   =         0.00000000
  -V(xc)+E(xc)   XCENC  =      -108.68085509
  PAW double counting   =      2520.62286508    -2397.81857175
  entropy T*S    EENTRO =         0.00000000
  eigenvalues    EBANDS =      -427.00914335
  atomic energy  EATOM  =      3863.73160596
  Solvation  Ediel_sol  =         0.00000000
  ---------------------------------------------------
  free energy    TOTEN  =       -32.96497229 eV

  energy without entropy =      -32.96497229  energy(sigma->0) =      -32.96497229


--------------------------------------------------------------------------------------------------------




--------------------------------------- Iteration      1(   9)  ---------------------------------------


    POTLOK:  cpu time   39.5640: real time   60.3925
    SETDIJ:  cpu time    0.0280: real time    0.0533
     EDDAV:  cpu time   21.7000: real time   33.4826
 BZINTS: Fermi energy: -2.150073; 66.000000 electrons
         Band energy:-442.933589;  BLOECHL correction: -0.014198
       DOS:  cpu time    0.0040: real time    0.0052
    CHARGE:  cpu time    1.7480: real time    2.5260
    MIXING:  cpu time    0.0280: real time    0.0572
    --------------------------------------------
      LOOP:  cpu time   63.0720: real time   96.5167

 eigenvalue-minimisations  :  1104
 total energy-change (2. order) : 0.4838920E+00  (-0.7112256E+00)
 number of electron      65.9999995 magnetization       4.8986741
 augmentation part        4.6191337 magnetization       3.4036751

 Broyden mixing:
  rms(total) = 0.32758E+00    rms(broyden)= 0.32730E+00
  rms(prec ) = 0.35023E+00
  weight for this iteration     100.00

 eigenvalues of (default mixing * dielectric matrix)
  average eigenvalue GAMMA=   0.9651
  2.1649  0.8640  0.4157  0.4157

 Free energy of the ion-electron system (eV)
  ---------------------------------------------------
  alpha Z        PSCENC =        18.23723925
  Ewald energy   TEWEN  =      8617.63405943
  -Hartree energ DENC   =    -12103.78679152
  -exchange      EXHF   =         0.00000000
  -V(xc)+E(xc)   XCENC  =      -109.19131801
  PAW double counting   =      2507.57636358    -2383.74864990
  entropy T*S    EENTRO =         0.00000000
  eigenvalues    EBANDS =      -442.93358904
  atomic energy  EATOM  =      3863.73160596
  Solvation  Ediel_sol  =         0.00000000
  ---------------------------------------------------
  free energy    TOTEN  =       -32.48108026 eV

  energy without entropy =      -32.48108026  energy(sigma->0) =      -32.48108026


--------------------------------------------------------------------------------------------------------




--------------------------------------- Iteration      1(  10)  ---------------------------------------


    POTLOK:  cpu time   37.4720: real time   58.7133
    SETDIJ:  cpu time    0.0320: real time    0.0593
     EDDAV:  cpu time   24.3840: real time   36.2545
 BZINTS: Fermi energy: -2.109890; 66.000000 electrons
         Band energy:-441.124790;  BLOECHL correction: -0.014276
       DOS:  cpu time    0.0120: real time    0.0237
    CHARGE:  cpu time    1.7200: real time    2.4673
    MIXING:  cpu time    0.0240: real time    0.0568
    --------------------------------------------
      LOOP:  cpu time   63.6440: real time   97.5749

 eigenvalue-minimisations  :  1200
 total energy-change (2. order) :-0.1798675E+00  (-0.2499667E-01)
 number of electron      65.9999995 magnetization       3.9571207
 augmentation part        4.6022895 magnetization       2.5474334

 Broyden mixing:
  rms(total) = 0.29488E+00    rms(broyden)= 0.29488E+00
  rms(prec ) = 0.31498E+00
  weight for this iteration     100.00

 eigenvalues of (default mixing * dielectric matrix)
  average eigenvalue GAMMA=   1.1094
  2.6586  1.3644  0.4204  0.4204  0.6834

 Free energy of the ion-electron system (eV)
  ---------------------------------------------------
  alpha Z        PSCENC =        18.23723925
  Ewald energy   TEWEN  =      8617.63405943
  -Hartree energ DENC   =    -12105.62940629
  -exchange      EXHF   =         0.00000000
  -V(xc)+E(xc)   XCENC  =      -109.19695856
  PAW double counting   =      2518.58219021    -2394.89488815
  entropy T*S    EENTRO =         0.00000000
  eigenvalues    EBANDS =      -441.12478965
  atomic energy  EATOM  =      3863.73160596
  Solvation  Ediel_sol  =         0.00000000
  ---------------------------------------------------
  free energy    TOTEN  =       -32.66094781 eV

  energy without entropy =      -32.66094781  energy(sigma->0) =      -32.66094781


--------------------------------------------------------------------------------------------------------




--------------------------------------- Iteration      1(  11)  ---------------------------------------


    POTLOK:  cpu time   40.5320: real time   59.1863
    SETDIJ:  cpu time    0.0320: real time    0.0696
     EDDAV:  cpu time   25.6080: real time   37.5077
 BZINTS: Fermi energy: -2.007267; 66.000000 electrons
         Band energy:-434.502097;  BLOECHL correction: -0.021522
       DOS:  cpu time    0.0040: real time    0.0066
    CHARGE:  cpu time    1.5880: real time    2.4689
    MIXING:  cpu time    0.0360: real time    0.0539
    --------------------------------------------
      LOOP:  cpu time   67.8000: real time   99.2930

 eigenvalue-minimisations  :  1272
 total energy-change (2. order) :-0.7866637E-01  (-0.4877646E-01)
 number of electron      65.9999995 magnetization       3.1765502
 augmentation part        4.0974057 magnetization       2.1323252

 Broyden mixing:
  rms(total) = 0.15089E+00    rms(broyden)= 0.15077E+00
  rms(prec ) = 0.15839E+00
  weight for this iteration     100.00

 eigenvalues of (default mixing * dielectric matrix)
  average eigenvalue GAMMA=   1.3141
  3.6148  1.7739  1.0129  0.4205  0.4205  0.6419

 Free energy of the ion-electron system (eV)
  ---------------------------------------------------
  alpha Z        PSCENC =        18.23723925
  Ewald energy   TEWEN  =      8617.63405943
  -Hartree energ DENC   =    -12112.18779626
  -exchange      EXHF   =         0.00000000
  -V(xc)+E(xc)   XCENC  =      -109.01817932
  PAW double counting   =      2527.55870773    -2404.19315356
  entropy T*S    EENTRO =         0.00000000
  eigenvalues    EBANDS =      -434.50209740
  atomic energy  EATOM  =      3863.73160596
  Solvation  Ediel_sol  =         0.00000000
  ---------------------------------------------------
  free energy    TOTEN  =       -32.73961418 eV

  energy without entropy =      -32.73961418  energy(sigma->0) =      -32.73961418


--------------------------------------------------------------------------------------------------------




--------------------------------------- Iteration      1(  12)  ---------------------------------------


    POTLOK:  cpu time   39.0920: real time   59.9228
    SETDIJ:  cpu time    0.0600: real time    0.0637
     EDDAV:  cpu time   27.1760: real time   41.5353
 BZINTS: Fermi energy: -1.936847; 66.000000 electrons
         Band energy:-431.030837;  BLOECHL correction: -0.019855
       DOS:  cpu time    0.0120: real time    0.0218
    CHARGE:  cpu time    1.5080: real time    2.4928
    MIXING:  cpu time    0.0600: real time    0.0658
    --------------------------------------------
      LOOP:  cpu time   67.9080: real time  104.1023

 eigenvalue-minimisations  :  1416
 total energy-change (2. order) :-0.1522417E+00  (-0.1880096E-01)
 number of electron      65.9999995 magnetization       2.3764465
 augmentation part        3.8227069 magnetization       1.4374838

 Broyden mixing:
  rms(total) = 0.30603E+00    rms(broyden)= 0.30599E+00
  rms(prec ) = 0.33363E+00
  weight for this iteration     100.00

 eigenvalues of (default mixing * dielectric matrix)
  average eigenvalue GAMMA=   1.5762
  5.4659  2.2101  0.4216  0.4216  0.9303  0.9303  0.6534

 Free energy of the ion-electron system (eV)
  ---------------------------------------------------
  alpha Z        PSCENC =        18.23723925
  Ewald energy   TEWEN  =      8617.63405943
  -Hartree energ DENC   =    -12115.75143187
  -exchange      EXHF   =         0.00000000
  -V(xc)+E(xc)   XCENC  =      -108.96860994
  PAW double counting   =      2530.43761962    -2407.18150106
  entropy T*S    EENTRO =         0.00000000
  eigenvalues    EBANDS =      -431.03083730
  atomic energy  EATOM  =      3863.73160596
  Solvation  Ediel_sol  =         0.00000000
  ---------------------------------------------------
  free energy    TOTEN  =       -32.89185592 eV

  energy without entropy =      -32.89185592  energy(sigma->0) =      -32.89185592


--------------------------------------------------------------------------------------------------------




--------------------------------------- Iteration      1(  13)  ---------------------------------------


    POTLOK:  cpu time   40.4520: real time   59.2201
    SETDIJ:  cpu time    0.0240: real time    0.0498
     EDDAV:  cpu time   20.7440: real time   32.1185
 BZINTS: Fermi energy: -2.046958; 66.000000 electrons
         Band energy:-435.374562;  BLOECHL correction: -0.021523
       DOS:  cpu time    0.0040: real time    0.0044
    CHARGE:  cpu time    1.7560: real time    2.4016
    MIXING:  cpu time    0.0400: real time    0.0599
    --------------------------------------------
      LOOP:  cpu time   63.0200: real time   93.8543

 eigenvalue-minimisations  :  1032
 total energy-change (2. order) : 0.2730319E-01  (-0.4172434E-01)
 number of electron      65.9999995 magnetization       2.0933623
 augmentation part        4.2705432 magnetization       1.1920041

 Broyden mixing:
  rms(total) = 0.78463E-01    rms(broyden)= 0.78355E-01
  rms(prec ) = 0.78889E-01
  weight for this iteration     100.00

 eigenvalues of (default mixing * dielectric matrix)
  average eigenvalue GAMMA=   1.6827
  6.7259  2.1011  1.5387  0.4215  0.4215  0.8807  0.7627  0.6092

 Free energy of the ion-electron system (eV)
  ---------------------------------------------------
  alpha Z        PSCENC =        18.23723925
  Ewald energy   TEWEN  =      8617.63405943
  -Hartree energ DENC   =    -12111.82675559
  -exchange      EXHF   =         0.00000000
  -V(xc)+E(xc)   XCENC  =      -109.13168952
  PAW double counting   =      2517.02656949    -2393.16101998
  entropy T*S    EENTRO =         0.00000000
  eigenvalues    EBANDS =      -435.37456177
  atomic energy  EATOM  =      3863.73160596
  Solvation  Ediel_sol  =         0.00000000
  ---------------------------------------------------
  free energy    TOTEN  =       -32.86455272 eV

  energy without entropy =      -32.86455272  energy(sigma->0) =      -32.86455272


--------------------------------------------------------------------------------------------------------




--------------------------------------- Iteration      1(  14)  ---------------------------------------


    POTLOK:  cpu time   38.9080: real time   58.7834
    SETDIJ:  cpu time    0.0280: real time    0.0496
     EDDAV:  cpu time   21.5240: real time   32.3549
 BZINTS: Fermi energy: -2.014067; 66.000000 electrons
         Band energy:-433.436582;  BLOECHL correction: -0.020714
       DOS:  cpu time    0.0080: real time    0.0075
    CHARGE:  cpu time    1.6080: real time    2.4199
    MIXING:  cpu time    0.0240: real time    0.0538
    --------------------------------------------
      LOOP:  cpu time   62.1000: real time   93.6691

 eigenvalue-minimisations  :  1056
 total energy-change (2. order) :-0.4876175E-02  (-0.5105427E-02)
 number of electron      65.9999995 magnetization       1.8580176
 augmentation part        4.1343329 magnetization       0.9761292

 Broyden mixing:
  rms(total) = 0.84126E-01    rms(broyden)= 0.84122E-01
  rms(prec ) = 0.91835E-01
  weight for this iteration     100.00

 eigenvalues of (default mixing * dielectric matrix)
  average eigenvalue GAMMA=   1.9633
  9.4515  2.4655  1.8108  0.4215  0.4215  0.9838  0.7584  0.7584  0.5979

 Free energy of the ion-electron system (eV)
  ---------------------------------------------------
  alpha Z        PSCENC =        18.23723925
  Ewald energy   TEWEN  =      8617.63405943
  -Hartree energ DENC   =    -12113.54072486
  -exchange      EXHF   =         0.00000000
  -V(xc)+E(xc)   XCENC  =      -109.12489254
  PAW double counting   =      2520.53021100    -2396.90034508
  entropy T*S    EENTRO =         0.00000000
  eigenvalues    EBANDS =      -433.43658206
  atomic energy  EATOM  =      3863.73160596
  Solvation  Ediel_sol  =         0.00000000
  ---------------------------------------------------
  free energy    TOTEN  =       -32.86942890 eV

  energy without entropy =      -32.86942890  energy(sigma->0) =      -32.86942890


--------------------------------------------------------------------------------------------------------




--------------------------------------- Iteration      1(  15)  ---------------------------------------


    POTLOK:  cpu time   39.5360: real time   59.3542
    SETDIJ:  cpu time    0.0240: real time    0.0465
     EDDAV:  cpu time   18.9120: real time   29.7313
 BZINTS: Fermi energy: -2.060414; 66.000000 electrons
         Band energy:-435.082870;  BLOECHL correction: -0.022032
       DOS:  cpu time    0.0160: real time    0.0374
    CHARGE:  cpu time    1.6080: real time    2.4280
    MIXING:  cpu time    0.0320: real time    0.0617
    --------------------------------------------
      LOOP:  cpu time   60.1280: real time   91.6591

 eigenvalue-minimisations  :   960
 total energy-change (2. order) : 0.1137659E-02  (-0.4181474E-02)
 number of electron      65.9999995 magnetization       1.8427748
 augmentation part        4.2779169 magnetization       0.9252091

 Broyden mixing:
  rms(total) = 0.24801E-01    rms(broyden)= 0.24743E-01
  rms(prec ) = 0.26500E-01
  weight for this iteration     100.00

 eigenvalues of (default mixing * dielectric matrix)
  average eigenvalue GAMMA=   1.9598
 10.0459  2.6126  1.8924  1.2685  0.4215  0.4215  0.8412  0.8412  0.6672  0.5856

 Free energy of the ion-electron system (eV)
  ---------------------------------------------------
  alpha Z        PSCENC =        18.23723925
  Ewald energy   TEWEN  =      8617.63405943
  -Hartree energ DENC   =    -12111.92076434
  -exchange      EXHF   =         0.00000000
  -V(xc)+E(xc)   XCENC  =      -109.19391544
  PAW double counting   =      2517.21175495    -2393.48540145
  entropy T*S    EENTRO =         0.00000000
  eigenvalues    EBANDS =      -435.08286958
  atomic energy  EATOM  =      3863.73160596
  Solvation  Ediel_sol  =         0.00000000
  ---------------------------------------------------
  free energy    TOTEN  =       -32.86829124 eV

  energy without entropy =      -32.86829124  energy(sigma->0) =      -32.86829124


--------------------------------------------------------------------------------------------------------




--------------------------------------- Iteration      1(  16)  ---------------------------------------


    POTLOK:  cpu time   38.4600: real time   58.9892
    SETDIJ:  cpu time    0.0480: real time    0.0703
     EDDAV:  cpu time   20.1960: real time   31.4070
 BZINTS: Fermi energy: -2.054949; 66.000000 electrons
         Band energy:-434.891678;  BLOECHL correction: -0.021814
       DOS:  cpu time    0.0240: real time    0.0452
    CHARGE:  cpu time    1.4480: real time    2.4555
    MIXING:  cpu time    0.0280: real time    0.0600
    --------------------------------------------
      LOOP:  cpu time   60.2040: real time   93.0272

 eigenvalue-minimisations  :  1008
 total energy-change (2. order) :-0.1659472E-02  (-0.4038565E-03)
 number of electron      65.9999995 magnetization       1.8358734
 augmentation part        4.2552501 magnetization       0.9205770

 Broyden mixing:
  rms(total) = 0.53478E-02    rms(broyden)= 0.53448E-02
  rms(prec ) = 0.60253E-02
  weight for this iteration     100.00

 eigenvalues of (default mixing * dielectric matrix)
  average eigenvalue GAMMA=   1.8947
 10.1859  2.6886  1.7919  1.5599  0.4215  0.4215  0.9203  0.9203  0.5951  0.6681
  0.6681

 Free energy of the ion-electron system (eV)
  ---------------------------------------------------
  alpha Z        PSCENC =        18.23723925
  Ewald energy   TEWEN  =      8617.63405943
  -Hartree energ DENC   =    -12112.03604350
  -exchange      EXHF   =         0.00000000
  -V(xc)+E(xc)   XCENC  =      -109.19704765
  PAW double counting   =      2518.26934929    -2394.61743544
  entropy T*S    EENTRO =         0.00000000
  eigenvalues    EBANDS =      -434.89167804
  atomic energy  EATOM  =      3863.73160596
  Solvation  Ediel_sol  =         0.00000000
  ---------------------------------------------------
  free energy    TOTEN  =       -32.86995071 eV

  energy without entropy =      -32.86995071  energy(sigma->0) =      -32.86995071


--------------------------------------------------------------------------------------------------------




--------------------------------------- Iteration      1(  17)  ---------------------------------------


    POTLOK:  cpu time   40.1520: real time   58.5680
    SETDIJ:  cpu time    0.0320: real time    0.0747
     EDDAV:  cpu time   20.1120: real time   30.8087
 BZINTS: Fermi energy: -2.055922; 66.000000 electrons
         Band energy:-434.926327;  BLOECHL correction: -0.021835
       DOS:  cpu time    0.0040: real time    0.0042
    CHARGE:  cpu time    1.7400: real time    2.4848
    MIXING:  cpu time    0.0280: real time    0.0597
    --------------------------------------------
      LOOP:  cpu time   62.0680: real time   92.0001

 eigenvalue-minimisations  :   984
 total energy-change (2. order) :-0.3633777E-03  (-0.2349907E-04)
 number of electron      65.9999995 magnetization       1.8288061
 augmentation part        4.2552257 magnetization       0.9133288

 Broyden mixing:
  rms(total) = 0.59610E-02    rms(broyden)= 0.59607E-02
  rms(prec ) = 0.66743E-02
  weight for this iteration     100.00

 eigenvalues of (default mixing * dielectric matrix)
  average eigenvalue GAMMA=   1.8553
 10.2200  2.6988  2.0105  1.5816  1.2102  0.4215  0.4215  0.8981  0.8255  0.5839
  0.6506  0.7411

 Free energy of the ion-electron system (eV)
  ---------------------------------------------------
  alpha Z        PSCENC =        18.23723925
  Ewald energy   TEWEN  =      8617.63405943
  -Hartree energ DENC   =    -12111.98340145
  -exchange      EXHF   =         0.00000000
  -V(xc)+E(xc)   XCENC  =      -109.19885104
  PAW double counting   =      2518.63746746    -2395.00210636
  entropy T*S    EENTRO =         0.00000000
  eigenvalues    EBANDS =      -434.92632733
  atomic energy  EATOM  =      3863.73160596
  Solvation  Ediel_sol  =         0.00000000
  ---------------------------------------------------
  free energy    TOTEN  =       -32.87031409 eV

  energy without entropy =      -32.87031409  energy(sigma->0) =      -32.87031409


--------------------------------------------------------------------------------------------------------




--------------------------------------- Iteration      1(  18)  ---------------------------------------


    POTLOK:  cpu time   39.1240: real time   59.0496
    SETDIJ:  cpu time    0.0360: real time    0.0521
     EDDAV:  cpu time   18.1320: real time   27.0884
 BZINTS: Fermi energy: -2.053585; 66.000000 electrons
         Band energy:-434.810733;  BLOECHL correction: -0.021796
       DOS:  cpu time    0.0080: real time    0.0052
    CHARGE:  cpu time    1.5520: real time    2.5728
    MIXING:  cpu time    0.0240: real time    0.0570
    --------------------------------------------
      LOOP:  cpu time   58.8760: real time   88.8251

 eigenvalue-minimisations  :   792
 total energy-change (2. order) :-0.1386674E-03  (-0.1792379E-04)
 number of electron      65.9999995 magnetization       1.8269048
 augmentation part        4.2464381 magnetization       0.9143508

 Broyden mixing:
  rms(total) = 0.10686E-02    rms(broyden)= 0.10650E-02
  rms(prec ) = 0.17181E-02
  weight for this iteration     100.00

 eigenvalues of (default mixing * dielectric matrix)
  average eigenvalue GAMMA=   1.8263
 10.2261  2.7058  2.0463  2.0463  1.3613  0.4215  0.4215  0.9009  0.9009  0.8031
  0.5829  0.6838  0.6410

 Free energy of the ion-electron system (eV)
  ---------------------------------------------------
  alpha Z        PSCENC =        18.23723925
  Ewald energy   TEWEN  =      8617.63405943
  -Hartree energ DENC   =    -12112.07891782
  -exchange      EXHF   =         0.00000000
  -V(xc)+E(xc)   XCENC  =      -109.19795679
  PAW double counting   =      2519.20073008    -2395.58647984
  entropy T*S    EENTRO =         0.00000000
  eigenvalues    EBANDS =      -434.81073301
  atomic energy  EATOM  =      3863.73160596
  Solvation  Ediel_sol  =         0.00000000
  ---------------------------------------------------
  free energy    TOTEN  =       -32.87045276 eV

  energy without entropy =      -32.87045276  energy(sigma->0) =      -32.87045276


--------------------------------------------------------------------------------------------------------




--------------------------------------- Iteration      1(  19)  ---------------------------------------


    POTLOK:  cpu time   39.0520: real time   60.2982
    SETDIJ:  cpu time    0.0760: real time    0.0724
     EDDAV:  cpu time   17.7840: real time   27.0316
 BZINTS: Fermi energy: -2.053370; 66.000000 electrons
         Band energy:-434.787987;  BLOECHL correction: -0.021811
       DOS:  cpu time    0.0160: real time    0.0430
    CHARGE:  cpu time    1.4160: real time    2.3810
    MIXING:  cpu time    0.0840: real time    0.0822
    --------------------------------------------
      LOOP:  cpu time   58.4280: real time   89.9083

 eigenvalue-minimisations  :   792
 total energy-change (2. order) : 0.1000414E-03  (-0.6718040E-05)
 number of electron      65.9999995 magnetization       1.8259892
 augmentation part        4.2481365 magnetization       0.9133639

 Broyden mixing:
  rms(total) = 0.13469E-02    rms(broyden)= 0.13468E-02
  rms(prec ) = 0.19400E-02
  weight for this iteration     100.00

 eigenvalues of (default mixing * dielectric matrix)
  average eigenvalue GAMMA=   1.8002
 10.2270  2.7911  2.4925  1.8388  1.5349  0.4215  0.4215  1.0718  0.9361  0.8009
  0.8009  0.6679  0.5806  0.6172

 Free energy of the ion-electron system (eV)
  ---------------------------------------------------
  alpha Z        PSCENC =        18.23723925
  Ewald energy   TEWEN  =      8617.63405943
  -Hartree energ DENC   =    -12112.10194675
  -exchange      EXHF   =         0.00000000
  -V(xc)+E(xc)   XCENC  =      -109.19890224
  PAW double counting   =      2519.32747760    -2395.71189888
  entropy T*S    EENTRO =         0.00000000
  eigenvalues    EBANDS =      -434.78798708
  atomic energy  EATOM  =      3863.73160596
  Solvation  Ediel_sol  =         0.00000000
  ---------------------------------------------------
  free energy    TOTEN  =       -32.87035272 eV

  energy without entropy =      -32.87035272  energy(sigma->0) =      -32.87035272


--------------------------------------------------------------------------------------------------------




--------------------------------------- Iteration      1(  20)  ---------------------------------------


    POTLOK:  cpu time   39.4840: real time   58.6439
    SETDIJ:  cpu time    0.0320: real time    0.0713
     EDDAV:  cpu time   20.5400: real time   31.5470
 BZINTS: Fermi energy: -2.051626; 66.000000 electrons
         Band energy:-434.689068;  BLOECHL correction: -0.021794
       DOS:  cpu time    0.0080: real time    0.0180
    CHARGE:  cpu time    1.8400: real time    2.4671
    MIXING:  cpu time    0.0280: real time    0.0649
    --------------------------------------------
      LOOP:  cpu time   61.9320: real time   92.8123

 eigenvalue-minimisations  :   960
 total energy-change (2. order) :-0.3291569E-03  (-0.3631561E-05)
 number of electron      65.9999995 magnetization       1.8237439
 augmentation part        4.2455625 magnetization       0.9117190

 Broyden mixing:
  rms(total) = 0.75007E-03    rms(broyden)= 0.74954E-03
  rms(prec ) = 0.14193E-02
  weight for this iteration     100.00

 eigenvalues of (default mixing * dielectric matrix)
  average eigenvalue GAMMA=   1.7858
 10.2243  2.9485  2.5676  1.9776  1.6743  1.3359  0.4215  0.4215  0.9178  0.9178
  0.7583  0.7583  0.6696  0.5785  0.6162

 Free energy of the ion-electron system (eV)
  ---------------------------------------------------
  alpha Z        PSCENC =        18.23723925
  Ewald energy   TEWEN  =      8617.63405943
  -Hartree energ DENC   =    -12112.19787712
  -exchange      EXHF   =         0.00000000
  -V(xc)+E(xc)   XCENC  =      -109.19865860
  PAW double counting   =      2519.46575618    -2395.85373936
  entropy T*S    EENTRO =         0.00000000
  eigenvalues    EBANDS =      -434.68906760
  atomic energy  EATOM  =      3863.73160596
  Solvation  Ediel_sol  =         0.00000000
  ---------------------------------------------------
  free energy    TOTEN  =       -32.87068187 eV

  energy without entropy =      -32.87068187  energy(sigma->0) =      -32.87068187


--------------------------------------------------------------------------------------------------------




--------------------------------------- Iteration      1(  21)  ---------------------------------------


    POTLOK:  cpu time   39.3720: real time   58.6876
    SETDIJ:  cpu time    0.0400: real time    0.0736
     EDDAV:  cpu time   19.1480: real time   29.1744
 BZINTS: Fermi energy: -2.049655; 66.000000 electrons
         Band energy:-434.552313;  BLOECHL correction: -0.021802
       DOS:  cpu time    0.0200: real time    0.0423
    CHARGE:  cpu time    1.7680: real time    2.4524
    MIXING:  cpu time    0.0400: real time    0.0590
    --------------------------------------------
      LOOP:  cpu time   60.3880: real time   90.4893

 eigenvalue-minimisations  :   888
 total energy-change (2. order) :-0.1443760E-03  (-0.6941539E-05)
 number of electron      65.9999995 magnetization       1.8186988
 augmentation part        4.2470418 magnetization       0.9062872

 Broyden mixing:
  rms(total) = 0.56316E-03    rms(broyden)= 0.56304E-03
  rms(prec ) = 0.12088E-02
  weight for this iteration     100.00

 eigenvalues of (default mixing * dielectric matrix)
  average eigenvalue GAMMA=   1.8155
 10.2251  3.4368  2.6720  2.3471  1.8758  1.4316  0.4215  0.4215  1.0411  0.9069
  0.8505  0.8505  0.7173  0.6554  0.5785  0.6158

 Free energy of the ion-electron system (eV)
  ---------------------------------------------------
  alpha Z        PSCENC =        18.23723925
  Ewald energy   TEWEN  =      8617.63405943
  -Hartree energ DENC   =    -12112.33943511
  -exchange      EXHF   =         0.00000000
  -V(xc)+E(xc)   XCENC  =      -109.19929190
  PAW double counting   =      2519.45288158    -2395.83557275
  entropy T*S    EENTRO =         0.00000000
  eigenvalues    EBANDS =      -434.55231270
  atomic energy  EATOM  =      3863.73160596
  Solvation  Ediel_sol  =         0.00000000
  ---------------------------------------------------
  free energy    TOTEN  =       -32.87082625 eV

  energy without entropy =      -32.87082625  energy(sigma->0) =      -32.87082625


--------------------------------------------------------------------------------------------------------




--------------------------------------- Iteration      1(  22)  ---------------------------------------


    POTLOK:  cpu time   39.0480: real time   58.7030
    SETDIJ:  cpu time    0.0680: real time    0.0969
     EDDAV:  cpu time   19.4120: real time   31.1432
 BZINTS: Fermi energy: -2.045470; 66.000000 electrons
         Band energy:-434.273780;  BLOECHL correction: -0.021802
       DOS:  cpu time    0.0040: real time    0.0063
    CHARGE:  cpu time    1.6960: real time    2.4874
    MIXING:  cpu time    0.0360: real time    0.0657
    --------------------------------------------
      LOOP:  cpu time   60.2640: real time   92.5025

 eigenvalue-minimisations  :   984
 total energy-change (2. order) :-0.1046574E-03  (-0.1997022E-04)
 number of electron      65.9999995 magnetization       1.8152665
 augmentation part        4.2466098 magnetization       0.9029288

 Broyden mixing:
  rms(total) = 0.33969E-03    rms(broyden)= 0.33968E-03
  rms(prec ) = 0.87673E-03
  weight for this iteration     100.00

 eigenvalues of (default mixing * dielectric matrix)
  average eigenvalue GAMMA=   1.8489
 10.2273  4.3781  2.7378  2.3672  2.0426  1.4450  1.3838  0.4215  0.4215  0.9345
  0.9345  0.7959  0.7959  0.7043  0.6521  0.5786  0.6105

 Free energy of the ion-electron system (eV)
  ---------------------------------------------------
  alpha Z        PSCENC =        18.23723925
  Ewald energy   TEWEN  =      8617.63405943
  -Hartree energ DENC   =    -12112.61960468
  -exchange      EXHF   =         0.00000000
  -V(xc)+E(xc)   XCENC  =      -109.19920205
  PAW double counting   =      2519.42021222    -2395.80146145
  entropy T*S    EENTRO =         0.00000000
  eigenvalues    EBANDS =      -434.27377958
  atomic energy  EATOM  =      3863.73160596
  Solvation  Ediel_sol  =         0.00000000
  ---------------------------------------------------
  free energy    TOTEN  =       -32.87093091 eV

  energy without entropy =      -32.87093091  energy(sigma->0) =      -32.87093091


--------------------------------------------------------------------------------------------------------




--------------------------------------- Iteration      1(  23)  ---------------------------------------


    POTLOK:  cpu time   38.5520: real time   59.2562
    SETDIJ:  cpu time    0.0760: real time    0.0753
     EDDAV:  cpu time   20.0120: real time   29.7152
 BZINTS: Fermi energy: -2.041068; 66.000000 electrons
         Band energy:-433.975064;  BLOECHL correction: -0.021806
       DOS:  cpu time    0.0040: real time    0.0050
    CHARGE:  cpu time    1.6960: real time    2.5362
    MIXING:  cpu time    0.0360: real time    0.0642
    --------------------------------------------
      LOOP:  cpu time   60.3760: real time   91.6520

 eigenvalue-minimisations  :   912
 total energy-change (2. order) : 0.3080878E-03  (-0.1814843E-04)
 number of electron      65.9999995 magnetization       1.8144702
 augmentation part        4.2471304 magnetization       0.9018296

 Broyden mixing:
  rms(total) = 0.50442E-03    rms(broyden)= 0.50436E-03
  rms(prec ) = 0.78925E-03
  weight for this iteration     100.00

 eigenvalues of (default mixing * dielectric matrix)
  average eigenvalue GAMMA=   1.9732
 10.2270  6.6630  2.8462  2.4957  2.1990  1.8959  1.3540  0.4215  0.4215  1.0747
  0.9257  0.9257  0.7742  0.7742  0.5787  0.6880  0.6086  0.6442

 Free energy of the ion-electron system (eV)
  ---------------------------------------------------
  alpha Z        PSCENC =        18.23723925
  Ewald energy   TEWEN  =      8617.63405943
  -Hartree energ DENC   =    -12112.91742589
  -exchange      EXHF   =         0.00000000
  -V(xc)+E(xc)   XCENC  =      -109.19897101
  PAW double counting   =      2519.34996180    -2395.73202828
  entropy T*S    EENTRO =         0.00000000
  eigenvalues    EBANDS =      -433.97506408
  atomic energy  EATOM  =      3863.73160596
  Solvation  Ediel_sol  =         0.00000000
  ---------------------------------------------------
  free energy    TOTEN  =       -32.87062282 eV

  energy without entropy =      -32.87062282  energy(sigma->0) =      -32.87062282


--------------------------------------------------------------------------------------------------------




--------------------------------------- Iteration      1(  24)  ---------------------------------------


    POTLOK:  cpu time   39.8680: real time   59.9735
    SETDIJ:  cpu time    0.0440: real time    0.0763
     EDDAV:  cpu time   18.4720: real time   29.4643
 BZINTS: Fermi energy: -2.037367; 66.000000 electrons
         Band energy:-433.726592;  BLOECHL correction: -0.021808
       DOS:  cpu time    0.0040: real time    0.0087
    --------------------------------------------
      LOOP:  cpu time   58.3880: real time   89.5228

 eigenvalue-minimisations  :   888
 total energy-change (2. order) : 0.4461699E-06  (-0.2912272E-05)
 number of electron      65.9999995 magnetization       1.8144702
 augmentation part        4.2471304 magnetization       0.9018296

 Free energy of the ion-electron system (eV)
  ---------------------------------------------------
  alpha Z        PSCENC =        18.23723925
  Ewald energy   TEWEN  =      8617.63405943
  -Hartree energ DENC   =    -12113.16631993
  -exchange      EXHF   =         0.00000000
  -V(xc)+E(xc)   XCENC  =      -109.19806954
  PAW double counting   =      2519.28943073    -2395.67197618
  entropy T*S    EENTRO =         0.00000000
  eigenvalues    EBANDS =      -433.72659208
  atomic energy  EATOM  =      3863.73160596
  Solvation  Ediel_sol  =         0.00000000
  ---------------------------------------------------
  free energy    TOTEN  =       -32.87062237 eV

  energy without entropy =      -32.87062237  energy(sigma->0) =      -32.87062237


--------------------------------------------------------------------------------------------------------




 average (electrostatic) potential at core
[...]
     34      -1.2572      0.04127
     35      -0.9375      0.00000
     36      -0.9079      0.00000
     37      -0.6726      0.00000
     38       0.2606      0.00000
     39       0.2864      0.00000
     40       0.8368      0.00000
     41       1.0388      0.00000
     42       1.1138      0.00000
     43       2.2368      0.00000
     44       2.4502      0.00000
     45       2.8531      0.00000
     46       3.0632      0.00000
     47       3.1415      0.00000
     48       3.9208      0.00000

 k-point     5 :      -0.4000    0.2000    0.0000
  band No.  band energies     occupation 
      1     -15.1468      1.00000
      2     -13.8867      1.00000
      3     -13.5785      1.00000
      4     -13.4695      1.00000
      5     -13.0332      1.00000
      6     -12.8492      1.00000
      7     -11.4901      1.00000
      8     -10.0880      1.00000
      9      -7.1093      1.00000
     10      -6.6187      1.00000
     11      -6.5795      1.00000
     12      -6.0847      1.00000
     13      -5.8876      1.00000
     14      -5.4176      1.00000
     15      -5.1698      1.00000
     16      -4.9899      1.00000
     17      -4.8986      1.00000
     18      -4.8099      1.00000
     19      -4.7092      1.00000
     20      -4.5229      1.00000
     21      -4.4237      1.00000
     22      -4.0679      1.00000
     23      -3.6459      1.00000
     24      -3.5744      1.00000
     25      -3.4413      1.00000
     26      -3.3814      1.00000
     27      -3.2378      1.00000
     28      -3.1738      1.00000
     29      -3.1443      1.00000
     30      -2.9813      1.00000
     31      -2.8250      1.00000
     32      -1.7208      1.00000
     33      -1.7184      1.03477
     34      -1.5651      1.04520
     35      -1.2624      0.00000
     36      -0.8433      0.00000
     37      -0.8045      0.00000
     38      -0.2499      0.00000
     39       0.2951      0.00000
     40       0.5794      0.00000
     41       0.9267      0.00000
     42       0.9953      0.00000
     43       2.5152      0.00000
     44       2.9806      0.00000
     45       3.0014      0.00000
     46       3.0426      0.00000
     47       3.2078      0.00000
     48       3.6574      0.00000


--------------------------------------------------------------------------------------------------------


 soft charge-density along one line, spin component           1
         0         1         2         3         4         5         6         7         8         9
 total charge-density along one line

 soft charge-density along one line, spin component           2
         0         1         2         3         4         5         6         7         8         9
 total charge-density along one line

 pseudopotential strength for first ion, spin component:           1
 -9.746  -0.039   0.000   0.000   0.000   1.051   0.017  -0.000
 -0.039  -9.810   0.000  -0.000   0.000   0.017   1.078  -0.000
  0.000   0.000  -9.733   0.000   0.000  -0.000  -0.000   1.045
  0.000  -0.000   0.000  -9.810   0.039  -0.000   0.000  -0.000
  0.000   0.000   0.000   0.039  -9.746  -0.000  -0.000  -0.000
  1.051   0.017  -0.000  -0.000  -0.000   0.877  -0.007   0.000
  0.017   1.078  -0.000   0.000  -0.000  -0.007   0.866   0.000
 -0.000  -0.000   1.045  -0.000  -0.000   0.000   0.000   0.881
 -0.000   0.000  -0.000   1.078  -0.017   0.000  -0.000   0.000
 -0.000  -0.000  -0.000  -0.017   1.051   0.000   0.000   0.000
  0.000  -0.000   0.003  -0.000   0.000  -0.000  -0.000  -0.001
 -0.000   0.000  -0.000   0.000  -0.000   0.000  -0.000   0.000
 -0.000   0.000   0.000  -0.000   0.000   0.000   0.000  -0.000
 -0.000  -0.000   0.000  -0.000  -0.000  -0.000   0.000   0.000
  0.000  -0.000   0.000   0.000  -0.000   0.000  -0.000  -0.000
  0.000  -0.000  -0.000   0.000  -0.001  -0.000   0.000   0.000
  0.000   0.000  -0.000   0.000   0.000  -0.000  -0.000   0.000
 -0.001   0.000  -0.000  -0.000   0.000   0.000  -0.000   0.000
 pseudopotential strength for first ion, spin component:           2
 -9.746  -0.039   0.000   0.000   0.000   1.051   0.017  -0.000
 -0.039  -9.810   0.000  -0.000   0.000   0.017   1.078  -0.000
  0.000   0.000  -9.733   0.000   0.000  -0.000  -0.000   1.045
  0.000  -0.000   0.000  -9.810   0.039  -0.000   0.000  -0.000
  0.000   0.000   0.000   0.039  -9.746  -0.000  -0.000  -0.000
  1.051   0.017  -0.000  -0.000  -0.000   0.877  -0.007   0.000
  0.017   1.078  -0.000   0.000  -0.000  -0.007   0.866   0.000
 -0.000  -0.000   1.045  -0.000  -0.000   0.000   0.000   0.881
 -0.000   0.000  -0.000   1.078  -0.017   0.000  -0.000   0.000
 -0.000  -0.000  -0.000  -0.017   1.051   0.000   0.000   0.000
  0.000  -0.000   0.003  -0.000   0.000  -0.000  -0.000  -0.001
 -0.000   0.000  -0.000   0.000  -0.000   0.000  -0.000   0.000
 -0.000   0.000   0.000  -0.000   0.000   0.000   0.000  -0.000
 -0.000  -0.000   0.000  -0.000  -0.000  -0.000   0.000   0.000
  0.000  -0.000   0.000   0.000  -0.000   0.000  -0.000  -0.000
  0.000  -0.000  -0.000   0.000  -0.001  -0.000   0.000   0.000
  0.000   0.000  -0.000   0.000   0.000  -0.000  -0.000   0.000
 -0.001   0.000  -0.000  -0.000   0.000   0.000  -0.000   0.000
 total augmentation occupancy for first ion, spin component:           1
  1.839  -0.104   0.000   0.000  -0.000   0.055   0.062   0.000  -0.000   0.000  -0.000  -0.000   0.000   0.000   0.009  -0.000
 -0.104   1.721  -0.000  -0.000   0.000   0.061   0.129   0.000   0.000  -0.000   0.000   0.000   0.000  -0.000  -0.002   0.000
  0.000  -0.000   1.943  -0.000  -0.000   0.000   0.000  -0.001   0.000  -0.000  -0.004  -0.002  -0.000   0.000   0.000   0.000
  0.000  -0.000  -0.000   1.721   0.104  -0.000  -0.000   0.000   0.129  -0.061   0.000   0.000   0.002   0.000   0.000   0.000
 -0.000   0.000  -0.000   0.104   1.839  -0.000  -0.000  -0.000  -0.062   0.055   0.000   0.000   0.009  -0.000  -0.000  -0.001
  0.055   0.061   0.000  -0.000  -0.000   0.067   0.047   0.000  -0.000  -0.000   0.000  -0.000   0.000   0.000   0.018  -0.000
  0.062   0.129   0.000  -0.000  -0.000   0.047   0.112   0.000  -0.000  -0.000  -0.000   0.000   0.000   0.000   0.000  -0.000
  0.000   0.000  -0.001   0.000  -0.000   0.000   0.000   0.047   0.000  -0.000   0.018  -0.011  -0.000   0.000   0.000   0.000
 -0.000   0.000   0.000   0.129  -0.062  -0.000  -0.000   0.000   0.112  -0.047   0.000   0.000  -0.000   0.000   0.000  -0.000
  0.000  -0.000  -0.000  -0.061   0.055  -0.000  -0.000  -0.000  -0.047   0.067  -0.000   0.000   0.018  -0.000  -0.000  -0.002
 -0.000   0.000  -0.004   0.000   0.000   0.000  -0.000   0.018   0.000  -0.000   1.049  -0.297   0.000   0.000   0.000   0.000
 -0.000   0.000  -0.002  -0.000   0.000  -0.000  -0.000  -0.011   0.000   0.000  -0.297   0.139   0.000  -0.000  -0.000   0.000
  0.000   0.000  -0.000   0.002   0.009   0.000   0.000  -0.000  -0.000   0.018   0.000  -0.000   0.194   0.000  -0.000  -0.013
  0.000   0.000   0.000  -0.000  -0.000   0.000   0.000   0.000   0.000  -0.000   0.000  -0.000   0.000   0.202  -0.000  -0.000
  0.009  -0.002   0.000   0.000  -0.000   0.018   0.000   0.000   0.000  -0.000   0.000  -0.000  -0.000  -0.000   0.194  -0.000
 -0.000   0.000   0.000   0.000  -0.001  -0.000  -0.000   0.000  -0.000  -0.002   0.000   0.000  -0.013  -0.000  -0.000   0.001
  0.000   0.000   0.000   0.000  -0.000  -0.000   0.000  -0.000   0.000   0.000  -0.000   0.000  -0.000  -0.015   0.000   0.000
 -0.001  -0.000  -0.000   0.000   0.000  -0.002   0.000  -0.000  -0.000   0.000  -0.000   0.000   0.000   0.000  -0.013  -0.000
 total augmentation occupancy for first ion, spin component:           2
 -0.000   0.000  -0.000  -0.000   0.000   0.000  -0.000  -0.000   0.000   0.000  -0.000  -0.000   0.000  -0.000  -0.000   0.000
  0.000   0.000   0.000  -0.000  -0.000  -0.000  -0.000  -0.000  -0.000   0.000   0.000   0.000  -0.000   0.000  -0.000  -0.000
 -0.000   0.000  -0.000   0.000   0.000  -0.000  -0.000  -0.000  -0.000   0.000  -0.000  -0.000   0.000  -0.000  -0.000   0.000
 -0.000  -0.000   0.000   0.000  -0.000   0.000   0.000  -0.000  -0.000   0.000   0.000   0.000   0.000  -0.000  -0.000   0.000
 -0.000  -0.000   0.000  -0.000  -0.000  -0.000   0.000   0.000   0.000   0.000   0.000   0.000  -0.000   0.000  -0.000  -0.000
  0.000  -0.000  -0.000   0.000  -0.000   0.000   0.000   0.000   0.000   0.000   0.000   0.000  -0.000  -0.000  -0.000  -0.000
 -0.000  -0.000  -0.000   0.000   0.000   0.000   0.000   0.000  -0.000   0.000  -0.000  -0.000  -0.000   0.000   0.000   0.000
 -0.000  -0.000  -0.000  -0.000   0.000   0.000   0.000   0.000   0.000  -0.000   0.000   0.000   0.000  -0.000  -0.000  -0.000
  0.000  -0.000  -0.000  -0.000   0.000   0.000  -0.000   0.000   0.000  -0.000   0.000   0.000  -0.000   0.000  -0.000  -0.000
  0.000   0.000   0.000   0.000   0.000  -0.000   0.000  -0.000  -0.000   0.000  -0.000  -0.000  -0.000   0.000   0.000   0.000
 -0.000   0.000  -0.000  -0.000   0.000   0.000  -0.000   0.000   0.000  -0.000   0.000  -0.000   0.000  -0.000   0.000  -0.000
 -0.000   0.000  -0.000  -0.000   0.000   0.000   0.000   0.000   0.000  -0.000  -0.000   0.000   0.000   0.000   0.000  -0.000
  0.000  -0.000   0.000   0.000  -0.000  -0.000  -0.000   0.000  -0.000  -0.000   0.000  -0.000  -0.000  -0.000   0.000  -0.000
 -0.000  -0.000  -0.000  -0.000   0.000  -0.000   0.000  -0.000   0.000   0.000  -0.000   0.000   0.000  -0.000   0.000  -0.000
 -0.000  -0.000  -0.000  -0.000  -0.000  -0.000   0.000  -0.000  -0.000   0.000   0.000   0.000   0.000   0.000  -0.000  -0.000
  0.000  -0.000   0.000   0.000  -0.000  -0.000   0.000  -0.000  -0.000   0.000  -0.000   0.000  -0.000  -0.000  -0.000   0.000
 -0.000   0.000  -0.000   0.000   0.000   0.000   0.000   0.000   0.000  -0.000  -0.000  -0.000   0.000  -0.000   0.000   0.000
 -0.000  -0.000  -0.000  -0.000  -0.000   0.000   0.000   0.000   0.000   0.000   0.000   0.000   0.000   0.000  -0.000  -0.000


------------------------ aborting loop because EDIFF is reached ----------------------------------------





 total charge     

# of ion       s       p       d       tot
------------------------------------------
    1        0.407   0.447   8.417   9.270
    2        0.407   0.447   8.417   9.270
    3        1.107   1.310   0.000   2.417
    4        1.107   1.310   0.000   2.417
    5        1.422   1.896   0.049   3.366
    6        1.405   1.836   0.051   3.291
    7        1.418   1.877   0.049   3.344
    8        1.422   1.896   0.049   3.366
    9        1.405   1.836   0.051   3.291
   10        1.418   1.877   0.049   3.344
--------------------------------------------------
tot         11.515  14.732  17.130  43.378



 magnetization (x)

# of ion       s       p       d       tot
------------------------------------------
    1       -0.000  -0.000   0.000   0.000
    2       -0.000  -0.000   0.000   0.000
    3        0.000   0.000   0.000   0.000
    4        0.000   0.000   0.000   0.000
    5        0.000   0.000   0.000   0.000
    6        0.000   0.000   0.000   0.000
    7        0.000   0.000   0.000   0.000
    8        0.000   0.000   0.000   0.000
    9        0.000   0.000   0.000   0.000
   10        0.000   0.000   0.000   0.000
--------------------------------------------------
tot          0.000   0.000   0.000   0.000

    CHARGE:  cpu time    1.8360: real time    2.5424
    FORLOC:  cpu time    0.0720: real time    0.0694
    FORNL :  cpu time    4.3840: real time    6.8545
    STRESS:  cpu time   13.8400: real time   20.4584
    FORCOR:  cpu time   38.4920: real time   57.9263
    FORHAR:  cpu time    0.2160: real time    0.3030
    MIXING:  cpu time    0.0440: real time    0.0457
    OFIELD:  cpu time    0.0000: real time    0.0000

  FORCE on cell =-STRESS in cart. coord.  units (eV):
  Direction    XX          YY          ZZ          XY          YZ          ZX
  --------------------------------------------------------------------------------------
  Alpha Z    20.32646    20.32646    20.32646
  Ewald   10874.53353 10874.53108-12999.54598    -0.00231    -0.00060    -0.00109
  Hartree 11619.96464 11619.96577-10981.74194    -0.00039     0.00009     0.00015
  E(xc)    -287.87345  -287.87334  -288.05026    -0.00007     0.00003     0.00001
  Local  -23409.75950-23409.75908 23032.84242     0.00240     0.00038     0.00072
  n-local   702.89635   700.66987   720.01124    -2.10098     0.34237     0.13757
  augment   -76.67019   -76.67003   -85.55957     0.00000     0.00003     0.00005
  Kinetic   563.27648   552.42497   581.91031    -6.79437    -1.02543    -0.95584
  Fock        0.00000     0.00000     0.00000     0.00000     0.00000     0.00000
  -------------------------------------------------------------------------------------
  Total       0.15500     0.15500     0.19267     0.00000     0.00000     0.00000
  in kB       0.28569     0.28569     0.35513     0.00000     0.00000     0.00000
  external pressure =        0.31 kB  Pullay stress =        0.00 kB


 VOLUME and BASIS-vectors are now :
 -----------------------------------------------------------------------------
  energy-cutoff  :      520.00
  volume of cell :      869.26
      direct lattice vectors                 reciprocal lattice vectors
     6.709557640  0.000000084 -0.000000000     0.149041123 -0.086048923  0.000000000
     3.354778291  5.810647073  0.000000000    -0.000000002  0.172097874 -0.000000000
    -0.000000000  0.000000000 22.296096874     0.000000000 -0.000000000  0.044850899

  length of vectors
     6.709557640  6.709557124 22.296096874     0.172097861  0.172097874  0.044850899


 FORCES acting on ions
    electron-ion (+dipol)            ewald-force                    non-local-force                 convergence-correction
 -----------------------------------------------------------------------------------------------
   0.127E-03 0.565E-04 0.174E+00   0.740E-03 0.446E-03 -.179E+00   0.347E-17 0.176E-20 0.374E-02   -.243E-06 -.738E-07 0.114E-03
   -.127E-03 -.565E-04 -.174E+00   -.740E-03 -.446E-03 0.179E+00   0.753E-21 -.176E-20 -.374E-02   0.243E-06 0.738E-07 -.114E-03
   -.182E-04 -.600E-04 0.267E+03   -.179E-03 -.991E-04 -.269E+03   0.642E-17 0.120E-17 0.255E+01   -.277E-07 -.146E-07 -.233E-02
   0.182E-04 0.600E-04 -.267E+03   0.179E-03 0.991E-04 0.269E+03   -.342E-16 -.290E-16 -.255E+01   0.277E-07 0.146E-07 0.233E-02
   -.239E+02 0.270E-01 -.461E+03   0.221E+02 -.277E-01 0.465E+03   0.172E+01 0.890E-03 -.336E+01   0.573E-02 -.363E-04 0.936E-02
   0.119E+02 0.206E+02 -.461E+03   -.111E+02 -.192E+02 0.465E+03   -.857E+00 -.149E+01 -.336E+01   -.289E-02 -.494E-02 0.936E-02
   0.119E+02 -.207E+02 -.461E+03   -.110E+02 0.192E+02 0.465E+03   -.858E+00 0.149E+01 -.336E+01   -.283E-02 0.498E-02 0.936E-02
   0.239E+02 -.270E-01 0.461E+03   -.221E+02 0.277E-01 -.465E+03   -.172E+01 -.890E-03 0.336E+01   -.573E-02 0.363E-04 -.936E-02
   -.119E+02 -.206E+02 0.461E+03   0.111E+02 0.192E+02 -.465E+03   0.857E+00 0.149E+01 0.336E+01   0.289E-02 0.494E-02 -.936E-02
   -.119E+02 0.207E+02 0.461E+03   0.110E+02 -.192E+02 -.465E+03   0.858E+00 -.149E+01 0.336E+01   0.283E-02 -.498E-02 -.936E-02
 -----------------------------------------------------------------------------------------------
   0.109E-08 0.497E-09 -.169E-08   0.000E+00 0.711E-14 0.568E-13   0.222E-15 0.222E-15 0.888E-15   -.445E-12 0.267E-13 0.296E-10


 POSITION                                       TOTAL-FORCE (eV/Angst)
 -----------------------------------------------------------------------------------
      3.35478      1.93688     11.14784         0.000000     -0.000000     -0.000767
      6.70956      3.87377     11.14825        -0.000000      0.000000      0.000767
     -0.00000      0.00000     10.01268         0.000000     -0.000000     -0.007237
     -0.00000      0.00000     12.28342         0.000000      0.000000      0.007237
      4.13467      0.00033     12.74458        -0.002011      0.000697      0.014091
      1.28774      2.22976     12.74458         0.001609      0.001393      0.014091
      4.64194      3.58056     12.74458         0.000402     -0.002090      0.014091
      5.92967      5.81031      9.55151         0.002011     -0.000697     -0.014091
      8.77660      3.58089      9.55151        -0.001609     -0.001393     -0.014091
      5.42239      2.23008      9.55151        -0.000402      0.002090     -0.014091
 -----------------------------------------------------------------------------------
    total drift:                                0.000000      0.000000     -0.000000


--------------------------------------------------------------------------------------------------------



  FREE ENERGIE OF THE ION-ELECTRON SYSTEM (eV)
  ---------------------------------------------------
  free  energy   TOTEN  =       -33.56865103 eV

  energy  without entropy=      -33.56865103  energy(sigma->0) =      -33.56865103

 d Force =-0.1526868E-04[-0.262E-04,-0.431E-05]  d Energy = 0.3278448E-03-0.343E-03
 d Force =-0.4717365E+00[-0.472E+00,-0.472E+00]  d Ewald  = 0.1395632E-01-0.486E+00


--------------------------------------------------------------------------------------------------------


    POTLOK:  cpu time   38.8560: real time   59.0298


--------------------------------------------------------------------------------------------------------




--------------------------------------------------------------------------------------------------------


  
 reached required accuracy - stopping structural energy minimisation
     LOOP+:  cpu time  411.2680: real time  620.4809
    4ORBIT:  cpu time    0.0000: real time    0.0000



 total charge     

# of ion       s       p       d       tot
------------------------------------------
    1        0.407   0.447   8.417   9.270
    2        0.407   0.447   8.417   9.270
    3        1.107   1.310   0.000   2.417
    4        1.107   1.310   0.000   2.417
    5        1.422   1.896   0.049   3.366
    6        1.405   1.836   0.051   3.291
    7        1.418   1.877   0.049   3.344
    8        1.422   1.896   0.049   3.366
    9        1.405   1.836   0.051   3.291
   10        1.418   1.877   0.049   3.344
--------------------------------------------------
tot         11.515  14.732  17.130  43.378



 magnetization (x)

# of ion       s       p       d       tot
------------------------------------------
    1       -0.000  -0.000   0.000   0.000
    2       -0.000  -0.000   0.000   0.000
    3        0.000   0.000   0.000   0.000
    4        0.000   0.000   0.000   0.000
    5        0.000   0.000   0.000   0.000
    6        0.000   0.000   0.000   0.000
    7        0.000   0.000   0.000   0.000
    8        0.000   0.000   0.000   0.000
    9        0.000   0.000   0.000   0.000
   10        0.000   0.000   0.000   0.000
--------------------------------------------------
tot          0.000   0.000   0.000   0.000

 BZINTS: Fermi energy: -1.401546; 66.000000 electrons
         Band energy:-423.849622;  BLOECHL correction: -0.056312

 total amount of memory used by VASP MPI-rank0   115636. kBytes
=======================================================================

   base      :      30000. kBytes
   nonlr-proj:       9090. kBytes
   fftplans  :       8558. kBytes
   grid      :      59268. kBytes
   one-center:        311. kBytes
   wavefun   :       8409. kBytes

  
  
 General timing and accounting informations for this job:
 ========================================================
  
                  Total CPU time used (sec):    10684.572
                            User time (sec):     9700.060
                          System time (sec):      984.512
                         Elapsed time (sec):    16108.874
  
                   Maximum memory used (kb):      328568.
                   Average memory used (kb):           0.
  
                          Minor page faults:      9137768
                          Major page faults:            9
                 Voluntary context switches:         1456
