 vasp.5.4.4.18Apr17-6-g9f103f2a35 (build May  1 2020 15:48:39) complex           
 executed on             LinuxGNU date 2020.06.25  00:19:46
 running on   16 total cores
 distrk:  each k-point on   16 cores,    1 groups
 distr:  one band on NCORES_PER_BAND=   1 cores,   16 groups


--------------------------------------------------------------------------------------------------------


 INCAR:
 POTCAR:   PAW_PBE Co 06Sep2000                   
 POTCAR:   PAW_PBE Ge 05Jan2001                   
 POTCAR:   PAW_PBE Si 05Jan2001                   
 POTCAR:   PAW_PBE Se 06Sep2000                   

 ----------------------------------------------------------------------------- 
|                                                                             |
|           W    W    AA    RRRRR   N    N  II  N    N   GGGG   !!!           |
|           W    W   A  A   R    R  NN   N  II  NN   N  G    G  !!!           |
|           W    W  A    A  R    R  N N  N  II  N N  N  G       !!!           |
|           W WW W  AAAAAA  RRRRR   N  N N  II  N  N N  G  GGG   !            |
|           WW  WW  A    A  R   R   N   NN  II  N   NN  G    G                |
|           W    W  A    A  R    R  N    N  II  N    N   GGGG   !!!           |
|                                                                             |
|      For optimal performance we recommend to set                            |
|        NCORE= 4 - approx SQRT( number of cores)                             |
|      NCORE specifies how many cores store one orbital (NPAR=cpu/NCORE).     |
|      This setting can  greatly improve the performance of VASP for DFT.     |
|      The default,   NCORE=1            might be grossly inefficient         |
|      on modern multi-core architectures or massively parallel machines.     |
|      Do your own testing !!!!                                               |
|      Unfortunately you need to use the default for GW and RPA calculations. |
|      (for HF NCORE is supported but not extensively tested yet)             |
|                                                                             |
 ----------------------------------------------------------------------------- 


 ----------------------------------------------------------------------------- 
|                                                                             |
|  ADVICE TO THIS USER RUNNING 'VASP/VAMP'   (HEAR YOUR MASTER'S VOICE ...):  |
|                                                                             |
|      You have switched on vdW-DFT.                                          |
|      This routine was written and supplied by Jiri Klimes.                  |
|      We recommed that you carefully read and cite the following             |
|      publication                                                            |
|      J. Klimes, D.R. Bowler, A. Michelides                                  |
|        J. Phys.: Cond Matt. 22 022201 (2010)                                |
|      J. Klimes, D.R. Bowler, A. Michelides                                  |
|        Phys. Rev. B. 83, 195131 (2011)                                      |
|      and references therein.                                                |
|                                                                             |
 ----------------------------------------------------------------------------- 

 POTCAR:   PAW_PBE Co 06Sep2000                   
   VRHFIN =Co: d8 s1                                                            
   LEXCH  = PE                                                                  
   EATOM  =   813.5563 eV,   59.7947 Ry                                         
                                                                                
   TITEL  = PAW_PBE Co 06Sep2000                                                
   LULTRA =        F    use ultrasoft PP ?                                      
   IUNSCR =        1    unscreen: 0-lin 1-nonlin 2-no                           
   RPACOR =    2.000    partial core radius                                     
   POMASS =   58.933; ZVAL   =    9.000    mass and valenz                      
   RCORE  =    2.300    outmost cutoff radius                                   
   RWIGS  =    2.460; RWIGS  =    1.302    wigner-seitz radius (au A)           
   ENMAX  =  267.969; ENMIN  =  200.977 eV                                      
   RCLOC  =    1.697    cutoff for local pot                                    
   LCOR   =        T    correct aug charges                                     
   LPAW   =        T    paw PP                                                  
   EAUG   =  477.818                                                            
   DEXC   =    -.016                                                            
   RMAX   =    2.817    core radius for proj-oper                               
   RAUG   =    1.300    factor for augmentation sphere                          
   RDEP   =    2.393    radius for radial grids                                 
   QCUT   =   -4.438; QGAM   =    8.876    optimization parameters              
                                                                                
   Description                                                                  
     l     E      TYP  RCUT    TYP  RCUT                                        
     2   .000     23  2.300                                                     
     2   .000     23  2.300                                                     
     0   .000     23  2.300                                                     
     0   .000     23  2.300                                                     
     1  -.200     23  2.300                                                     
     1   .000     23  2.300                                                     
     3   .000      7   .000                                                     
  local pseudopotential read in
  partial core-charges read in
  atomic valenz-charges read in
  non local Contribution for L=           2  read in
    real space projection operators read in
  non local Contribution for L=           2  read in
    real space projection operators read in
  non local Contribution for L=           0  read in
    real space projection operators read in
  non local Contribution for L=           0  read in
    real space projection operators read in
  non local Contribution for L=           1  read in
    real space projection operators read in
  non local Contribution for L=           1  read in
    real space projection operators read in
    PAW grid and wavefunctions read in

   number of l-projection  operators is LMAX  =           6
   number of lm-projection operators is LMMAX =          18

 POTCAR:   PAW_PBE Ge 05Jan2001                   
   VRHFIN =Ge: s2p2                                                             
   LEXCH  = PE                                                                  
   EATOM  =   104.9960 eV,    7.7170 Ry                                         
                                                                                
   TITEL  = PAW_PBE Ge 05Jan2001                                                
   LULTRA =        F    use ultrasoft PP ?                                      
   IUNSCR =        1    unscreen: 0-lin 1-nonlin 2-no                           
   RPACOR =    2.170    partial core radius                                     
   POMASS =   72.610; ZVAL   =    4.000    mass and valenz                      
   RCORE  =    2.300    outmost cutoff radius                                   
   RWIGS  =    2.300; RWIGS  =    1.217    wigner-seitz radius (au A)           
   ENMAX  =  173.807; ENMIN  =  130.355 eV                                      
   ICORE  =        3    local potential                                         
   LCOR   =        T    correct aug charges                                     
   LPAW   =        T    paw PP                                                  
   EAUG   =  385.843                                                            
   DEXC   =    -.138                                                            
   RMAX   =    3.497    core radius for proj-oper                               
   RAUG   =    1.300    factor for augmentation sphere                          
   RDEP   =    2.318    radius for radial grids                                 
   QCUT   =   -3.574; QGAM   =    7.148    optimization parameters              
                                                                                
   Description                                                                  
     l     E      TYP  RCUT    TYP  RCUT                                        
     0   .000     23  2.300                                                     
     0   .000     23  2.300                                                     
     1   .000     23  2.300                                                     
     1   .000     23  2.300                                                     
     2   .000     23  2.300                                                     
     3  -.100      7  2.300                                                     
  local pseudopotential read in
  partial core-charges read in
  atomic valenz-charges read in
  non local Contribution for L=           0  read in
    real space projection operators read in
  non local Contribution for L=           0  read in
    real space projection operators read in
  non local Contribution for L=           1  read in
    real space projection operators read in
  non local Contribution for L=           1  read in
    real space projection operators read in
  non local Contribution for L=           2  read in
    real space projection operators read in
    PAW grid and wavefunctions read in

   number of l-projection  operators is LMAX  =           5
   number of lm-projection operators is LMMAX =          13

 POTCAR:   PAW_PBE Si 05Jan2001                   
   VRHFIN =Si: s2p2                                                             
   LEXCH  = PE                                                                  
   EATOM  =   103.0669 eV,    7.5752 Ry                                         
                                                                                
   TITEL  = PAW_PBE Si 05Jan2001                                                
   LULTRA =        F    use ultrasoft PP ?                                      
   IUNSCR =        1    unscreen: 0-lin 1-nonlin 2-no                           
   RPACOR =    1.500    partial core radius                                     
   POMASS =   28.085; ZVAL   =    4.000    mass and valenz                      
   RCORE  =    1.900    outmost cutoff radius                                   
   RWIGS  =    2.480; RWIGS  =    1.312    wigner-seitz radius (au A)           
   ENMAX  =  245.345; ENMIN  =  184.009 eV                                      
   ICORE  =        2    local potential                                         
   LCOR   =        T    correct aug charges                                     
   LPAW   =        T    paw PP                                                  
   EAUG   =  322.069                                                            
   DEXC   =    -.007                                                            
   RMAX   =    2.944    core radius for proj-oper                               
   RAUG   =    1.300    factor for augmentation sphere                          
   RDEP   =    1.993    radius for radial grids                                 
   QCUT   =   -4.246; QGAM   =    8.493    optimization parameters              
                                                                                
   Description                                                                  
     l     E      TYP  RCUT    TYP  RCUT                                        
     0   .000     23  1.900                                                     
     0   .000     23  1.900                                                     
     1   .000     23  1.900                                                     
     1   .000     23  1.900                                                     
     2   .000      7  1.900                                                     
  local pseudopotential read in
  partial core-charges read in
  atomic valenz-charges read in
  non local Contribution for L=           0  read in
    real space projection operators read in
  non local Contribution for L=           0  read in
    real space projection operators read in
  non local Contribution for L=           1  read in
    real space projection operators read in
  non local Contribution for L=           1  read in
    real space projection operators read in
    PAW grid and wavefunctions read in

   number of l-projection  operators is LMAX  =           4
   number of lm-projection operators is LMMAX =           8

 POTCAR:   PAW_PBE Se 06Sep2000                   
   VRHFIN =Se: s2p4                                                             
   LEXCH  = PE                                                                  
   EATOM  =   256.9644 eV,   18.8864 Ry                                         
                                                                                
   TITEL  = PAW_PBE Se 06Sep2000                                                
   LULTRA =        F    use ultrasoft PP ?                                      
   IUNSCR =        1    unscreen: 0-lin 1-nonlin 2-no                           
   RPACOR =    1.900    partial core radius                                     
   POMASS =   78.960; ZVAL   =    6.000    mass and valenz                      
   RCORE  =    2.100    outmost cutoff radius                                   
   RWIGS  =    2.200; RWIGS  =    1.164    wigner-seitz radius (au A)           
   ENMAX  =  211.534; ENMIN  =  158.651 eV                                      
   ICORE  =        3    local potential                                         
   LCOR   =        T    correct aug charges                                     
   LPAW   =        T    paw PP                                                  
   EAUG   =  446.842                                                            
   DEXC   =    -.031                                                            
   RMAX   =    3.170    core radius for proj-oper                               
   RAUG   =    1.300    factor for augmentation sphere                          
   RDEP   =    2.177    radius for radial grids                                 
   QCUT   =   -3.943; QGAM   =    7.886    optimization parameters              
                                                                                
   Description                                                                  
     l     E      TYP  RCUT    TYP  RCUT                                        
     0   .000     23  2.100                                                     
     0   .000     23  2.100                                                     
     1   .000     23  2.100                                                     
     1   .000     23  2.100                                                     
     2   .000     23  2.100                                                     
     3  -.100      7  2.100                                                     
  local pseudopotential read in
  partial core-charges read in
  atomic valenz-charges read in
  non local Contribution for L=           0  read in
    real space projection operators read in
  non local Contribution for L=           0  read in
    real space projection operators read in
  non local Contribution for L=           1  read in
    real space projection operators read in
  non local Contribution for L=           1  read in
    real space projection operators read in
  non local Contribution for L=           2  read in
    real space projection operators read in
    PAW grid and wavefunctions read in

   number of l-projection  operators is LMAX  =           5
   number of lm-projection operators is LMMAX =          13

 Optimization of the real space projectors (new method)

 maximal supplied QI-value         = 16.25
 optimisation between [QCUT,QGAM] = [ 11.54, 23.24] = [ 37.28,151.24] Ry 
 Optimized for a Real-space Cutoff    1.53 Angstroem

   l    n(q)    QCUT    max X(q) W(low)/X(q) W(high)/X(q)  e(spline) 
   2     10    11.539     4.599    0.83E-05    0.15E-04    0.45E-07
   2     10    11.539    18.158    0.10E-03    0.14E-03    0.24E-06
   0     11    11.539    15.740    0.19E-04    0.12E-05    0.17E-07
   0     11    11.539    47.662    0.48E-04    0.15E-04    0.31E-06
   1     10    11.539     5.777    0.11E-04    0.46E-05    0.25E-07
   1     10    11.539     8.007    0.46E-04    0.29E-04    0.11E-06
 Optimization of the real space projectors (new method)

 maximal supplied QI-value         = 16.25
 optimisation between [QCUT,QGAM] = [ 11.54, 23.24] = [ 37.28,151.24] Ry 
 Optimized for a Real-space Cutoff    1.28 Angstroem

   l    n(q)    QCUT    max X(q) W(low)/X(q) W(high)/X(q)  e(spline) 
   0      9    11.539     8.651    0.22E-04    0.16E-04    0.10E-07
   0      9    11.539    33.192    0.11E-03    0.16E-03    0.65E-07
   1      8    11.539     5.899    0.37E-04    0.28E-04    0.43E-07
   1      8    11.539    27.289    0.22E-03    0.28E-04    0.14E-06
   2      8    11.539     4.673    0.11E-03    0.18E-03    0.58E-07
 Optimization of the real space projectors (new method)

 maximal supplied QI-value         = 19.84
 optimisation between [QCUT,QGAM] = [ 11.51, 23.22] = [ 37.09,150.92] Ry 
 Optimized for a Real-space Cutoff    1.21 Angstroem

   l    n(q)    QCUT    max X(q) W(low)/X(q) W(high)/X(q)  e(spline) 
   0      8    11.508     8.708    0.18E-04    0.44E-05    0.47E-08
   0      8    11.508   106.241    0.70E-04    0.15E-03    0.51E-07
   1      8    11.508     5.901    0.63E-05    0.23E-04    0.21E-07
   1      8    11.508    73.241    0.15E-03    0.36E-04    0.79E-07
 Optimization of the real space projectors (new method)

 maximal supplied QI-value         = 17.95
 optimisation between [QCUT,QGAM] = [ 11.67, 23.34] = [ 38.13,152.52] Ry 
 Optimized for a Real-space Cutoff    1.25 Angstroem

   l    n(q)    QCUT    max X(q) W(low)/X(q) W(high)/X(q)  e(spline) 
   0      9    11.669     6.499    0.13E-04    0.81E-05    0.11E-07
   0      9    11.669    52.623    0.18E-03    0.46E-04    0.72E-07
   1      8    11.669     4.229    0.40E-04    0.45E-04    0.31E-07
   1      8    11.669    29.991    0.22E-03    0.36E-03    0.10E-06
   2      8    11.669     3.719    0.19E-03    0.46E-04    0.50E-07

 ----------------------------------------------------------------------------- 
|                                                                             |
|  ADVICE TO THIS USER RUNNING 'VASP/VAMP'   (HEAR YOUR MASTER'S VOICE ...):  |
|                                                                             |
|      You enforced a specific xc-type in the INCAR file,                     |
|      a different type was found on the POTCAR file                          |
|          I HOPE YOU KNOW, WHAT YOU ARE  DOING                               |
|                                                                             |
 ----------------------------------------------------------------------------- 

 PAW_PBE Co 06Sep2000                   :
 energy of atom  1       EATOM= -813.5563
 kinetic energy error for atom=    0.0028 (will be added to EATOM!!)
 PAW_PBE Ge 05Jan2001                   :
 energy of atom  2       EATOM= -104.9960
 kinetic energy error for atom=    0.0002 (will be added to EATOM!!)
 PAW_PBE Si 05Jan2001                   :
 energy of atom  3       EATOM= -103.0669
 kinetic energy error for atom=    0.0005 (will be added to EATOM!!)
 PAW_PBE Se 06Sep2000                   :
 energy of atom  4       EATOM= -256.9644
 kinetic energy error for atom=    0.0007 (will be added to EATOM!!)


 POSCAR: Co2 Ge Si Se6                           
  positions in direct lattice
  velocities in cartesian coordinates
  No initial velocities read in
 exchange correlation table for  LEXCH =       42
   RHO(1)=    0.500       N(1)  =     2000
   RHO(2)=  100.500       N(2)  =     4000



--------------------------------------------------------------------------------------------------------


 ion  position               nearest neighbor table
   1  0.333  0.333  0.500-   6 2.78   5 2.78   7 2.78   8 2.78  10 2.78   9 2.78
   2  0.667  0.667  0.500-   9 2.78   8 2.78  10 2.78   5 2.78   7 2.78   6 2.78
   3  0.000  0.000  0.448-   4 2.43   8 2.63  10 2.63   9 2.63
   4  0.000  0.000  0.552-   3 2.43   5 2.63   7 2.63   6 2.63
   5  0.626  0.000  0.574-   4 2.63   1 2.78   2 2.78
   6  0.000  0.373  0.574-   4 2.63   1 2.78   2 2.78
   7  0.373  0.626  0.574-   4 2.63   1 2.78   2 2.78
   8  0.374  1.000  0.426-   3 2.63   2 2.78   1 2.78
   9  1.000  0.627  0.426-   3 2.63   2 2.78   1 2.78
  10  0.627  0.374  0.426-   3 2.63   2 2.78   1 2.78

  LATTYP: Found a hexagonal cell.
 ALAT       =     6.9077769333
 C/A-ratio  =     3.3939410937
  
  Lattice vectors:
  
 A1 = (   3.4538890000,  -5.9823100000,   0.0000000000)
 A2 = (  -6.9077770000,   0.0000000000,   0.0000000000)
 A3 = (   0.0000000000,   0.0000000000, -23.4445880000)


Analysis of symmetry for initial positions (statically):
=====================================================================
 Subroutine PRICEL returns:
 Original cell was already a primitive cell.
 

 Routine SETGRP: Setting up the symmetry group for a 
 hexagonal supercell.


 Subroutine GETGRP returns: Found  3 space group operations
 (whereof  3 operations were pure point group operations)
 out of a pool of 24 trial point group operations.


The static configuration has the point symmetry C_3 .


Analysis of symmetry for dynamics (positions and initial velocities):
=====================================================================
 Subroutine PRICEL returns:
 Original cell was already a primitive cell.
 

 Routine SETGRP: Setting up the symmetry group for a 
 hexagonal supercell.


 Subroutine GETGRP returns: Found  3 space group operations
 (whereof  3 operations were pure point group operations)
 out of a pool of 24 trial point group operations.


The dynamic configuration has the point symmetry C_3 .


Analysis of constrained symmetry for selective dynamics:
=====================================================================
 Subroutine PRICEL returns:
 Original cell was already a primitive cell.
 

 Routine SETGRP: Setting up the symmetry group for a 
 hexagonal supercell.


 Subroutine GETGRP returns: Found  3 space group operations
 (whereof  3 operations were pure point group operations)
 out of a pool of 24 trial point group operations.


The constrained configuration has the point symmetry C_3 .


Analysis of structural, dynamic, and magnetic symmetry:
=====================================================================
 Subroutine PRICEL returns:
 Original cell was already a primitive cell.
 

 Routine SETGRP: Setting up the symmetry group for a 
 hexagonal supercell.


 Subroutine GETGRP returns: Found  3 space group operations
 (whereof  3 operations were pure point group operations)
 out of a pool of 24 trial point group operations.


The magnetic configuration has the point symmetry C_3 .


 Subroutine INISYM returns: Found  3 space group operations
 (whereof  3 operations are pure point group operations),
 and found     1 'primitive' translations



 KPOINTS: Kpoints from vasprun.xml                

Automatic generation of k-mesh.
Space group operators:
 irot       det(A)        alpha          n_x          n_y          n_z        tau_x        tau_y        tau_z
    1     1.000000     0.000000     1.000000     0.000000     0.000000     0.000000     0.000000     0.000000
    2     1.000000   120.000000     0.000000     0.000000     1.000000     0.000000     0.000000     0.000000
    3     1.000000   120.000000     0.000000     0.000000    -1.000000     0.000000     0.000000     0.000000
 
 Subroutine IBZKPT returns following result:
 ===========================================
 
 Found      5 irreducible k-points:
 
 Following reciprocal coordinates:
            Coordinates               Weight
  0.000000  0.000000  0.000000      1.000000
  0.200000  0.000000  0.000000      6.000000
  0.400000  0.000000  0.000000      6.000000
  0.400000  0.200000  0.000000      6.000000
 -0.400000  0.200000  0.000000      6.000000
 
 Following cartesian coordinates:
            Coordinates               Weight
  0.000000  0.000000  0.000000      1.000000
  0.028953 -0.016716  0.000000      6.000000
  0.057906 -0.033432  0.000000      6.000000
  0.057906  0.000000  0.000000      6.000000
 -0.057906  0.066864  0.000000      6.000000
 
 TETIRR: Found     15 inequivalent tetrahedra from      150


--------------------------------------------------------------------------------------------------------




 Dimension of arrays:
   k-points           NKPTS =      5   k-points in BZ     NKDIM =      5   number of bands    NBANDS=     48
   number of dos      NEDOS =    301   number of ions     NIONS =     10
   non local maximal  LDIM  =      6   non local SUM 2l+1 LMDIM =     18
   total plane-waves  NPLWV = 524880
   max r-space proj   IRMAX =   8238   max aug-charges    IRDMAX=  29641
   dimension x,y,z NGX =    54 NGY =   54 NGZ =  180
   dimension x,y,z NGXF=   108 NGYF=  108 NGZF=  360
   support grid    NGXF=   108 NGYF=  108 NGZF=  360
   ions per type =               2   1   1   6
   NGX,Y,Z   is equivalent  to a cutoff of  13.00, 13.00, 12.76 a.u.
   NGXF,Y,Z  is equivalent  to a cutoff of  25.99, 25.99, 25.53 a.u.

 SYSTEM =  unknown system                          
 POSCAR =  Co2 Ge Si Se6                           

 Startparameter for this run:
   NWRITE =      2    write-flag & timer
   PREC   = accura    normal or accurate (medium, high low for compatibility)
   ISTART =      0    job   : 0-new  1-cont  2-samecut
   ICHARG =      2    charge: 1-file 2-atom 10-const
   ISPIN  =      2    spin polarized calculation?
   LNONCOLLINEAR =      F non collinear calculations
   LSORBIT =      F    spin-orbit coupling
   INIWAV =      1    electr: 0-lowe 1-rand  2-diag
   LASPH  =      F    aspherical Exc in radial PAW
   METAGGA=      F    non-selfconsistent MetaGGA calc.

 Electronic Relaxation 1
   ENCUT  =  520.0 eV  38.22 Ry    6.18 a.u.  12.84 12.84 43.59*2*pi/ulx,y,z
   ENINI  =  520.0     initial cutoff
   ENAUG  =  477.8 eV  augmentation charge cutoff
   NELM   =    400;   NELMIN=  2; NELMDL=  0     # of ELM steps 
   EDIFF  = 0.1E-03   stopping-criterion for ELM
   LREAL  =      T    real-space projection
   NLSPLINE    = F    spline interpolate recip. space projectors
   LCOMPAT=      F    compatible to vasp.4.4
   GGA_COMPAT  = T    GGA compatible to vasp.4.4-vasp.4.6
   LMAXPAW     = -100 max onsite density
   LMAXMIX     =    2 max onsite mixed and CHGCAR
   VOSKOWN=      0    Vosko Wilk Nusair interpolation
   ROPT   =   -0.00025  -0.00025  -0.00025  -0.00025
 Ionic relaxation
   EDIFFG = 0.1E-02   stopping-criterion for IOM
   NSW    =     99    number of steps for IOM
   NBLOCK =      1;   KBLOCK =     99    inner block; outer block 
   IBRION =      2    ionic relax: 0-MD 1-quasi-New 2-CG
   NFREE  =      1    steps in history (QN), initial steepest desc. (CG)
   ISIF   =      3    stress and relaxation
   IWAVPR =     11    prediction:  0-non 1-charg 2-wave 3-comb
   ISYM   =      2    0-nonsym 1-usesym 2-fastsym
   LCORR  =      T    Harris-Foulkes like correction to forces

   POTIM  = 0.5000    time-step for ionic-motion
   TEIN   =    0.0    initial temperature
   TEBEG  =    0.0;   TEEND  =   0.0 temperature during run
   SMASS  =  -3.00    Nose mass-parameter (am)
   estimated Nose-frequenzy (Omega)   =  0.10E-29 period in steps =****** mass=  -0.109E-26a.u.
   SCALEE = 1.0000    scale energy and forces
   NPACO  =    256;   APACO  = 16.0  distance and # of slots for P.C.
   PSTRESS=    0.0 pullay stress

  Mass of Ions in am
   POMASS =  58.93 72.61 28.09 78.96
  Ionic Valenz
   ZVAL   =   9.00  4.00  4.00  6.00
  Atomic Wigner-Seitz radii
   RWIGS  =  -1.00 -1.00 -1.00 -1.00
  virtual crystal weights 
   VCA    =   1.00  1.00  1.00  1.00
   NELECT =      62.0000    total number of electrons
   NUPDOWN=      -1.0000    fix difference up-down

 DOS related values:
   EMIN   =  10.00;   EMAX   =-10.00  energy-range for DOS
   EFERMI =   0.00
   ISMEAR =    -5;   SIGMA  =   0.05  broadening in eV -4-tet -1-fermi 0-gaus

 Electronic relaxation 2 (details)
   IALGO  =     38    algorithm
   LDIAG  =      T    sub-space diagonalisation (order eigenvalues)
   LSUBROT=      F    optimize rotation matrix (better conditioning)
   TURBO    =      0    0=normal 1=particle mesh
   IRESTART =      0    0=no restart 2=restart with 2 vectors
   NREBOOT  =      0    no. of reboots
   NMIN     =      0    reboot dimension
   EREF     =   0.00    reference energy to select bands
   IMIX   =      4    mixing-type and parameters
     AMIX     =   0.40;   BMIX     =  1.00
     AMIX_MAG =   1.60;   BMIX_MAG =  1.00
     AMIN     =   0.01
     WC   =   100.;   INIMIX=   1;  MIXPRE=   1;  MAXMIX= -45

 Intra band minimization:
   WEIMIN = 0.0010     energy-eigenvalue tresh-hold
   EBREAK =  0.52E-06  absolut break condition
   DEPER  =   0.30     relativ break condition  

   TIME   =   0.40     timestep for ELM

  volume/ion in A,a.u.               =      96.88       653.80
  Fermi-wavevector in a.u.,A,eV,Ry     =   0.654820  1.237431  5.834037  0.428790
  Thomas-Fermi vector in A             =   1.725500

 Write flags
   LWAVE        =      F    write WAVECAR
   LDOWNSAMPLE  =      F    k-point downsampling of WAVECAR
   LCHARG       =      T    write CHGCAR
   LVTOT        =      F    write LOCPOT, total local potential
   LVHAR        =      F    write LOCPOT, Hartree potential only
   LELF         =      F    write electronic localiz. function (ELF)
   LORBIT       =     11    0 simple, 1 ext, 2 COOP (PROOUT), +10 PAW based schemes


 Dipole corrections
   LMONO  =      F    monopole corrections only (constant potential shift)
   LDIPOL =      F    correct potential (dipole corrections)
   IDIPOL =      0    1-x, 2-y, 3-z, 4-all directions 
   EPSILON=  1.0000000 bulk dielectric constant

 Exchange correlation treatment:
   GGA     =    BO    GGA type
   LEXCH   =    42    internal setting for exchange type
   VOSKOWN=      0    Vosko Wilk Nusair interpolation
   LHFCALC =     F    Hartree Fock is set to
   LHFONE  =     F    Hartree Fock one center treatment
   AEXX    =    0.0000 exact exchange contribution

 vdW DFT:
   LUSE_VDW   =     T    switch on vdW DFT
   Zab_VDW    =-.8491    correlation parameter
   PARAM1     =0.1833
   PARAM2     =0.2200
   PARAM3     =0.0000
   -- rVV10 --
   BPARAM     = 6.3000
   CPARAM     = 0.0093

 Linear response parameters
   LEPSILON=     F    determine dielectric tensor
   LRPA    =     F    only Hartree local field effects (RPA)
   LNABLA  =     F    use nabla operator in PAW spheres
   LVEL    =     F    velocity operator in full k-point grid
   LINTERFAST=   F  fast interpolation
   KINTER  =     0    interpolate to denser k-point grid
   CSHIFT  =0.1000    complex shift for real part using Kramers Kronig
   OMEGAMAX=  -1.0    maximum frequency
   DEG_THRESHOLD= 0.2000000E-02 threshold for treating states as degnerate
   RTIME   =   -0.100 relaxation time in fs
  (WPLASMAI=    0.000 imaginary part of plasma frequency in eV, 0.658/RTIME)
   DFIELD  = 0.0000000 0.0000000 0.0000000 field for delta impulse in time

 Orbital magnetization related:
   ORBITALMAG=     F  switch on orbital magnetization
   LCHIMAG   =     F  perturbation theory with respect to B field
   DQ        =  0.001000  dq finite difference perturbation B field
   LLRAUG    =     F  two centre corrections for induced B field



--------------------------------------------------------------------------------------------------------


 conjugate gradient relaxation of ions
   using selective dynamics as specified on POSCAR
 charge density and potential will be updated during run
 spin polarized calculation
 Variant of blocked Davidson
 Davidson routine will perform the subspace rotation
 perform sub-space diagonalisation
    after iterative eigenvector-optimisation
 modified Broyden-mixing scheme, WC =      100.0
 initial mixing is a Kerker type mixing with AMIX =  0.4000 and BMIX =      1.0000
 Hartree-type preconditioning will be used
 using additional bands           17
 real space projection scheme for non local part
 use partial core corrections
 calculate Harris-corrections to forces   (improved forces if not selfconsistent)
 use gradient corrections 
 use of overlap-Matrix (Vanderbilt PP)
 Fermi weights with tetrahedron method with Bloechl corrections


--------------------------------------------------------------------------------------------------------


  energy-cutoff  :      520.00
  volume of cell :      968.84
      direct lattice vectors                 reciprocal lattice vectors
     6.907777000 -0.000000000  0.000000000     0.144764372 -0.083579742  0.000000000
     3.453888000  5.982310000  0.000000000     0.000000000  0.167159509 -0.000000000
     0.000000000  0.000000000 23.444588000    -0.000000000  0.000000000  0.042653767

  length of vectors
     6.907777000  6.907776433 23.444588000     0.167159495  0.167159509  0.042653767



 k-points in units of 2pi/SCALE and weight: Kpoints from vasprun.xml                
   0.00000000  0.00000000  0.00000000       0.040
   0.02895287 -0.01671595  0.00000000       0.240
   0.05790575 -0.03343190  0.00000000       0.240
   0.05790575  0.00000000  0.00000000       0.240
  -0.05790575  0.06686380  0.00000000       0.240

 k-points in reciprocal lattice and weights: Kpoints from vasprun.xml                
   0.00000000  0.00000000  0.00000000       0.040
   0.20000000  0.00000000  0.00000000       0.240
   0.40000000  0.00000000  0.00000000       0.240
   0.40000000  0.20000000  0.00000000       0.240
  -0.40000000  0.20000000  0.00000000       0.240

 position of ions in fractional coordinates (direct lattice) 
   0.33333300  0.33333300  0.49992500
   0.66666700  0.66666700  0.50007500
   0.00000000  0.00000000  0.44821600
   0.00000000  0.00000000  0.55178400
   0.62635700  0.00042000  0.57375200
   0.00042000  0.37322400  0.57375200
   0.37322400  0.62635700  0.57375200
   0.37364300  0.99958000  0.42624800
   0.99958000  0.62677600  0.42624800
   0.62677600  0.37364300  0.42624800

 position of ions in cartesian coordinates  (Angst):
   3.45388488  1.99410134 11.72053566
   6.90778012  3.98820866 11.72405234
   0.00000000  0.00000000 10.50823946
   0.00000000  0.00000000 12.93634854
   4.32818511  0.00251257 13.45137925
   1.29197516  2.23274167 13.45137925
   4.74151509  3.74706174 13.45137925
   6.03347989  5.97979743  9.99320875
   9.06968984  3.74956833  9.99320875
   5.62014991  2.23524826  9.99320875



--------------------------------------------------------------------------------------------------------


 k-point  1 :   0.0000 0.0000 0.0000  plane waves:   26073
 k-point  2 :   0.2000 0.0000 0.0000  plane waves:   26070
 k-point  3 :   0.4000 0.0000 0.0000  plane waves:   26086
 k-point  4 :   0.4000 0.2000 0.0000  plane waves:   26085
 k-point  5 :  -0.4000 0.2000 0.0000  plane waves:   26115

 maximum and minimum number of plane-waves per node :     26115    26070

 maximum number of plane-waves:     26115
 maximum index in each direction: 
   IXMAX=   13   IYMAX=   12   IZMAX=   43
   IXMIN=  -13   IYMIN=  -13   IZMIN=  -43


 serial   3D FFT for wavefunctions
 parallel 3D FFT for charge:
    minimum data exchange during FFTs selected (reduces bandwidth)


 total amount of memory used by VASP MPI-rank0   130152. kBytes
=======================================================================

   base      :      30000. kBytes
   nonlr-proj:       7652. kBytes
   fftplans  :      11247. kBytes
   grid      :      68332. kBytes
   one-center:        311. kBytes
   wavefun   :      12610. kBytes

     INWAV:  cpu time    0.0000: real time    0.0012
 Broyden mixing: mesh for mixing (old mesh)
   NGX = 25   NGY = 25   NGZ = 87
  (NGX  =108   NGY  =108   NGZ  =360)
  gives a total of  54375 points

 initial charge density was supplied:
 charge density of overlapping atoms calculated
 number of electron      62.0000000 magnetization       9.7800000
 keeping initial charge density in first step


--------------------------------------------------------------------------------------------------------


 Maximum index for non-local projection operator         7925
 Maximum index for augmentation-charges         2133 (set IRDMAX)


--------------------------------------------------------------------------------------------------------


 First call to EWALD:  gamma=   0.179
 Maximum number of real-space cells 4x 4x 1
 Maximum number of reciprocal cells 2x 2x 6

    FEWALD:  cpu time    0.0040: real time    0.0015


--------------------------------------- Iteration      1(   1)  ---------------------------------------


vdW kernel read from vdw_kernel.bindat
  0.0000  0.2424  0.5071  0.7962  1.1119  1.4567  1.8333  2.2446  2.6937  3.1842
  3.7199  4.3049  4.9438  5.6415  6.4036  7.2358  8.1446  9.1372 10.2212 11.4050
 12.6979 14.1099 15.6519 17.3360 19.1751 21.1837 23.3773 25.7729 28.3892 31.2465
 34.3669 37.7748 41.4965 45.5611 50.0000

    POTLOK:  cpu time   52.8840: real time   52.9801
    SETDIJ:  cpu time    0.0480: real time    0.0482
     EDDAV:  cpu time   22.6920: real time   22.8691
 BZINTS: Fermi energy:  4.623605; 62.008233 electrons
         Band energy: -35.522961;  BLOECHL correction: -0.031548
       DOS:  cpu time    0.0040: real time    0.0063
    --------------------------------------------
      LOOP:  cpu time   75.6280: real time   75.9038

 eigenvalue-minimisations  :   960
 total energy-change (2. order) : 0.4070610E+03  (-0.1865581E+04)
 number of electron      62.0000000 magnetization       9.7800000
 augmentation part       62.0000000 magnetization       9.7800000

 Free energy of the ion-electron system (eV)
  ---------------------------------------------------
  alpha Z        PSCENC =        38.63741427
  Ewald energy   TEWEN  =      7529.91642125
  -Hartree energ DENC   =    -10538.26735954
  -exchange      EXHF   =         0.00000000
  -V(xc)+E(xc)   XCENC  =         3.13229694
  PAW double counting   =      1977.10597541    -1961.08634424
  entropy T*S    EENTRO =         0.00000000
  eigenvalues    EBANDS =       -35.52296122
  atomic energy  EATOM  =      3393.14552885
  Solvation  Ediel_sol  =         0.00000000
  ---------------------------------------------------
  free energy    TOTEN  =       407.06097172 eV

  energy without entropy =      407.06097172  energy(sigma->0) =      407.06097172


--------------------------------------------------------------------------------------------------------




--------------------------------------- Iteration      1(   2)  ---------------------------------------


     EDDAV:  cpu time   28.9560: real time   29.5899
 BZINTS: Fermi energy: -1.658343; 62.000000 electrons
         Band energy:-415.492508;  BLOECHL correction: -0.042995
       DOS:  cpu time    0.0040: real time    0.0052
    --------------------------------------------
      LOOP:  cpu time   28.9600: real time   29.5951

 eigenvalue-minimisations  :  1280
 total energy-change (2. order) :-0.3799695E+03  (-0.3475740E+03)
 number of electron      62.0000000 magnetization       9.7800000
 augmentation part       62.0000000 magnetization       9.7800000

 Free energy of the ion-electron system (eV)
  ---------------------------------------------------
  alpha Z        PSCENC =        38.63741427
  Ewald energy   TEWEN  =      7529.91642125
  -Hartree energ DENC   =    -10538.26735954
  -exchange      EXHF   =         0.00000000
  -V(xc)+E(xc)   XCENC  =         3.13229694
  PAW double counting   =      1977.10597541    -1961.08634424
  entropy T*S    EENTRO =         0.00000000
  eigenvalues    EBANDS =      -415.49250776
  atomic energy  EATOM  =      3393.14552885
  Solvation  Ediel_sol  =         0.00000000
  ---------------------------------------------------
  free energy    TOTEN  =        27.09142518 eV

  energy without entropy =       27.09142518  energy(sigma->0) =       27.09142518


--------------------------------------------------------------------------------------------------------




--------------------------------------- Iteration      1(   3)  ---------------------------------------


     EDDAV:  cpu time   28.0200: real time   28.2701
 BZINTS: Fermi energy: -2.633827; 62.000000 electrons
         Band energy:-483.640769;  BLOECHL correction: -0.027517
       DOS:  cpu time    0.0040: real time    0.0051
    --------------------------------------------
      LOOP:  cpu time   28.0240: real time   28.2751

 eigenvalue-minimisations  :  1216
 total energy-change (2. order) :-0.6814826E+02  (-0.6533728E+02)
 number of electron      62.0000000 magnetization       9.7800000
 augmentation part       62.0000000 magnetization       9.7800000

 Free energy of the ion-electron system (eV)
  ---------------------------------------------------
  alpha Z        PSCENC =        38.63741427
  Ewald energy   TEWEN  =      7529.91642125
  -Hartree energ DENC   =    -10538.26735954
  -exchange      EXHF   =         0.00000000
  -V(xc)+E(xc)   XCENC  =         3.13229694
  PAW double counting   =      1977.10597541    -1961.08634424
  entropy T*S    EENTRO =         0.00000000
  eigenvalues    EBANDS =      -483.64076904
  atomic energy  EATOM  =      3393.14552885
  Solvation  Ediel_sol  =         0.00000000
  ---------------------------------------------------
  free energy    TOTEN  =       -41.05683609 eV

  energy without entropy =      -41.05683609  energy(sigma->0) =      -41.05683609


--------------------------------------------------------------------------------------------------------




--------------------------------------- Iteration      1(   4)  ---------------------------------------


     EDDAV:  cpu time   29.2560: real time   29.4056
 BZINTS: Fermi energy: -2.708253; 62.000000 electrons
         Band energy:-486.345113;  BLOECHL correction: -0.014682
       DOS:  cpu time    0.0040: real time    0.0052
    --------------------------------------------
      LOOP:  cpu time   29.2600: real time   29.4108

 eigenvalue-minimisations  :  1264
 total energy-change (2. order) :-0.2704344E+01  (-0.2681989E+01)
 number of electron      62.0000000 magnetization       9.7800000
 augmentation part       62.0000000 magnetization       9.7800000

 Free energy of the ion-electron system (eV)
  ---------------------------------------------------
  alpha Z        PSCENC =        38.63741427
  Ewald energy   TEWEN  =      7529.91642125
  -Hartree energ DENC   =    -10538.26735954
  -exchange      EXHF   =         0.00000000
  -V(xc)+E(xc)   XCENC  =         3.13229694
  PAW double counting   =      1977.10597541    -1961.08634424
  entropy T*S    EENTRO =         0.00000000
  eigenvalues    EBANDS =      -486.34511302
  atomic energy  EATOM  =      3393.14552885
  Solvation  Ediel_sol  =         0.00000000
  ---------------------------------------------------
  free energy    TOTEN  =       -43.76118007 eV

  energy without entropy =      -43.76118007  energy(sigma->0) =      -43.76118007


--------------------------------------------------------------------------------------------------------




--------------------------------------- Iteration      1(   5)  ---------------------------------------


     EDDAV:  cpu time   27.5560: real time   27.7612
 BZINTS: Fermi energy: -2.709269; 62.000000 electrons
         Band energy:-486.412740;  BLOECHL correction: -0.014626
       DOS:  cpu time    0.0040: real time    0.0059
    CHARGE:  cpu time    2.0680: real time    2.0752
    MIXING:  cpu time    0.0400: real time    0.0406
    --------------------------------------------
      LOOP:  cpu time   29.6680: real time   29.8828

 eigenvalue-minimisations  :  1200
 total energy-change (2. order) :-0.6762734E-01  (-0.6760003E-01)
 number of electron      61.9999990 magnetization       9.7474452
 augmentation part       -1.3927137 magnetization       6.3055087

 Broyden mixing:
  rms(total) = 0.33535E+01    rms(broyden)= 0.33535E+01
  rms(prec ) = 0.35975E+01
  weight for this iteration     100.00

 Free energy of the ion-electron system (eV)
  ---------------------------------------------------
  alpha Z        PSCENC =        38.63741427
  Ewald energy   TEWEN  =      7529.91642125
  -Hartree energ DENC   =    -10538.26735954
  -exchange      EXHF   =         0.00000000
  -V(xc)+E(xc)   XCENC  =         3.13229694
  PAW double counting   =      1977.10597541    -1961.08634424
  entropy T*S    EENTRO =         0.00000000
  eigenvalues    EBANDS =      -486.41274036
  atomic energy  EATOM  =      3393.14552885
  Solvation  Ediel_sol  =         0.00000000
  ---------------------------------------------------
  free energy    TOTEN  =       -43.82880741 eV

  energy without entropy =      -43.82880741  energy(sigma->0) =      -43.82880741


--------------------------------------------------------------------------------------------------------




--------------------------------------- Iteration      1(   6)  ---------------------------------------


    POTLOK:  cpu time   51.7840: real time   52.0769
    SETDIJ:  cpu time    0.0480: real time    0.0487
     EDDAV:  cpu time   28.7480: real time   28.8193
 BZINTS: Fermi energy: -4.469691; 62.000000 electrons
         Band energy:-721.263317;  BLOECHL correction: -0.025775
       DOS:  cpu time    0.0040: real time    0.0068
    CHARGE:  cpu time    2.0800: real time    2.0786
    MIXING:  cpu time    0.0320: real time    0.0423
    --------------------------------------------
      LOOP:  cpu time   82.6960: real time   83.0727

 eigenvalue-minimisations  :  1248
 total energy-change (2. order) :-0.5979560E+02  (-0.6585386E+02)
 number of electron      61.9999983 magnetization       9.3910785
 augmentation part        8.7616534 magnetization       9.4930194

 Broyden mixing:
  rms(total) = 0.64437E+01    rms(broyden)= 0.64437E+01
  rms(prec ) = 0.67729E+01
  weight for this iteration     100.00

 eigenvalues of (default mixing * dielectric matrix)
  average eigenvalue GAMMA=   0.3199
  0.3199

 Free energy of the ion-electron system (eV)
  ---------------------------------------------------
  alpha Z        PSCENC =        38.63741427
  Ewald energy   TEWEN  =      7529.91642125
  -Hartree energ DENC   =    -10397.94676307
  -exchange      EXHF   =         0.00000000
  -V(xc)+E(xc)   XCENC  =         6.45590672
  PAW double counting   =      1745.86530308    -1698.43489709
  entropy T*S    EENTRO =         0.00000000
  eigenvalues    EBANDS =      -721.26331672
  atomic energy  EATOM  =      3393.14552885
  Solvation  Ediel_sol  =         0.00000000
  ---------------------------------------------------
  free energy    TOTEN  =      -103.62440270 eV

  energy without entropy =     -103.62440270  energy(sigma->0) =     -103.62440270


--------------------------------------------------------------------------------------------------------




--------------------------------------- Iteration      1(   7)  ---------------------------------------


    POTLOK:  cpu time   51.6120: real time   52.0287
    SETDIJ:  cpu time    0.0480: real time    0.0488
     EDDAV:  cpu time   29.1080: real time   29.1572
 BZINTS: Fermi energy: -4.550208; 62.000000 electrons
         Band energy:-555.989016;  BLOECHL correction: -0.041307
       DOS:  cpu time    0.0040: real time    0.0069
    CHARGE:  cpu time    2.1320: real time    2.1326
    MIXING:  cpu time    0.0400: real time    0.0411
    --------------------------------------------
      LOOP:  cpu time   82.9440: real time   83.4154

 eigenvalue-minimisations  :  1264
 total energy-change (2. order) : 0.5725283E+02  (-0.7542895E+01)
 number of electron      61.9999985 magnetization       9.0902427
 augmentation part        6.9784379 magnetization       8.7124650

 Broyden mixing:
  rms(total) = 0.35483E+01    rms(broyden)= 0.35483E+01
  rms(prec ) = 0.37902E+01
  weight for this iteration     100.00

 eigenvalues of (default mixing * dielectric matrix)
  average eigenvalue GAMMA=   0.4447
  0.4447  0.4447

 Free energy of the ion-electron system (eV)
  ---------------------------------------------------
  alpha Z        PSCENC =        38.63741427
  Ewald energy   TEWEN  =      7529.91642125
  -Hartree energ DENC   =    -10477.03842730
  -exchange      EXHF   =         0.00000000
  -V(xc)+E(xc)   XCENC  =         2.82335191
  PAW double counting   =      1891.88780898    -1869.75465412
  entropy T*S    EENTRO =         0.00000000
  eigenvalues    EBANDS =      -555.98901569
  atomic energy  EATOM  =      3393.14552885
  Solvation  Ediel_sol  =         0.00000000
  ---------------------------------------------------
  free energy    TOTEN  =       -46.37157185 eV

  energy without entropy =      -46.37157185  energy(sigma->0) =      -46.37157185


--------------------------------------------------------------------------------------------------------




--------------------------------------- Iteration      1(   8)  ---------------------------------------


    POTLOK:  cpu time   51.7040: real time   51.8868
    SETDIJ:  cpu time    0.0480: real time    0.0483
     EDDAV:  cpu time   26.9160: real time   27.0667
 BZINTS: Fermi energy: -3.981111; 62.000000 electrons
         Band energy:-505.135358;  BLOECHL correction: -0.004634
       DOS:  cpu time    0.0040: real time    0.0070
    CHARGE:  cpu time    2.1240: real time    2.1290
    MIXING:  cpu time    0.0560: real time    0.0531
    --------------------------------------------
      LOOP:  cpu time   80.8520: real time   81.1910

 eigenvalue-minimisations  :  1168
 total energy-change (2. order) : 0.1054692E+02  (-0.3131831E+01)
 number of electron      61.9999987 magnetization       8.9696201
 augmentation part        2.6126732 magnetization       6.9617014

 Broyden mixing:
  rms(total) = 0.48566E+00    rms(broyden)= 0.48512E+00
  rms(prec ) = 0.50005E+00
  weight for this iteration     100.00

 eigenvalues of (default mixing * dielectric matrix)
  average eigenvalue GAMMA=   0.3759
  0.4345  0.4345  0.2588

 Free energy of the ion-electron system (eV)
  ---------------------------------------------------
  alpha Z        PSCENC =        38.63741427
  Ewald energy   TEWEN  =      7529.91642125
  -Hartree energ DENC   =    -10511.37052964
  -exchange      EXHF   =         0.00000000
  -V(xc)+E(xc)   XCENC  =         3.00161574
  PAW double counting   =      1954.42395867    -1938.44370231
  entropy T*S    EENTRO =         0.00000000
  eigenvalues    EBANDS =      -505.13535801
  atomic energy  EATOM  =      3393.14552885
  Solvation  Ediel_sol  =         0.00000000
  ---------------------------------------------------
  free energy    TOTEN  =       -35.82465117 eV

  energy without entropy =      -35.82465117  energy(sigma->0) =      -35.82465117


--------------------------------------------------------------------------------------------------------




--------------------------------------- Iteration      1(   9)  ---------------------------------------


    POTLOK:  cpu time   51.8680: real time   52.0720
    SETDIJ:  cpu time    0.0480: real time    0.0476
     EDDAV:  cpu time   27.7400: real time   27.8650
 BZINTS: Fermi energy: -4.108212; 62.000000 electrons
         Band energy:-508.050961;  BLOECHL correction: -0.005785
       DOS:  cpu time    0.0040: real time    0.0073
    CHARGE:  cpu time    2.0120: real time    2.1051
    MIXING:  cpu time    0.0440: real time    0.0445
    --------------------------------------------
      LOOP:  cpu time   81.7160: real time   82.1415

 eigenvalue-minimisations  :  1200
 total energy-change (2. order) :-0.5025491E+00  (-0.3856350E+00)
 number of electron      61.9999986 magnetization       9.0333394
 augmentation part        3.0163277 magnetization       7.8595804

 Broyden mixing:
  rms(total) = 0.60402E+00    rms(broyden)= 0.60393E+00
  rms(prec ) = 0.62214E+00
  weight for this iteration     100.00

 eigenvalues of (default mixing * dielectric matrix)
  average eigenvalue GAMMA=   0.3539
  0.4174  0.4174  0.3820  0.1986

 Free energy of the ion-electron system (eV)
  ---------------------------------------------------
  alpha Z        PSCENC =        38.63741427
  Ewald energy   TEWEN  =      7529.91642125
  -Hartree energ DENC   =    -10509.30101401
  -exchange      EXHF   =         0.00000000
  -V(xc)+E(xc)   XCENC  =         2.96548351
  PAW double counting   =      1952.87517995    -1936.51525308
  entropy T*S    EENTRO =         0.00000000
  eigenvalues    EBANDS =      -508.05096104
  atomic energy  EATOM  =      3393.14552885
  Solvation  Ediel_sol  =         0.00000000
  ---------------------------------------------------
  free energy    TOTEN  =       -36.32720030 eV

  energy without entropy =      -36.32720030  energy(sigma->0) =      -36.32720030


--------------------------------------------------------------------------------------------------------




--------------------------------------- Iteration      1(  10)  ---------------------------------------


    POTLOK:  cpu time   50.5080: real time   52.5034
    SETDIJ:  cpu time    0.0640: real time    0.0628
     EDDAV:  cpu time   31.4480: real time   32.5317
 BZINTS: Fermi energy: -4.141053; 62.000000 electrons
         Band energy:-510.654788;  BLOECHL correction: -0.004874
       DOS:  cpu time    0.0040: real time    0.0073
    CHARGE:  cpu time    2.1200: real time    2.1338
    MIXING:  cpu time    0.0440: real time    0.0470
    --------------------------------------------
      LOOP:  cpu time   84.1880: real time   87.2861

 eigenvalue-minimisations  :  1424
 total energy-change (2. order) :-0.2442423E+00  (-0.1407388E+00)
 number of electron      61.9999987 magnetization       9.1036125
 augmentation part        3.1761369 magnetization       7.9084627

 Broyden mixing:
  rms(total) = 0.14272E+01    rms(broyden)= 0.14270E+01
  rms(prec ) = 0.15210E+01
  weight for this iteration     100.00

 eigenvalues of (default mixing * dielectric matrix)
  average eigenvalue GAMMA=   0.3572
  0.5097  0.4094  0.4094  0.4212  0.0364

 Free energy of the ion-electron system (eV)
  ---------------------------------------------------
  alpha Z        PSCENC =        38.63741427
  Ewald energy   TEWEN  =      7529.91642125
  -Hartree energ DENC   =    -10507.09906130
  -exchange      EXHF   =         0.00000000
  -V(xc)+E(xc)   XCENC  =         2.98798358
  PAW double counting   =      1948.72776164    -1932.23270257
  entropy T*S    EENTRO =         0.00000000
  eigenvalues    EBANDS =      -510.65478830
  atomic energy  EATOM  =      3393.14552885
  Solvation  Ediel_sol  =         0.00000000
  ---------------------------------------------------
  free energy    TOTEN  =       -36.57144257 eV

  energy without entropy =      -36.57144257  energy(sigma->0) =      -36.57144257


--------------------------------------------------------------------------------------------------------




--------------------------------------- Iteration      1(  11)  ---------------------------------------


    POTLOK:  cpu time   51.5920: real time   52.2919
    SETDIJ:  cpu time    0.0440: real time    0.0446
     EDDAV:  cpu time   27.7160: real time   28.5444
 BZINTS: Fermi energy: -4.301133; 62.000000 electrons
         Band energy:-515.296356;  BLOECHL correction: -0.010111
       DOS:  cpu time    0.0080: real time    0.0073
    CHARGE:  cpu time    2.0320: real time    2.0689
    MIXING:  cpu time    0.0400: real time    0.0429
    --------------------------------------------
      LOOP:  cpu time   81.4320: real time   82.9999

 eigenvalue-minimisations  :  1232
 total energy-change (2. order) :-0.1207725E+00  (-0.1856451E+00)
 number of electron      61.9999986 magnetization       9.1126725
 augmentation part        4.1252830 magnetization       8.7418418

 Broyden mixing:
  rms(total) = 0.14757E+01    rms(broyden)= 0.14756E+01
  rms(prec ) = 0.15475E+01
  weight for this iteration     100.00

 eigenvalues of (default mixing * dielectric matrix)
  average eigenvalue GAMMA=   0.2987
  0.5109  0.4060  0.4060  0.3337  0.0957  0.0398

 Free energy of the ion-electron system (eV)
  ---------------------------------------------------
  alpha Z        PSCENC =        38.63741427
  Ewald energy   TEWEN  =      7529.91642125
  -Hartree energ DENC   =    -10502.93872583
  -exchange      EXHF   =         0.00000000
  -V(xc)+E(xc)   XCENC  =         3.02623524
  PAW double counting   =      1941.64274037    -1924.82547334
  entropy T*S    EENTRO =         0.00000000
  eigenvalues    EBANDS =      -515.29635584
  atomic energy  EATOM  =      3393.14552885
  Solvation  Ediel_sol  =         0.00000000
  ---------------------------------------------------
  free energy    TOTEN  =       -36.69221503 eV

  energy without entropy =      -36.69221503  energy(sigma->0) =      -36.69221503


--------------------------------------------------------------------------------------------------------




--------------------------------------- Iteration      1(  12)  ---------------------------------------


    POTLOK:  cpu time   51.3160: real time   52.7785
    SETDIJ:  cpu time    0.0520: real time    0.0540
     EDDAV:  cpu time   28.5000: real time   28.9686
 BZINTS: Fermi energy: -4.331981; 62.000000 electrons
         Band energy:-516.159492;  BLOECHL correction: -0.013804
       DOS:  cpu time    0.0080: real time    0.0075
    CHARGE:  cpu time    2.0920: real time    2.0938
    MIXING:  cpu time    0.0480: real time    0.0493
    --------------------------------------------
      LOOP:  cpu time   82.0160: real time   83.9517

 eigenvalue-minimisations  :  1248
 total energy-change (2. order) :-0.1359948E+00  (-0.1032654E-01)
 number of electron      61.9999986 magnetization       9.0443387
 augmentation part        4.3191113 magnetization       8.6832940

 Broyden mixing:
  rms(total) = 0.15871E+01    rms(broyden)= 0.15871E+01
  rms(prec ) = 0.16683E+01
  weight for this iteration     100.00

 eigenvalues of (default mixing * dielectric matrix)
  average eigenvalue GAMMA=   0.3486
  0.4066  0.4066  0.5282  0.4215  0.4215  0.2142  0.0414

 Free energy of the ion-electron system (eV)
  ---------------------------------------------------
  alpha Z        PSCENC =        38.63741427
  Ewald energy   TEWEN  =      7529.91642125
  -Hartree energ DENC   =    -10502.22489346
  -exchange      EXHF   =         0.00000000
  -V(xc)+E(xc)   XCENC  =         3.03981724
  PAW double counting   =      1940.03652846    -1923.21953430
  entropy T*S    EENTRO =         0.00000000
  eigenvalues    EBANDS =      -516.15949214
  atomic energy  EATOM  =      3393.14552885
  Solvation  Ediel_sol  =         0.00000000
  ---------------------------------------------------
  free energy    TOTEN  =       -36.82820983 eV

  energy without entropy =      -36.82820983  energy(sigma->0) =      -36.82820983


--------------------------------------------------------------------------------------------------------




--------------------------------------- Iteration      1(  13)  ---------------------------------------


    POTLOK:  cpu time   52.3520: real time   52.3778
    SETDIJ:  cpu time    0.0640: real time    0.0656
     EDDAV:  cpu time   24.7360: real time   24.8499
 BZINTS: Fermi energy: -4.308612; 62.000000 electrons
         Band energy:-514.947055;  BLOECHL correction: -0.013364
       DOS:  cpu time    0.0080: real time    0.0081
    CHARGE:  cpu time    2.0880: real time    2.0896
    MIXING:  cpu time    0.0440: real time    0.0465
    --------------------------------------------
      LOOP:  cpu time   79.2920: real time   79.4375

 eigenvalue-minimisations  :  1056
 total energy-change (2. order) : 0.8319857E-01  (-0.5909900E-02)
 number of electron      61.9999986 magnetization       8.7513588
 augmentation part        4.2186043 magnetization       8.3990769

 Broyden mixing:
  rms(total) = 0.15173E+01    rms(broyden)= 0.15173E+01
  rms(prec ) = 0.15940E+01
  weight for this iteration     100.00

 eigenvalues of (default mixing * dielectric matrix)
  average eigenvalue GAMMA=   0.4603
  0.7449  0.7449  0.4615  0.4615  0.5149  0.3570  0.3570  0.0412

 Free energy of the ion-electron system (eV)
  ---------------------------------------------------
  alpha Z        PSCENC =        38.63741427
  Ewald energy   TEWEN  =      7529.91642125
  -Hartree energ DENC   =    -10503.34599943
  -exchange      EXHF   =         0.00000000
  -V(xc)+E(xc)   XCENC  =         3.04196363
  PAW double counting   =      1942.80288429    -1925.99616947
  entropy T*S    EENTRO =         0.00000000
  eigenvalues    EBANDS =      -514.94705464
  atomic energy  EATOM  =      3393.14552885
  Solvation  Ediel_sol  =         0.00000000
  ---------------------------------------------------
  free energy    TOTEN  =       -36.74501125 eV

  energy without entropy =      -36.74501125  energy(sigma->0) =      -36.74501125


--------------------------------------------------------------------------------------------------------




--------------------------------------- Iteration      1(  14)  ---------------------------------------


    POTLOK:  cpu time   51.9960: real time   52.0880
    SETDIJ:  cpu time    0.0480: real time    0.0471
     EDDAV:  cpu time   28.1880: real time   28.2201
 BZINTS: Fermi energy: -4.248565; 62.000000 electrons
         Band energy:-513.721418;  BLOECHL correction: -0.010991
       DOS:  cpu time    0.0040: real time    0.0070
    CHARGE:  cpu time    2.1040: real time    2.1061
    MIXING:  cpu time    0.0520: real time    0.0508
    --------------------------------------------
      LOOP:  cpu time   82.3920: real time   82.5190

 eigenvalue-minimisations  :  1216
 total energy-change (2. order) :-0.2163405E+00  (-0.7128839E-01)
 number of electron      61.9999986 magnetization       8.2188656
 augmentation part        4.0673766 magnetization       7.8508696

 Broyden mixing:
  rms(total) = 0.15898E+01    rms(broyden)= 0.15898E+01
  rms(prec ) = 0.16767E+01
  weight for this iteration     100.00

 eigenvalues of (default mixing * dielectric matrix)
  average eigenvalue GAMMA=   0.5635
  1.1224  1.1224  0.4842  0.4842  0.4196  0.4196  0.5609  0.4175  0.0412

 Free energy of the ion-electron system (eV)
  ---------------------------------------------------
  alpha Z        PSCENC =        38.63741427
  Ewald energy   TEWEN  =      7529.91642125
  -Hartree energ DENC   =    -10505.04161549
  -exchange      EXHF   =         0.00000000
  -V(xc)+E(xc)   XCENC  =         3.10644913
  PAW double counting   =      1947.06230063    -1930.06643232
  entropy T*S    EENTRO =         0.00000000
  eigenvalues    EBANDS =      -513.72141813
  atomic energy  EATOM  =      3393.14552885
  Solvation  Ediel_sol  =         0.00000000
  ---------------------------------------------------
  free energy    TOTEN  =       -36.96135180 eV

  energy without entropy =      -36.96135180  energy(sigma->0) =      -36.96135180


--------------------------------------------------------------------------------------------------------




--------------------------------------- Iteration      1(  15)  ---------------------------------------


    POTLOK:  cpu time   52.2320: real time   52.2869
    SETDIJ:  cpu time    0.0440: real time    0.0450
     EDDAV:  cpu time   38.7560: real time   38.9651
 BZINTS: Fermi energy: -4.116185; 62.000000 electrons
         Band energy:-685.758374;  BLOECHL correction: -0.006071
       DOS:  cpu time    0.0080: real time    0.0074
    CHARGE:  cpu time    2.0840: real time    2.0852
    MIXING:  cpu time    0.0520: real time    0.0498
    --------------------------------------------
      LOOP:  cpu time   93.1760: real time   93.4395

 eigenvalue-minimisations  :  1728
 total energy-change (2. order) :-0.1772499E+03  (-0.1500648E+03)
 number of electron      61.9999987 magnetization       8.2098037
 augmentation part        3.0189280 magnetization       8.3638020

 Broyden mixing:
  rms(total) = 0.20697E+01    rms(broyden)= 0.20631E+01
  rms(prec ) = 0.21927E+01
  weight for this iteration     100.00

 eigenvalues of (default mixing * dielectric matrix)
  average eigenvalue GAMMA=   0.5086
  1.1248  1.1248  0.4836  0.4836  0.4196  0.4196  0.5617  0.4163  0.0412  0.0103

 Free energy of the ion-electron system (eV)
  ---------------------------------------------------
  alpha Z        PSCENC =        38.63741427
  Ewald energy   TEWEN  =      7529.91642125
  -Hartree energ DENC   =    -10510.24146694
  -exchange      EXHF   =         0.00000000
  -V(xc)+E(xc)   XCENC  =         3.42901627
  PAW double counting   =      1956.52095602    -1939.86076479
  entropy T*S    EENTRO =         0.00000000
  eigenvalues    EBANDS =      -685.75837422
  atomic energy  EATOM  =      3393.14552885
  Solvation  Ediel_sol  =         0.00000000
  ---------------------------------------------------
  free energy    TOTEN  =      -214.21126929 eV

  energy without entropy =     -214.21126929  energy(sigma->0) =     -214.21126929


--------------------------------------------------------------------------------------------------------




--------------------------------------- Iteration      1(  16)  ---------------------------------------


    POTLOK:  cpu time   51.7760: real time   51.8692
    SETDIJ:  cpu time    0.0440: real time    0.0464
     EDDAV:  cpu time   27.5320: real time   27.7547
 BZINTS: Fermi energy: -4.060497; 62.000000 electrons
         Band energy:-508.481162;  BLOECHL correction: -0.007218
       DOS:  cpu time    0.0040: real time    0.0077
    CHARGE:  cpu time    2.0960: real time    2.1089
    MIXING:  cpu time    0.0480: real time    0.0486
    --------------------------------------------
      LOOP:  cpu time   81.5040: real time   81.8355

 eigenvalue-minimisations  :  1200
 total energy-change (2. order) : 0.1777461E+03  (-0.6669797E+02)
 number of electron      61.9999987 magnetization       7.6944815
 augmentation part        3.4458875 magnetization       6.8091535

 Broyden mixing:
  rms(total) = 0.15463E+01    rms(broyden)= 0.15407E+01
  rms(prec ) = 0.16371E+01
  weight for this iteration     100.00

 eigenvalues of (default mixing * dielectric matrix)
  average eigenvalue GAMMA=   0.5631
  1.3065  1.3065  0.5040  0.5040  0.4346  0.4346  0.5392  0.5392  0.5729  0.0412
  0.0114

 Free energy of the ion-electron system (eV)
  ---------------------------------------------------
  alpha Z        PSCENC =        38.63741427
  Ewald energy   TEWEN  =      7529.91642125
  -Hartree energ DENC   =    -10510.03869114
  -exchange      EXHF   =         0.00000000
  -V(xc)+E(xc)   XCENC  =         3.65599005
  PAW double counting   =      1956.35536079    -1939.65601111
  entropy T*S    EENTRO =         0.00000000
  eigenvalues    EBANDS =      -508.48116243
  atomic energy  EATOM  =      3393.14552885
  Solvation  Ediel_sol  =         0.00000000
  ---------------------------------------------------
  free energy    TOTEN  =       -36.46514948 eV

  energy without entropy =      -36.46514948  energy(sigma->0) =      -36.46514948


--------------------------------------------------------------------------------------------------------




--------------------------------------- Iteration      1(  17)  ---------------------------------------


    POTLOK:  cpu time   50.6760: real time   52.0640
    SETDIJ:  cpu time    0.0440: real time    0.0457
     EDDAV:  cpu time   25.2360: real time   25.5055
 BZINTS: Fermi energy: -4.128442; 62.000000 electrons
         Band energy:-508.452862;  BLOECHL correction: -0.007932
       DOS:  cpu time    0.0040: real time    0.0066
    CHARGE:  cpu time    2.0920: real time    2.0971
    MIXING:  cpu time    0.0600: real time    0.0609
    --------------------------------------------
      LOOP:  cpu time   78.1080: real time   79.7798

 eigenvalue-minimisations  :  1088
 total energy-change (2. order) :-0.2077079E+00  (-0.1898808E+00)
 number of electron      61.9999986 magnetization       7.1546428
 augmentation part        4.0272343 magnetization       7.0301331

 Broyden mixing:
  rms(total) = 0.12948E+01    rms(broyden)= 0.12944E+01
  rms(prec ) = 0.13560E+01
  weight for this iteration     100.00

 eigenvalues of (default mixing * dielectric matrix)
  average eigenvalue GAMMA=   0.6291
  1.3618  1.3618  0.5292  0.5292  0.9486  0.7490  0.7490  0.4214  0.4214  0.4249
  0.0412  0.0114

 Free energy of the ion-electron system (eV)
  ---------------------------------------------------
  alpha Z        PSCENC =        38.63741427
  Ewald energy   TEWEN  =      7529.91642125
  -Hartree energ DENC   =    -10510.31887060
  -exchange      EXHF   =         0.00000000
  -V(xc)+E(xc)   XCENC  =         3.59671947
  PAW double counting   =      1957.40425121    -1940.60145975
  entropy T*S    EENTRO =         0.00000000
  eigenvalues    EBANDS =      -508.45286213
  atomic energy  EATOM  =      3393.14552885
  Solvation  Ediel_sol  =         0.00000000
  ---------------------------------------------------
  free energy    TOTEN  =       -36.67285742 eV

  energy without entropy =      -36.67285742  energy(sigma->0) =      -36.67285742


--------------------------------------------------------------------------------------------------------




--------------------------------------- Iteration      1(  18)  ---------------------------------------


    POTLOK:  cpu time   51.8200: real time   52.0133
    SETDIJ:  cpu time    0.0960: real time    0.0956
     EDDAV:  cpu time   28.4760: real time   28.5548
 BZINTS: Fermi energy: -4.131815; 62.000000 electrons
         Band energy:-508.780886;  BLOECHL correction: -0.010971
       DOS:  cpu time    0.0040: real time    0.0070
    CHARGE:  cpu time    2.0640: real time    2.0729
    MIXING:  cpu time    0.0560: real time    0.0535
    --------------------------------------------
      LOOP:  cpu time   82.5160: real time   82.7971

 eigenvalue-minimisations  :  1232
 total energy-change (2. order) :-0.3405241E+00  (-0.4900232E-01)
 number of electron      61.9999986 magnetization       6.6956026
 augmentation part        4.2326856 magnetization       6.7455527

 Broyden mixing:
  rms(total) = 0.13970E+01    rms(broyden)= 0.13969E+01
  rms(prec ) = 0.14781E+01
  weight for this iteration     100.00

 eigenvalues of (default mixing * dielectric matrix)
  average eigenvalue GAMMA=   0.6788
  1.9400  1.2692  1.2692  0.5235  0.5235  0.7228  0.7228  0.4230  0.4230  0.4772
  0.4772  0.0412  0.0114

 Free energy of the ion-electron system (eV)
  ---------------------------------------------------
  alpha Z        PSCENC =        38.63741427
  Ewald energy   TEWEN  =      7529.91642125
  -Hartree energ DENC   =    -10510.50844330
  -exchange      EXHF   =         0.00000000
  -V(xc)+E(xc)   XCENC  =         3.50156558
  PAW double counting   =      1957.83249737    -1940.75747927
  entropy T*S    EENTRO =         0.00000000
  eigenvalues    EBANDS =      -508.78088626
  atomic energy  EATOM  =      3393.14552885
  Solvation  Ediel_sol  =         0.00000000
  ---------------------------------------------------
  free energy    TOTEN  =       -37.01338151 eV

  energy without entropy =      -37.01338151  energy(sigma->0) =      -37.01338151


--------------------------------------------------------------------------------------------------------




--------------------------------------- Iteration      1(  19)  ---------------------------------------


    POTLOK:  cpu time   52.1000: real time   52.2522
    SETDIJ:  cpu time    0.0440: real time    0.0462
     EDDAV:  cpu time   29.0400: real time   29.9111
 BZINTS: Fermi energy: -4.148223; 62.000000 electrons
         Band energy:-508.004669;  BLOECHL correction: -0.012208
       DOS:  cpu time    0.0040: real time    0.0062
    CHARGE:  cpu time    2.0400: real time    2.0965
    MIXING:  cpu time    0.0520: real time    0.0546
    --------------------------------------------
      LOOP:  cpu time   83.2800: real time   84.3668

 eigenvalue-minimisations  :  1296
 total energy-change (2. order) :-0.4938896E-01  (-0.3283338E-01)
 number of electron      61.9999986 magnetization       6.5106197
 augmentation part        4.3528028 magnetization       6.7088406

 Broyden mixing:
  rms(total) = 0.14893E+01    rms(broyden)= 0.14893E+01
  rms(prec ) = 0.15717E+01
  weight for this iteration     100.00

 eigenvalues of (default mixing * dielectric matrix)
  average eigenvalue GAMMA=   0.6472
  1.2837  1.2837  1.6218  0.5204  0.5204  0.7674  0.7674  0.4271  0.4271  0.5147
  0.5147  0.3599  0.0412  0.0114

 Free energy of the ion-electron system (eV)
  ---------------------------------------------------
  alpha Z        PSCENC =        38.63741427
  Ewald energy   TEWEN  =      7529.91642125
  -Hartree energ DENC   =    -10511.40850134
  -exchange      EXHF   =         0.00000000
  -V(xc)+E(xc)   XCENC  =         3.43581245
  PAW double counting   =      1959.70337369    -1942.48815070
  entropy T*S    EENTRO =         0.00000000
  eigenvalues    EBANDS =      -508.00466893
  atomic energy  EATOM  =      3393.14552885
  Solvation  Ediel_sol  =         0.00000000
  ---------------------------------------------------
  free energy    TOTEN  =       -37.06277046 eV

  energy without entropy =      -37.06277046  energy(sigma->0) =      -37.06277046


--------------------------------------------------------------------------------------------------------




--------------------------------------- Iteration      1(  20)  ---------------------------------------


    POTLOK:  cpu time   51.7440: real time   52.2554
    SETDIJ:  cpu time    0.0440: real time    0.0466
     EDDAV:  cpu time   27.0560: real time   27.0887
 BZINTS: Fermi energy: -4.098150; 62.000000 electrons
         Band energy:-506.398858;  BLOECHL correction: -0.005763
       DOS:  cpu time    0.0080: real time    0.0075
    CHARGE:  cpu time    2.0960: real time    2.1047
    MIXING:  cpu time    0.0560: real time    0.0573
    --------------------------------------------
      LOOP:  cpu time   81.0040: real time   81.5601

 eigenvalue-minimisations  :  1168
 total energy-change (2. order) :-0.1645438E+00  (-0.1993533E+00)
 number of electron      61.9999987 magnetization       6.4849292
 augmentation part        4.1136279 magnetization       6.6136686

 Broyden mixing:
  rms(total) = 0.14963E+01    rms(broyden)= 0.14961E+01
  rms(prec ) = 0.15783E+01
  weight for this iteration     100.00

 eigenvalues of (default mixing * dielectric matrix)
  average eigenvalue GAMMA=   0.6051
  1.2820  1.2820  1.5973  0.5199  0.5199  0.7710  0.7710  0.4281  0.4281  0.5031
  0.5031  0.3376  0.0412  0.0815  0.0114

 Free energy of the ion-electron system (eV)
  ---------------------------------------------------
  alpha Z        PSCENC =        38.63741427
  Ewald energy   TEWEN  =      7529.91642125
  -Hartree energ DENC   =    -10512.91020235
  -exchange      EXHF   =         0.00000000
  -V(xc)+E(xc)   XCENC  =         3.25457753
  PAW double counting   =      1961.50434606    -1944.37654170
  entropy T*S    EENTRO =         0.00000000
  eigenvalues    EBANDS =      -506.39885817
  atomic energy  EATOM  =      3393.14552885
  Solvation  Ediel_sol  =         0.00000000
  ---------------------------------------------------
  free energy    TOTEN  =       -37.22731426 eV

  energy without entropy =      -37.22731426  energy(sigma->0) =      -37.22731426


--------------------------------------------------------------------------------------------------------




--------------------------------------- Iteration      1(  21)  ---------------------------------------


    POTLOK:  cpu time   51.8480: real time   52.2336
    SETDIJ:  cpu time    0.0520: real time    0.0502
     EDDAV:  cpu time   24.3680: real time   24.8199
 BZINTS: Fermi energy: -4.078084; 62.000000 electrons
         Band energy:-505.954936;  BLOECHL correction: -0.005232
       DOS:  cpu time    0.0080: real time    0.0051
    CHARGE:  cpu time    2.0600: real time    2.0692
    MIXING:  cpu time    0.0560: real time    0.0573
    --------------------------------------------
      LOOP:  cpu time   78.3920: real time   79.2353

 eigenvalue-minimisations  :  1056
 total energy-change (2. order) : 0.3835037E+00  (-0.1559767E+01)
 number of electron      61.9999986 magnetization       6.3559939
 augmentation part        4.0644021 magnetization       6.3712350

 Broyden mixing:
  rms(total) = 0.15098E+01    rms(broyden)= 0.15097E+01
  rms(prec ) = 0.15949E+01
  weight for this iteration     100.00

 eigenvalues of (default mixing * dielectric matrix)
  average eigenvalue GAMMA=   0.5839
  1.5434  1.2750  1.2750  0.7731  0.7731  0.5168  0.5168  0.4692  0.4692  0.4249
  0.4249  0.3306  0.3306  0.0412  0.1670  0.0114

 Free energy of the ion-electron system (eV)
  ---------------------------------------------------
  alpha Z        PSCENC =        38.63741427
  Ewald energy   TEWEN  =      7529.91642125
  -Hartree energ DENC   =    -10512.96510571
  -exchange      EXHF   =         0.00000000
  -V(xc)+E(xc)   XCENC  =         3.24710219
  PAW double counting   =      1961.51557172    -1944.38580705
  entropy T*S    EENTRO =         0.00000000
  eigenvalues    EBANDS =      -505.95493607
  atomic energy  EATOM  =      3393.14552885
  Solvation  Ediel_sol  =         0.00000000
  ---------------------------------------------------
  free energy    TOTEN  =       -36.84381055 eV

  energy without entropy =      -36.84381055  energy(sigma->0) =      -36.84381055


--------------------------------------------------------------------------------------------------------




--------------------------------------- Iteration      1(  22)  ---------------------------------------


    POTLOK:  cpu time   51.5760: real time   52.5931
    SETDIJ:  cpu time    0.0640: real time    0.0645
     EDDAV:  cpu time   28.9960: real time   29.3984
 BZINTS: Fermi energy: -4.063617; 62.000000 electrons
         Band energy:-505.155019;  BLOECHL correction: -0.005042
       DOS:  cpu time    0.0080: real time    0.0068
    CHARGE:  cpu time    2.0560: real time    2.0704
    MIXING:  cpu time    0.0600: real time    0.0590
    --------------------------------------------
      LOOP:  cpu time   82.7600: real time   84.1923

 eigenvalue-minimisations  :  1280
 total energy-change (2. order) :-0.1376805E+00  (-0.1857744E+00)
 number of electron      61.9999987 magnetization       5.9775840
 augmentation part        3.9613400 magnetization       6.0347627

 Broyden mixing:
  rms(total) = 0.14779E+01    rms(broyden)= 0.14779E+01
  rms(prec ) = 0.15614E+01
  weight for this iteration     100.00

 eigenvalues of (default mixing * dielectric matrix)
  average eigenvalue GAMMA=   0.6489
  1.5622  1.2679  1.2679  0.9415  0.9415  0.5212  0.5212  0.7919  0.7919  0.4240
  0.4240  0.4899  0.4899  0.3914  0.0412  0.1517  0.0114

 Free energy of the ion-electron system (eV)
  ---------------------------------------------------
  alpha Z        PSCENC =        38.63741427
  Ewald energy   TEWEN  =      7529.91642125
  -Hartree energ DENC   =    -10513.84813254
  -exchange      EXHF   =         0.00000000
  -V(xc)+E(xc)   XCENC  =         3.21381298
[...]
     34      -1.6310      0.00000
     35      -1.3028      0.00000
     36      -0.6500      0.00000
     37      -0.0367      0.00000
     38       0.8332      0.00000
     39       1.0660      0.00000
     40       1.6512      0.00000
     41       1.7556      0.00000
     42       2.0636      0.00000
     43       2.1830      0.00000
     44       2.3041      0.00000
     45       2.8346      0.00000
     46       2.9348      0.00000
     47       3.3611      0.00000
     48       3.5574      0.00000

 k-point     5 :      -0.4000    0.2000    0.0000
  band No.  band energies     occupation 
      1     -16.4377      1.00000
      2     -16.4061      1.00000
      3     -15.9382      1.00000
      4     -15.7562      1.00000
      5     -15.7076      1.00000
      6     -15.4996      1.00000
      7     -11.3879      1.00000
      8      -9.5904      1.00000
      9      -7.9269      1.00000
     10      -7.4151      1.00000
     11      -7.3630      1.00000
     12      -6.9071      1.00000
     13      -6.5162      1.00000
     14      -6.4257      1.00000
     15      -6.1521      1.00000
     16      -5.6765      1.00000
     17      -5.6219      1.00000
     18      -5.6192      1.00000
     19      -5.5827      1.00000
     20      -5.2976      1.00000
     21      -5.1424      1.00000
     22      -4.4392      1.00000
     23      -4.2195      1.00000
     24      -4.2038      1.00000
     25      -4.0326      1.00000
     26      -3.6298      1.00000
     27      -3.5586      1.00000
     28      -3.4301      1.00000
     29      -3.3335      1.00000
     30      -3.2864      1.00000
     31      -3.2441      1.00000
     32      -2.0201      0.00000
     33      -1.8790      0.00000
     34      -1.7381      0.00000
     35      -1.2760      0.00000
     36      -1.1887      0.00000
     37      -0.1545      0.00000
     38       0.5602      0.00000
     39       0.7119      0.00000
     40       1.4531      0.00000
     41       1.5156      0.00000
     42       1.7719      0.00000
     43       2.6337      0.00000
     44       2.7483      0.00000
     45       2.8163      0.00000
     46       2.8199      0.00000
     47       3.2876      0.00000
     48       3.6514      0.00000


--------------------------------------------------------------------------------------------------------


 soft charge-density along one line, spin component           1
         0         1         2         3         4         5         6         7         8         9
 total charge-density along one line

 soft charge-density along one line, spin component           2
         0         1         2         3         4         5         6         7         8         9
 total charge-density along one line

 pseudopotential strength for first ion, spin component:           1
-10.240  -0.093  -0.000   0.011  -0.000   0.947   0.033   0.000
 -0.093 -10.363   0.000  -0.000   0.011   0.033   0.990  -0.000
 -0.000   0.000 -10.211   0.000   0.000   0.000  -0.000   0.936
  0.011  -0.000   0.000 -10.363   0.093  -0.004   0.000  -0.000
 -0.000   0.011   0.000   0.093 -10.240   0.000  -0.004  -0.000
  0.947   0.033   0.000  -0.004   0.000   0.688  -0.012  -0.000
  0.033   0.990  -0.000   0.000  -0.004  -0.012   0.672   0.000
  0.000  -0.000   0.936  -0.000  -0.000  -0.000   0.000   0.693
 -0.004   0.000  -0.000   0.990  -0.033   0.001  -0.000   0.000
  0.000  -0.004  -0.000  -0.033   0.947  -0.000   0.001   0.000
  0.000  -0.000   0.006  -0.000   0.000  -0.000  -0.000  -0.002
 -0.000   0.000  -0.001   0.000  -0.000   0.000  -0.000   0.000
 -0.001  -0.006   0.000  -0.000   0.001   0.000   0.002  -0.000
 -0.000  -0.000  -0.006  -0.000  -0.000  -0.000   0.000   0.002
  0.001  -0.000   0.000  -0.006   0.001   0.000  -0.000  -0.000
  0.001   0.003  -0.000   0.000  -0.001  -0.000  -0.001   0.000
  0.000   0.000   0.002   0.000   0.000  -0.000  -0.000  -0.001
 -0.001   0.000  -0.000   0.003  -0.001   0.000  -0.000   0.000
 pseudopotential strength for first ion, spin component:           2
-10.240  -0.093  -0.000   0.011  -0.000   0.947   0.033   0.000
 -0.093 -10.363   0.000  -0.000   0.011   0.033   0.990  -0.000
 -0.000   0.000 -10.211   0.000   0.000   0.000  -0.000   0.936
  0.011  -0.000   0.000 -10.363   0.093  -0.004   0.000  -0.000
 -0.000   0.011   0.000   0.093 -10.240   0.000  -0.004  -0.000
  0.947   0.033   0.000  -0.004   0.000   0.688  -0.012  -0.000
  0.033   0.990  -0.000   0.000  -0.004  -0.012   0.672   0.000
  0.000  -0.000   0.936  -0.000  -0.000  -0.000   0.000   0.693
 -0.004   0.000  -0.000   0.990  -0.033   0.001  -0.000   0.000
  0.000  -0.004  -0.000  -0.033   0.947  -0.000   0.001   0.000
  0.000  -0.000   0.006  -0.000   0.000  -0.000  -0.000  -0.002
 -0.000   0.000  -0.001   0.000  -0.000   0.000  -0.000   0.000
 -0.001  -0.006   0.000  -0.000   0.001   0.000   0.002  -0.000
 -0.000  -0.000  -0.006  -0.000  -0.000  -0.000   0.000   0.002
  0.001  -0.000   0.000  -0.006   0.001   0.000  -0.000  -0.000
  0.001   0.003  -0.000   0.000  -0.001  -0.000  -0.001   0.000
  0.000   0.000   0.002   0.000   0.000  -0.000  -0.000  -0.001
 -0.001   0.000  -0.000   0.003  -0.001   0.000  -0.000   0.000
 total augmentation occupancy for first ion, spin component:           1
  1.690  -0.309   0.000   0.033  -0.000   0.083   0.159   0.000  -0.020  -0.000  -0.000  -0.000  -0.013  -0.000   0.009   0.001
 -0.309   1.406  -0.000  -0.000   0.033   0.154   0.240   0.000  -0.000  -0.019   0.000  -0.000  -0.024   0.000   0.009   0.001
  0.000  -0.000   1.932  -0.000  -0.000   0.000   0.000  -0.046   0.000  -0.000  -0.016  -0.004  -0.000  -0.004  -0.000   0.000
  0.033  -0.000  -0.000   1.406   0.309  -0.019   0.000   0.000   0.240  -0.154   0.000   0.000  -0.009  -0.000  -0.024   0.000
 -0.000   0.033  -0.000   0.309   1.690   0.000  -0.020  -0.000  -0.159   0.083   0.000   0.000   0.009   0.000   0.013  -0.001
  0.083   0.154   0.000  -0.019   0.000   0.088   0.043   0.000  -0.006  -0.000   0.000  -0.000  -0.002  -0.000   0.024   0.000
  0.159   0.240   0.000   0.000  -0.020   0.043   0.143   0.000  -0.000  -0.006   0.000   0.000  -0.011   0.000  -0.006   0.001
  0.000   0.000  -0.046   0.000  -0.000   0.000   0.000   0.085   0.000  -0.000   0.038  -0.016  -0.000  -0.004   0.000   0.000
 -0.020  -0.000   0.000   0.240  -0.159  -0.006  -0.000   0.000   0.143  -0.043  -0.000  -0.000   0.006   0.000  -0.011  -0.000
 -0.000  -0.019  -0.000  -0.154   0.083  -0.000  -0.006  -0.000  -0.043   0.088  -0.000   0.000   0.024   0.000   0.002  -0.003
 -0.000  -0.000  -0.016   0.000   0.000   0.000   0.000   0.038  -0.000  -0.000   1.055  -0.302   0.000  -0.028   0.000  -0.000
 -0.000  -0.000  -0.004   0.000   0.000  -0.000   0.000  -0.016  -0.000   0.000  -0.302   0.153  -0.000   0.010   0.000   0.000
 -0.013  -0.024  -0.000  -0.009   0.009  -0.002  -0.011  -0.000   0.006   0.024   0.000   0.000   0.197  -0.000  -0.000  -0.014
 -0.000   0.000  -0.004  -0.000   0.000  -0.000   0.000  -0.004   0.000   0.000  -0.028   0.010  -0.000   0.206  -0.000   0.000
  0.009   0.009  -0.000  -0.024   0.013   0.024  -0.006   0.000  -0.011   0.002   0.000  -0.000  -0.000  -0.000   0.197   0.000
  0.001   0.001   0.000   0.000  -0.001   0.000   0.001   0.000  -0.000  -0.003  -0.000   0.000  -0.014   0.000   0.000   0.002
  0.000  -0.000   0.000  -0.000  -0.000   0.000   0.000   0.001  -0.000  -0.000   0.003  -0.002   0.000  -0.017   0.000  -0.000
 -0.001  -0.000  -0.000   0.001  -0.001  -0.003   0.000  -0.000   0.001  -0.000  -0.000  -0.000  -0.000   0.000  -0.014  -0.000
 total augmentation occupancy for first ion, spin component:           2
 -0.000  -0.000  -0.000   0.000   0.000   0.000   0.000   0.000   0.000   0.000  -0.000  -0.000  -0.000   0.000  -0.000  -0.000
 -0.000  -0.000  -0.000   0.000   0.000   0.000   0.000   0.000   0.000  -0.000   0.000   0.000  -0.000  -0.000   0.000  -0.000
 -0.000  -0.000  -0.000  -0.000   0.000   0.000   0.000   0.000   0.000  -0.000  -0.000  -0.000  -0.000   0.000  -0.000  -0.000
  0.000   0.000  -0.000  -0.000   0.000  -0.000  -0.000   0.000   0.000  -0.000  -0.000  -0.000  -0.000   0.000  -0.000  -0.000
 -0.000   0.000   0.000   0.000  -0.000  -0.000   0.000  -0.000  -0.000   0.000   0.000   0.000  -0.000  -0.000   0.000   0.000
  0.000   0.000   0.000  -0.000  -0.000   0.000   0.000   0.000  -0.000   0.000   0.000  -0.000  -0.000   0.000   0.000  -0.000
  0.000   0.000   0.000  -0.000   0.000   0.000   0.000   0.000  -0.000  -0.000   0.000   0.000  -0.000   0.000   0.000  -0.000
  0.000   0.000   0.000   0.000  -0.000   0.000   0.000  -0.000   0.000  -0.000   0.000  -0.000  -0.000   0.000  -0.000  -0.000
  0.000   0.000   0.000   0.000  -0.000  -0.000  -0.000   0.000   0.000  -0.000   0.000   0.000  -0.000  -0.000  -0.000  -0.000
  0.000  -0.000  -0.000  -0.000   0.000  -0.000  -0.000  -0.000  -0.000   0.000  -0.000   0.000   0.000  -0.000   0.000   0.000
 -0.000   0.000  -0.000   0.000   0.000   0.000   0.000   0.000   0.000  -0.000  -0.000   0.000   0.000  -0.000   0.000   0.000
 -0.000   0.000  -0.000  -0.000   0.000  -0.000   0.000  -0.000   0.000   0.000   0.000  -0.000   0.000  -0.000  -0.000   0.000
 -0.000  -0.000  -0.000  -0.000  -0.000  -0.000  -0.000  -0.000  -0.000   0.000   0.000   0.000  -0.000   0.000   0.000   0.000
  0.000   0.000   0.000   0.000  -0.000   0.000   0.000   0.000  -0.000  -0.000  -0.000  -0.000   0.000  -0.000   0.000  -0.000
 -0.000   0.000  -0.000  -0.000   0.000   0.000   0.000  -0.000  -0.000   0.000   0.000  -0.000   0.000   0.000  -0.000   0.000
 -0.000  -0.000  -0.000  -0.000   0.000  -0.000  -0.000  -0.000  -0.000   0.000   0.000   0.000   0.000  -0.000   0.000  -0.000
 -0.000   0.000  -0.000   0.000   0.000  -0.000   0.000  -0.000   0.000   0.000  -0.000   0.000  -0.000   0.000   0.000   0.000
  0.000   0.000   0.000  -0.000   0.000   0.000   0.000   0.000  -0.000   0.000  -0.000   0.000  -0.000   0.000   0.000   0.000


------------------------ aborting loop because EDIFF is reached ----------------------------------------





 total charge     

# of ion       s       p       d       tot
------------------------------------------
    1        0.377   0.454   7.388   8.219
    2        0.377   0.455   7.380   8.213
    3        1.167   1.158   0.095   2.419
    4        0.757   0.862   0.000   1.620
    5        1.485   2.276   0.048   3.809
    6        1.479   2.310   0.049   3.837
    7        1.484   2.283   0.049   3.816
    8        1.489   2.253   0.051   3.793
    9        1.486   2.286   0.049   3.821
   10        1.489   2.258   0.051   3.797
--------------------------------------------------
tot         11.591  16.594  15.159  43.344



 magnetization (x)

# of ion       s       p       d       tot
------------------------------------------
    1       -0.000  -0.000  -0.000  -0.000
    2       -0.000  -0.000  -0.000  -0.000
    3        0.000   0.000   0.000   0.000
    4        0.000  -0.000   0.000  -0.000
    5        0.000   0.000   0.000   0.000
    6       -0.000   0.000  -0.000   0.000
    7       -0.000   0.000   0.000   0.000
    8        0.000   0.000   0.000   0.000
    9        0.000   0.000   0.000   0.000
   10        0.000   0.000   0.000   0.000
--------------------------------------------------
tot         -0.000   0.000  -0.000  -0.000

    CHARGE:  cpu time    2.0440: real time    2.0617
    FORLOC:  cpu time    0.0640: real time    0.0632
    FORNL :  cpu time    6.7440: real time    6.8436
    STRESS:  cpu time   20.2240: real time   20.5304
    FORCOR:  cpu time   51.2520: real time   51.6978
    FORHAR:  cpu time    0.3400: real time    0.3380
    MIXING:  cpu time    0.0440: real time    0.0438
    OFIELD:  cpu time    0.0000: real time    0.0000

  FORCE on cell =-STRESS in cart. coord.  units (eV):
  Direction    XX          YY          ZZ          XY          YZ          ZX
  --------------------------------------------------------------------------------------
  Alpha Z    52.20908    52.20908    52.20908
  Ewald   11120.64532 11120.64330-13120.20559    -0.00224    -0.00053    -0.00095
  Hartree 11714.19841 11714.19942-11260.54427    -0.00044     0.00007     0.00011
  E(xc)    -255.70379  -255.70384  -255.42341     0.00006     0.00000     0.00001
  Local  -23567.78912-23567.78930 23619.32772     0.00226     0.00028     0.00053
  n-local   243.12666   243.08859   245.41759    -0.09231     0.63117     0.50403
  augment    66.18280    66.18291    62.35309     0.00003     0.00006     0.00003
  Kinetic   629.59909   624.06761   656.68161    -3.57774     1.40172     1.61411
  Fock        0.00000     0.00000     0.00000     0.00000     0.00000     0.00000
  -------------------------------------------------------------------------------------
  Total      -0.31689    -0.31689    -0.18419     0.00000    -0.00000    -0.00000
  in kB      -0.70811    -0.70811    -0.41158     0.00000    -0.00000    -0.00000
  external pressure =       -0.61 kB  Pullay stress =        0.00 kB


 VOLUME and BASIS-vectors are now :
 -----------------------------------------------------------------------------
  energy-cutoff  :      520.00
  volume of cell :      716.99
      direct lattice vectors                 reciprocal lattice vectors
     6.175715397 -0.000000087 -0.000000000     0.161924559 -0.093487185 -0.000000000
     3.087857435  5.348326128 -0.000000000     0.000000003  0.186974386  0.000000000
    -0.000000000 -0.000000000 21.707343025     0.000000000  0.000000000  0.046067361

  length of vectors
     6.175715397  6.175715012 21.707343025     0.186974374  0.186974386  0.046067361


 FORCES acting on ions
    electron-ion (+dipol)            ewald-force                    non-local-force                 convergence-correction
 -----------------------------------------------------------------------------------------------
   -.243E-04 -.327E-04 -.375E+01   0.687E-03 0.413E-03 0.379E+01   -.139E-16 -.150E-18 0.108E+00   -.677E-06 -.598E-06 -.313E-01
   0.208E-04 0.257E-04 -.402E+01   -.692E-03 -.416E-03 0.405E+01   0.139E-16 -.140E-18 0.100E+00   0.110E-05 0.219E-06 -.278E-01
   -.201E-04 -.263E-04 0.238E+03   -.173E-03 -.973E-04 -.235E+03   -.311E-16 0.120E-16 -.366E+01   -.782E-07 -.328E-07 -.824E-01
   0.412E-04 0.290E-04 -.247E+03   0.187E-03 0.105E-03 0.242E+03   0.137E-16 -.347E-16 0.502E+01   0.281E-07 -.681E-08 0.740E-01
   -.261E+02 -.871E-01 -.506E+03   0.238E+02 0.148E+00 0.508E+03   0.233E+01 0.285E-02 -.274E+01   0.251E-01 -.577E-01 0.151E+00
   0.130E+02 0.227E+02 -.506E+03   -.118E+02 -.207E+02 0.508E+03   -.116E+01 -.202E+01 -.274E+01   -.626E-01 0.709E-02 0.151E+00
   0.131E+02 -.226E+02 -.506E+03   -.120E+02 0.205E+02 0.508E+03   -.117E+01 0.202E+01 -.274E+01   0.374E-01 0.506E-01 0.151E+00
   0.339E+02 -.678E-02 0.511E+03   -.317E+02 0.713E-01 -.513E+03   -.220E+01 0.428E-02 0.272E+01   -.186E-01 -.634E-01 -.180E+00
   -.170E+02 -.294E+02 0.511E+03   0.159E+02 0.274E+02 -.513E+03   0.110E+01 0.190E+01 0.272E+01   -.456E-01 0.478E-01 -.180E+00
   -.170E+02 0.294E+02 0.511E+03   0.158E+02 -.275E+02 -.513E+03   0.110E+01 -.191E+01 0.272E+01   0.642E-01 0.156E-01 -.180E+00
 -----------------------------------------------------------------------------------------------
   0.401E-04 -.436E-04 -.137E+01   0.000E+00 0.178E-13 0.227E-12   0.000E+00 0.222E-15 0.152E+01   0.249E-06 -.484E-06 -.154E+00


 POSITION                                       TOTAL-FORCE (eV/Angst)
 -----------------------------------------------------------------------------------
      3.08785      1.78277     10.83735         0.000000     -0.000000      0.109711
      6.17572      3.56555     10.83811         0.000000     -0.000000      0.101921
     -0.00000     -0.00000      9.72958         0.000000     -0.000000     -0.071750
      0.00000     -0.00000     12.05861         0.000000      0.000000     -0.139725
      3.86519     -0.00048     12.37764         0.030730      0.006333     -0.085087
      1.15485      2.00122     12.37764        -0.009880     -0.029780     -0.085087
      4.24354      3.34759     12.37764        -0.020850      0.023446     -0.085087
      5.51262      5.34783      9.34860         0.020965      0.004838      0.085035
      8.05076      3.24867      9.34860        -0.006293     -0.020575      0.085035
      4.96376      2.10015      9.34860        -0.014672      0.015738      0.085035
 -----------------------------------------------------------------------------------
    total drift:                                0.000040     -0.000044     -0.007086


--------------------------------------------------------------------------------------------------------



  FREE ENERGIE OF THE ION-ELECTRON SYSTEM (eV)
  ---------------------------------------------------
  free  energy   TOTEN  =       -41.75561975 eV

  energy  without entropy=      -41.75561975  energy(sigma->0) =      -41.75561975

 d Force = 0.7939007E-03[-0.275E-03, 0.186E-02]  d Energy =-0.1607905E-02 0.240E-02
 d Force = 0.9839837E+00[ 0.998E+00, 0.970E+00]  d Ewald  =-0.5154188E+02 0.525E+02


--------------------------------------------------------------------------------------------------------


    POTLOK:  cpu time   51.7000: real time   52.0727


--------------------------------------------------------------------------------------------------------




--------------------------------------------------------------------------------------------------------


  
 reached required accuracy - stopping structural energy minimisation
     LOOP+:  cpu time  623.5800: real time  629.1644
    4ORBIT:  cpu time    0.0000: real time    0.0000



 total charge     

# of ion       s       p       d       tot
------------------------------------------
    1        0.377   0.454   7.388   8.219
    2        0.377   0.455   7.380   8.213
    3        1.167   1.158   0.095   2.419
    4        0.757   0.862   0.000   1.620
    5        1.485   2.276   0.048   3.809
    6        1.479   2.310   0.049   3.837
    7        1.484   2.283   0.049   3.816
    8        1.489   2.253   0.051   3.793
    9        1.486   2.286   0.049   3.821
   10        1.489   2.258   0.051   3.797
--------------------------------------------------
tot         11.591  16.594  15.159  43.344



 magnetization (x)

# of ion       s       p       d       tot
------------------------------------------
    1       -0.000  -0.000  -0.000  -0.000
    2       -0.000  -0.000  -0.000  -0.000
    3        0.000   0.000   0.000   0.000
    4        0.000  -0.000   0.000  -0.000
    5        0.000   0.000   0.000   0.000
    6       -0.000   0.000  -0.000   0.000
    7       -0.000   0.000   0.000   0.000
    8        0.000   0.000   0.000   0.000
    9        0.000   0.000   0.000   0.000
   10        0.000   0.000   0.000   0.000
--------------------------------------------------
tot         -0.000   0.000  -0.000  -0.000

 BZINTS: Fermi energy: -3.043384; 62.000000 electrons
         Band energy:-472.035630;  BLOECHL correction:  0.000000

 total amount of memory used by VASP MPI-rank0   132681. kBytes
=======================================================================

   base      :      30000. kBytes
   nonlr-proj:      10181. kBytes
   fftplans  :      11247. kBytes
   grid      :      68332. kBytes
   one-center:        311. kBytes
   wavefun   :      12610. kBytes

  
  
 General timing and accounting informations for this job:
 ========================================================
  
                  Total CPU time used (sec):    16411.016
                            User time (sec):    15994.608
                          System time (sec):      416.408
                         Elapsed time (sec):    16564.123
  
                   Maximum memory used (kb):      391060.
                   Average memory used (kb):           0.
  
                          Minor page faults:     14358534
                          Major page faults:            8
                 Voluntary context switches:          981
