  10  10   1   0
  0.9688350E+02  0.6907777E-09  0.6907777E-09  0.2344459E-08  0.5000000E-15
   1.0000000000000000E-004
  CAR 
 unknown system                          
      4.86821936    -17.96992719  301     -2.95384584      1.00000000
    -17.970  0.0000E+00  0.0000E+00  0.0000E+00  0.0000E+00
    -17.894  0.0000E+00  0.0000E+00  0.0000E+00  0.0000E+00
    -17.818  0.0000E+00  0.0000E+00  0.0000E+00  0.0000E+00
    -17.742  0.0000E+00  0.0000E+00  0.0000E+00  0.0000E+00
    -17.665  0.0000E+00  0.0000E+00  0.0000E+00  0.0000E+00
    -17.589  0.0000E+00  0.0000E+00  0.0000E+00  0.0000E+00
    -17.513  0.0000E+00  0.0000E+00  0.0000E+00  0.0000E+00
    -17.437  0.0000E+00  0.0000E+00  0.0000E+00  0.0000E+00
    -17.361  0.0000E+00  0.0000E+00  0.0000E+00  0.0000E+00
    -17.285  0.0000E+00  0.0000E+00  0.0000E+00  0.0000E+00
    -17.209  0.0000E+00  0.0000E+00  0.0000E+00  0.0000E+00
    -17.133  0.0000E+00  0.0000E+00  0.0000E+00  0.0000E+00
    -17.056  0.0000E+00  0.0000E+00  0.0000E+00  0.0000E+00
    -16.980  0.0000E+00  0.0000E+00  0.0000E+00  0.0000E+00
    -16.904  0.3341E-02  0.3572E-02  0.4515E-04  0.4944E-04
    -16.828  0.1275E-01  0.1340E-01  0.6576E-03  0.6953E-03
    -16.752  0.9596E-02  0.9888E-02  0.1579E-02  0.1624E-02
    -16.676  0.1054E-01  0.1088E-01  0.2345E-02  0.2415E-02
    -16.600  0.1148E-01  0.1187E-01  0.3183E-02  0.3281E-02
    -16.524  0.1241E-01  0.1282E-01  0.4093E-02  0.4222E-02
    -16.447  0.1293E-01  0.1350E-01  0.5058E-02  0.5224E-02
    -16.371  0.1992E-01  0.1993E-01  0.6274E-02  0.6580E-02
    -16.295  0.1588E-01  0.1552E-01  0.7636E-02  0.7929E-02
    -16.219  0.1184E-01  0.1111E-01  0.8691E-02  0.8943E-02
    -16.143  0.1478E-01  0.2368E-01  0.9544E-02  0.1024E-01
    -16.067  0.1308E-01  0.1455E-01  0.1137E-01  0.1196E-01
    -15.991  0.3867E-01  0.4877E-01  0.1299E-01  0.1423E-01
    -15.914  0.5532E-01  0.5272E-01  0.1657E-01  0.1844E-01
    -15.838  0.1662E-01  0.1409E-01  0.2018E-01  0.2025E-01
    -15.762  0.1668E-01  0.1922E-01  0.2076E-01  0.2152E-01
    -15.686  0.2193E-01  0.2436E-01  0.2223E-01  0.2317E-01
    -15.610  0.4544E-01  0.5494E-01  0.2492E-01  0.2730E-01
    -15.534  0.4398E-01  0.6584E-01  0.2912E-01  0.3183E-01
    -15.458  0.6343E-01  0.5347E-01  0.3385E-01  0.3664E-01
    -15.382  0.5425E-01  0.5872E-01  0.3820E-01  0.4091E-01
    -15.305  0.1243E+00  0.9657E-01  0.4395E-01  0.5074E-01
    -15.229  0.8152E-01  0.6903E-01  0.5324E-01  0.5725E-01
    -15.153  0.6644E-01  0.0000E+00  0.5931E-01  0.6061E-01
    -15.077  0.0000E+00  0.0000E+00  0.6061E-01  0.6061E-01
    -15.001  0.0000E+00  0.0000E+00  0.6061E-01  0.6061E-01
    -14.925  0.0000E+00  0.0000E+00  0.6061E-01  0.6061E-01
    -14.849  0.0000E+00  0.0000E+00  0.6061E-01  0.6061E-01
    -14.773  0.0000E+00  0.0000E+00  0.6061E-01  0.6061E-01
    -14.696  0.0000E+00  0.0000E+00  0.6061E-01  0.6061E-01
    -14.620  0.0000E+00  0.0000E+00  0.6061E-01  0.6061E-01
    -14.544  0.0000E+00  0.0000E+00  0.6061E-01  0.6061E-01
    -14.468  0.0000E+00  0.0000E+00  0.6061E-01  0.6061E-01
    -14.392  0.0000E+00  0.0000E+00  0.6061E-01  0.6061E-01
    -14.316  0.0000E+00  0.0000E+00  0.6061E-01  0.6061E-01
    -14.240  0.0000E+00  0.0000E+00  0.6061E-01  0.6061E-01
    -14.164  0.0000E+00  0.0000E+00  0.6061E-01  0.6061E-01
    -14.087  0.0000E+00  0.0000E+00  0.6061E-01  0.6061E-01
    -14.011  0.0000E+00  0.0000E+00  0.6061E-01  0.6061E-01
    -13.935  0.0000E+00  0.0000E+00  0.6061E-01  0.6061E-01
    -13.859  0.0000E+00  0.0000E+00  0.6061E-01  0.6061E-01
    -13.783  0.0000E+00  0.0000E+00  0.6061E-01  0.6061E-01
    -13.707  0.0000E+00  0.0000E+00  0.6061E-01  0.6061E-01
    -13.631  0.0000E+00  0.0000E+00  0.6061E-01  0.6061E-01
    -13.555  0.0000E+00  0.0000E+00  0.6061E-01  0.6061E-01
    -13.478  0.0000E+00  0.0000E+00  0.6061E-01  0.6061E-01
    -13.402  0.0000E+00  0.0000E+00  0.6061E-01  0.6061E-01
    -13.326  0.0000E+00  0.0000E+00  0.6061E-01  0.6061E-01
    -13.250  0.0000E+00  0.0000E+00  0.6061E-01  0.6061E-01
    -13.174  0.0000E+00  0.0000E+00  0.6061E-01  0.6061E-01
    -13.098  0.0000E+00  0.0000E+00  0.6061E-01  0.6061E-01
    -13.022  0.0000E+00  0.0000E+00  0.6061E-01  0.6061E-01
    -12.946  0.0000E+00  0.0000E+00  0.6061E-01  0.6061E-01
    -12.869  0.0000E+00  0.0000E+00  0.6061E-01  0.6061E-01
    -12.793  0.0000E+00  0.0000E+00  0.6061E-01  0.6061E-01
    -12.717  0.0000E+00  0.0000E+00  0.6061E-01  0.6061E-01
    -12.641  0.0000E+00  0.0000E+00  0.6061E-01  0.6061E-01
    -12.565  0.0000E+00  0.0000E+00  0.6061E-01  0.6061E-01
    -12.489  0.0000E+00  0.0000E+00  0.6061E-01  0.6061E-01
    -12.413  0.0000E+00  0.0000E+00  0.6061E-01  0.6061E-01
    -12.337  0.0000E+00  0.0000E+00  0.6061E-01  0.6061E-01
    -12.260  0.0000E+00  0.0000E+00  0.6061E-01  0.6061E-01
    -12.184  0.0000E+00  0.0000E+00  0.6061E-01  0.6061E-01
    -12.108  0.0000E+00  0.0000E+00  0.6061E-01  0.6061E-01
    -12.032  0.0000E+00  0.0000E+00  0.6061E-01  0.6061E-01
    -11.956  0.0000E+00  0.0000E+00  0.6061E-01  0.6061E-01
    -11.880  0.0000E+00  0.0000E+00  0.6061E-01  0.6061E-01
    -11.804  0.0000E+00  0.0000E+00  0.6061E-01  0.6061E-01
    -11.728  0.0000E+00  0.0000E+00  0.6061E-01  0.6061E-01
    -11.651  0.0000E+00  0.0000E+00  0.6061E-01  0.6061E-01
    -11.575  0.0000E+00  0.0000E+00  0.6061E-01  0.6061E-01
    -11.499  0.0000E+00  0.0000E+00  0.6061E-01  0.6061E-01
    -11.423  0.0000E+00  0.0000E+00  0.6061E-01  0.6061E-01
    -11.347  0.0000E+00  0.0000E+00  0.6061E-01  0.6061E-01
    -11.271  0.0000E+00  0.0000E+00  0.6061E-01  0.6061E-01
    -11.195  0.0000E+00  0.0000E+00  0.6061E-01  0.6061E-01
    -11.118  0.9671E-02  0.0000E+00  0.6064E-01  0.6061E-01
    -11.042  0.3769E-01  0.2594E-01  0.6312E-01  0.6183E-01
    -10.966  0.5907E-01  0.5153E-01  0.6722E-01  0.6478E-01
    -10.890  0.0000E+00  0.4268E-01  0.7071E-01  0.6937E-01
    -10.814  0.0000E+00  0.0000E+00  0.7071E-01  0.7071E-01
    -10.738  0.0000E+00  0.0000E+00  0.7071E-01  0.7071E-01
    -10.662  0.0000E+00  0.0000E+00  0.7071E-01  0.7071E-01
    -10.586  0.0000E+00  0.0000E+00  0.7071E-01  0.7071E-01
    -10.509  0.0000E+00  0.0000E+00  0.7071E-01  0.7071E-01
    -10.433  0.0000E+00  0.0000E+00  0.7071E-01  0.7071E-01
    -10.357  0.0000E+00  0.0000E+00  0.7071E-01  0.7071E-01
    -10.281  0.0000E+00  0.0000E+00  0.7071E-01  0.7071E-01
    -10.205  0.0000E+00  0.0000E+00  0.7071E-01  0.7071E-01
    -10.129  0.0000E+00  0.0000E+00  0.7071E-01  0.7071E-01
    -10.053  0.0000E+00  0.0000E+00  0.7071E-01  0.7071E-01
     -9.977  0.0000E+00  0.0000E+00  0.7071E-01  0.7071E-01
     -9.900  0.0000E+00  0.0000E+00  0.7071E-01  0.7071E-01
     -9.824  0.0000E+00  0.0000E+00  0.7071E-01  0.7071E-01
     -9.748  0.0000E+00  0.0000E+00  0.7071E-01  0.7071E-01
     -9.672  0.0000E+00  0.0000E+00  0.7071E-01  0.7071E-01
     -9.596  0.0000E+00  0.0000E+00  0.7071E-01  0.7071E-01
     -9.520  0.0000E+00  0.0000E+00  0.7071E-01  0.7071E-01
     -9.444  0.0000E+00  0.0000E+00  0.7071E-01  0.7071E-01
     -9.368  0.0000E+00  0.0000E+00  0.7071E-01  0.7071E-01
     -9.291  0.1174E+00  0.0000E+00  0.7356E-01  0.7071E-01
     -9.215  0.2814E-01  0.1037E+00  0.7857E-01  0.7316E-01
     -9.139  0.1092E-01  0.2968E-01  0.8006E-01  0.7864E-01
     -9.063  0.4878E-02  0.1070E-01  0.8066E-01  0.8012E-01
     -8.987  0.0000E+00  0.4325E-02  0.8081E-01  0.8070E-01
     -8.911  0.0000E+00  0.0000E+00  0.8081E-01  0.8081E-01
     -8.835  0.0000E+00  0.0000E+00  0.8081E-01  0.8081E-01
     -8.759  0.0000E+00  0.0000E+00  0.8081E-01  0.8081E-01
     -8.682  0.0000E+00  0.0000E+00  0.8081E-01  0.8081E-01
     -8.606  0.0000E+00  0.0000E+00  0.8081E-01  0.8081E-01
     -8.530  0.0000E+00  0.0000E+00  0.8081E-01  0.8081E-01
     -8.454  0.0000E+00  0.0000E+00  0.8081E-01  0.8081E-01
     -8.378  0.0000E+00  0.0000E+00  0.8081E-01  0.8081E-01
     -8.302  0.0000E+00  0.0000E+00  0.8081E-01  0.8081E-01
     -8.226  0.0000E+00  0.0000E+00  0.8081E-01  0.8081E-01
     -8.150  0.0000E+00  0.0000E+00  0.8081E-01  0.8081E-01
     -8.073  0.0000E+00  0.0000E+00  0.8081E-01  0.8081E-01
     -7.997  0.0000E+00  0.0000E+00  0.8081E-01  0.8081E-01
     -7.921  0.1750E-01  0.0000E+00  0.8094E-01  0.8081E-01
     -7.845  0.4927E-01  0.0000E+00  0.8483E-01  0.8081E-01
     -7.769  0.3742E-01  0.0000E+00  0.8865E-01  0.8081E-01
     -7.693  0.4174E-01  0.4410E-01  0.9256E-01  0.8214E-01
     -7.617  0.4135E-01  0.4224E-01  0.9454E-01  0.8802E-01
     -7.541  0.3360E-01  0.4287E-01  0.9746E-01  0.9126E-01
     -7.464  0.3098E-01  0.1854E-01  0.9990E-01  0.9487E-01
     -7.388  0.2919E-01  0.3167E-01  0.1022E+00  0.9793E-01
     -7.312  0.2984E-01  0.2761E-01  0.1044E+00  0.1002E+00
     -7.236  0.2772E-01  0.2437E-01  0.1071E+00  0.1021E+00
     -7.160  0.3531E-01  0.2577E-01  0.1095E+00  0.1040E+00
     -7.084  0.4262E-01  0.2623E-01  0.1127E+00  0.1061E+00
     -7.008  0.1057E-01  0.3067E-01  0.1142E+00  0.1082E+00
     -6.931  0.1198E-01  0.2844E-01  0.1151E+00  0.1113E+00
     -6.855  0.1339E-01  0.3540E-01  0.1161E+00  0.1138E+00
     -6.779  0.1382E-01  0.1168E-01  0.1171E+00  0.1150E+00
     -6.703  0.3671E-01  0.1302E-01  0.1213E+00  0.1159E+00
     -6.627  0.2677E-01  0.1355E-01  0.1237E+00  0.1170E+00
     -6.551  0.1057E-01  0.4193E-01  0.1251E+00  0.1211E+00
     -6.475  0.2097E-01  0.2712E-01  0.1267E+00  0.1237E+00
     -6.399  0.2610E-01  0.1428E-01  0.1285E+00  0.1251E+00
     -6.322  0.4511E-01  0.1962E-01  0.1315E+00  0.1264E+00
     -6.246  0.6713E-01  0.2492E-01  0.1358E+00  0.1281E+00
     -6.170  0.4324E-01  0.3110E-01  0.1407E+00  0.1302E+00
     -6.094  0.4248E-01  0.4605E-01  0.1436E+00  0.1333E+00
     -6.018  0.0000E+00  0.4422E-01  0.1515E+00  0.1369E+00
     -5.942  0.1244E-01  0.3195E-01  0.1516E+00  0.1401E+00
     -5.866  0.3577E-01  0.2766E-01  0.1542E+00  0.1425E+00
     -5.790  0.5738E-01  0.2129E-01  0.1572E+00  0.1443E+00
     -5.713  0.8565E-01  0.1929E-01  0.1631E+00  0.1458E+00
     -5.637  0.7656E-01  0.0000E+00  0.1693E+00  0.1515E+00
     -5.561  0.6365E-01  0.3634E-01  0.1749E+00  0.1516E+00
     -5.485  0.4698E-01  0.4755E-01  0.1792E+00  0.1553E+00
     -5.409  0.7804E-01  0.5346E-01  0.1825E+00  0.1592E+00
     -5.333  0.5193E-01  0.4897E-01  0.1864E+00  0.1638E+00
     -5.257  0.3998E-01  0.8085E-01  0.1903E+00  0.1702E+00
     -5.181  0.5079E-01  0.5210E-01  0.1938E+00  0.1749E+00
     -5.104  0.4324E-01  0.7097E-01  0.1973E+00  0.1797E+00
     -5.028  0.5700E-01  0.5769E-01  0.2006E+00  0.1855E+00
     -4.952  0.2270E-01  0.2830E-01  0.2060E+00  0.1887E+00
     -4.876  0.1909E-01  0.5773E-01  0.2076E+00  0.1952E+00
     -4.800  0.1548E-01  0.1314E-01  0.2089E+00  0.1983E+00
     -4.724  0.2077E-01  0.1174E-01  0.2111E+00  0.1993E+00
     -4.648  0.8765E-01  0.1267E-01  0.2149E+00  0.2001E+00
     -4.572  0.3527E-01  0.7850E-01  0.2191E+00  0.2041E+00
     -4.495  0.2801E-01  0.3523E-01  0.2215E+00  0.2086E+00
     -4.419  0.1602E-02  0.4616E-01  0.2222E+00  0.2117E+00
     -4.343  0.8899E-01  0.5709E-01  0.2252E+00  0.2156E+00
     -4.267  0.1223E+00  0.1803E-01  0.2309E+00  0.2212E+00
     -4.191  0.3471E-01  0.9430E-01  0.2354E+00  0.2276E+00
     -4.115  0.2819E-01  0.5963E-02  0.2378E+00  0.2322E+00
     -4.039  0.7136E-01  0.0000E+00  0.2445E+00  0.2323E+00
     -3.963  0.3403E+00  0.1343E-01  0.2498E+00  0.2329E+00
     -3.886  0.6718E-01  0.1657E-01  0.2545E+00  0.2341E+00
     -3.810  0.4270E-01  0.1972E-01  0.2587E+00  0.2355E+00
     -3.734  0.1404E+00  0.2641E-01  0.2629E+00  0.2381E+00
     -3.658  0.4607E-01  0.6951E-01  0.2699E+00  0.2413E+00
     -3.582  0.0000E+00  0.2174E-01  0.2727E+00  0.2471E+00
     -3.506  0.1266E+00  0.1856E-01  0.2778E+00  0.2487E+00
     -3.430  0.1422E+00  0.1538E-01  0.2836E+00  0.2500E+00
     -3.354  0.2707E-02  0.8968E-02  0.2929E+00  0.2510E+00
     -3.277  0.9030E-01  0.6964E-02  0.2982E+00  0.2516E+00
     -3.201  0.6758E-01  0.4961E-02  0.3068E+00  0.2521E+00
     -3.125  0.3151E-01  0.2958E-02  0.3105E+00  0.2524E+00
     -3.049  0.1916E-01  0.9541E-03  0.3125E+00  0.2525E+00
     -2.973  0.0000E+00  0.0000E+00  0.3131E+00  0.2525E+00
     -2.897  0.0000E+00  0.0000E+00  0.3131E+00  0.2525E+00
     -2.821  0.0000E+00  0.0000E+00  0.3131E+00  0.2525E+00
     -2.744  0.0000E+00  0.0000E+00  0.3131E+00  0.2525E+00
     -2.668  0.0000E+00  0.0000E+00  0.3131E+00  0.2525E+00
     -2.592  0.0000E+00  0.0000E+00  0.3131E+00  0.2525E+00
     -2.516  0.0000E+00  0.0000E+00  0.3131E+00  0.2525E+00
     -2.440  0.0000E+00  0.0000E+00  0.3131E+00  0.2525E+00
     -2.364  0.0000E+00  0.0000E+00  0.3131E+00  0.2525E+00
     -2.288  0.0000E+00  0.0000E+00  0.3131E+00  0.2525E+00
     -2.212  0.0000E+00  0.7539E-02  0.3131E+00  0.2530E+00
     -2.135  0.0000E+00  0.1573E-01  0.3131E+00  0.2539E+00
     -2.059  0.0000E+00  0.2392E-01  0.3131E+00  0.2554E+00
     -1.983  0.0000E+00  0.1289E-01  0.3131E+00  0.2568E+00
     -1.907  0.6312E-02  0.1011E-01  0.3132E+00  0.2577E+00
     -1.831  0.1928E-01  0.7331E-02  0.3142E+00  0.2584E+00
     -1.755  0.3225E-01  0.6333E-02  0.3162E+00  0.2589E+00
     -1.679  0.7662E-01  0.6059E-02  0.3192E+00  0.2593E+00
     -1.603  0.3655E-01  0.5786E-02  0.3234E+00  0.2598E+00
     -1.526  0.3239E-01  0.5512E-02  0.3263E+00  0.2602E+00
     -1.450  0.2823E-01  0.5238E-02  0.3284E+00  0.2606E+00
     -1.374  0.4202E-01  0.3813E-01  0.3311E+00  0.2641E+00
     -1.298  0.1438E+00  0.5238E-01  0.3417E+00  0.2675E+00
     -1.222  0.3912E-02  0.6221E-01  0.3427E+00  0.2730E+00
     -1.146  0.2867E-01  0.4378E-01  0.3433E+00  0.2777E+00
     -1.070  0.1864E+00  0.0000E+00  0.3482E+00  0.2828E+00
     -0.994  0.3684E-01  0.0000E+00  0.3523E+00  0.2828E+00
     -0.917  0.3732E-02  0.0000E+00  0.3534E+00  0.2828E+00
     -0.841  0.0000E+00  0.4170E-01  0.3535E+00  0.2947E+00
     -0.765  0.0000E+00  0.0000E+00  0.3535E+00  0.3030E+00
     -0.689  0.4532E-02  0.2103E+00  0.3540E+00  0.3084E+00
     -0.613  0.6028E-02  0.1426E+00  0.3544E+00  0.3209E+00
     -0.537  0.7524E-02  0.1726E-01  0.3549E+00  0.3228E+00
     -0.461  0.9020E-02  0.1744E-01  0.3556E+00  0.3241E+00
     -0.385  0.1052E-01  0.1762E-01  0.3563E+00  0.3255E+00
     -0.308  0.1287E-01  0.3512E-01  0.3572E+00  0.3280E+00
     -0.232  0.1552E-01  0.3782E-01  0.3583E+00  0.3308E+00
     -0.156  0.1509E-01  0.6500E-01  0.3593E+00  0.3345E+00
     -0.080  0.1700E-01  0.1619E+00  0.3606E+00  0.3410E+00
     -0.004  0.1687E-01  0.1153E-01  0.3619E+00  0.3443E+00
      0.072  0.1674E-01  0.5619E-01  0.3632E+00  0.3470E+00
      0.148  0.6154E-01  0.1074E+00  0.3666E+00  0.3549E+00
      0.224  0.4841E-01  0.1555E-01  0.3715E+00  0.3598E+00
      0.301  0.0000E+00  0.1666E-01  0.3737E+00  0.3609E+00
      0.377  0.0000E+00  0.2033E-01  0.3737E+00  0.3623E+00
      0.453  0.0000E+00  0.2399E-01  0.3737E+00  0.3640E+00
      0.529  0.7858E-02  0.7023E-02  0.3744E+00  0.3646E+00
      0.605  0.1098E-01  0.2858E-01  0.3751E+00  0.3662E+00
      0.681  0.1410E-01  0.3488E-01  0.3760E+00  0.3686E+00
      0.757  0.1722E-01  0.4104E-01  0.3772E+00  0.3715E+00
      0.833  0.4363E-01  0.1334E-01  0.3797E+00  0.3736E+00
      0.910  0.4165E-01  0.5656E-01  0.3829E+00  0.3753E+00
      0.986  0.5302E-01  0.2724E-01  0.3865E+00  0.3807E+00
      1.062  0.3025E-01  0.3596E-01  0.3911E+00  0.3846E+00
      1.138  0.1400E-01  0.6618E-01  0.3924E+00  0.3887E+00
      1.214  0.9669E-02  0.1730E-01  0.3933E+00  0.3909E+00
      1.290  0.5333E-02  0.1393E-01  0.3939E+00  0.3921E+00
      1.366  0.0000E+00  0.1057E-01  0.3939E+00  0.3930E+00
      1.442  0.0000E+00  0.7202E-02  0.3939E+00  0.3937E+00
      1.519  0.3230E-02  0.0000E+00  0.3940E+00  0.3939E+00
      1.595  0.3285E-01  0.2445E-02  0.3960E+00  0.3940E+00
      1.671  0.1140E+00  0.1008E-01  0.4006E+00  0.3944E+00
      1.747  0.3389E-01  0.2340E-01  0.4070E+00  0.3956E+00
      1.823  0.5113E-01  0.3841E-01  0.4122E+00  0.3980E+00
      1.899  0.2762E-01  0.4304E-01  0.4152E+00  0.4063E+00
      1.975  0.1386E-01  0.1873E-01  0.4165E+00  0.4077E+00
      2.052  0.4670E-01  0.5408E-01  0.4189E+00  0.4137E+00
      2.128  0.5664E-01  0.3854E-01  0.4228E+00  0.4165E+00
      2.204  0.3487E-02  0.4336E-01  0.4240E+00  0.4197E+00
      2.280  0.1730E-01  0.3574E-01  0.4248E+00  0.4230E+00
      2.356  0.3839E-01  0.9618E-03  0.4268E+00  0.4242E+00
      2.432  0.5887E-01  0.9337E-02  0.4308E+00  0.4243E+00
      2.508  0.6610E-01  0.6814E-01  0.4369E+00  0.4271E+00
      2.584  0.2346E-01  0.8710E-01  0.4406E+00  0.4338E+00
      2.661  0.7327E-01  0.4206E-01  0.4442E+00  0.4385E+00
      2.737  0.4342E-01  0.3233E-01  0.4484E+00  0.4419E+00
      2.813  0.4412E-01  0.2003E-01  0.4517E+00  0.4447E+00
      2.889  0.6661E-01  0.2136E-01  0.4552E+00  0.4462E+00
      2.965  0.4246E-01  0.6740E-01  0.4593E+00  0.4496E+00
      3.041  0.5559E-01  0.0000E+00  0.4630E+00  0.4545E+00
      3.117  0.0000E+00  0.4159E-01  0.4646E+00  0.4569E+00
      3.193  0.3110E-01  0.5721E-01  0.4669E+00  0.4606E+00
      3.270  0.2636E-01  0.2325E-01  0.4691E+00  0.4649E+00
      3.346  0.4436E-01  0.3121E-01  0.4719E+00  0.4669E+00
      3.422  0.2367E-01  0.4997E-01  0.4770E+00  0.4704E+00
      3.498  0.3235E-01  0.5179E-01  0.4791E+00  0.4744E+00
      3.574  0.2790E-01  0.3516E-01  0.4825E+00  0.4777E+00
      3.650  0.5058E-02  0.2140E-01  0.4846E+00  0.4798E+00
      3.726  0.1050E-02  0.1398E-01  0.4848E+00  0.4827E+00
      3.802  0.0000E+00  0.3539E-01  0.4848E+00  0.4844E+00
      3.879  0.0000E+00  0.0000E+00  0.4848E+00  0.4848E+00
      3.955  0.0000E+00  0.0000E+00  0.4848E+00  0.4848E+00
      4.031  0.0000E+00  0.0000E+00  0.4848E+00  0.4848E+00
      4.107  0.0000E+00  0.0000E+00  0.4848E+00  0.4848E+00
      4.183  0.0000E+00  0.0000E+00  0.4848E+00  0.4848E+00
      4.259  0.0000E+00  0.0000E+00  0.4848E+00  0.4848E+00
      4.335  0.0000E+00  0.0000E+00  0.4848E+00  0.4848E+00
      4.411  0.0000E+00  0.0000E+00  0.4848E+00  0.4848E+00
      4.488  0.0000E+00  0.0000E+00  0.4848E+00  0.4848E+00
      4.564  0.0000E+00  0.0000E+00  0.4848E+00  0.4848E+00
      4.640  0.0000E+00  0.0000E+00  0.4848E+00  0.4848E+00
      4.716  0.0000E+00  0.0000E+00  0.4848E+00  0.4848E+00
      4.792  0.0000E+00  0.0000E+00  0.4848E+00  0.4848E+00
      4.868  0.0000E+00  0.0000E+00  0.4848E+00  0.4848E+00
      4.86821936    -17.96992719  301     -2.95384584      1.00000000
    -17.970  0.0000E+00  0.0000E+00  0.0000E+00  0.0000E+00  0.0000E+00  0.0000E+00  0.0000E+00  0.0000E+00  0.0000E+00  0.0000E+00  0.0000E+00  0.0000E+00  0.0000E+00  0.0000E+00  0.0000E+00  0.0000E+00  0.0000E+00  0.0000E+00
    -17.894  0.0000E+00  0.0000E+00  0.0000E+00  0.0000E+00  0.0000E+00  0.0000E+00  0.0000E+00  0.0000E+00  0.0000E+00  0.0000E+00  0.0000E+00  0.0000E+00  0.0000E+00  0.0000E+00  0.0000E+00  0.0000E+00  0.0000E+00  0.0000E+00
    -17.818  0.0000E+00  0.0000E+00  0.0000E+00  0.0000E+00  0.0000E+00  0.0000E+00  0.0000E+00  0.0000E+00  0.0000E+00  0.0000E+00  0.0000E+00  0.0000E+00  0.0000E+00  0.0000E+00  0.0000E+00  0.0000E+00  0.0000E+00  0.0000E+00
    -17.742  0.0000E+00  0.0000E+00  0.0000E+00  0.0000E+00  0.0000E+00  0.0000E+00  0.0000E+00  0.0000E+00  0.0000E+00  0.0000E+00  0.0000E+00  0.0000E+00  0.0000E+00  0.0000E+00  0.0000E+00  0.0000E+00  0.0000E+00  0.0000E+00
    -17.665  0.0000E+00  0.0000E+00  0.0000E+00  0.0000E+00  0.0000E+00  0.0000E+00  0.0000E+00  0.0000E+00  0.0000E+00  0.0000E+00  0.0000E+00  0.0000E+00  0.0000E+00  0.0000E+00  0.0000E+00  0.0000E+00  0.0000E+00  0.0000E+00
    -17.589  0.0000E+00  0.0000E+00  0.0000E+00  0.0000E+00  0.0000E+00  0.0000E+00  0.0000E+00  0.0000E+00  0.0000E+00  0.0000E+00  0.0000E+00  0.0000E+00  0.0000E+00  0.0000E+00  0.0000E+00  0.0000E+00  0.0000E+00  0.0000E+00
    -17.513  0.0000E+00  0.0000E+00  0.0000E+00  0.0000E+00  0.0000E+00  0.0000E+00  0.0000E+00  0.0000E+00  0.0000E+00  0.0000E+00  0.0000E+00  0.0000E+00  0.0000E+00  0.0000E+00  0.0000E+00  0.0000E+00  0.0000E+00  0.0000E+00
    -17.437  0.0000E+00  0.0000E+00  0.0000E+00  0.0000E+00  0.0000E+00  0.0000E+00  0.0000E+00  0.0000E+00  0.0000E+00  0.0000E+00  0.0000E+00  0.0000E+00  0.0000E+00  0.0000E+00  0.0000E+00  0.0000E+00  0.0000E+00  0.0000E+00
    -17.361  0.0000E+00  0.0000E+00  0.0000E+00  0.0000E+00  0.0000E+00  0.0000E+00  0.0000E+00  0.0000E+00  0.0000E+00  0.0000E+00  0.0000E+00  0.0000E+00  0.0000E+00  0.0000E+00  0.0000E+00  0.0000E+00  0.0000E+00  0.0000E+00
    -17.285  0.0000E+00  0.0000E+00  0.0000E+00  0.0000E+00  0.0000E+00  0.0000E+00  0.0000E+00  0.0000E+00  0.0000E+00  0.0000E+00  0.0000E+00  0.0000E+00  0.0000E+00  0.0000E+00  0.0000E+00  0.0000E+00  0.0000E+00  0.0000E+00
    -17.209  0.0000E+00  0.0000E+00  0.0000E+00  0.0000E+00  0.0000E+00  0.0000E+00  0.0000E+00  0.0000E+00  0.0000E+00  0.0000E+00  0.0000E+00  0.0000E+00  0.0000E+00  0.0000E+00  0.0000E+00  0.0000E+00  0.0000E+00  0.0000E+00
    -17.133  0.0000E+00  0.0000E+00  0.0000E+00  0.0000E+00  0.0000E+00  0.0000E+00  0.0000E+00  0.0000E+00  0.0000E+00  0.0000E+00  0.0000E+00  0.0000E+00  0.0000E+00  0.0000E+00  0.0000E+00  0.0000E+00  0.0000E+00  0.0000E+00
    -17.056  0.0000E+00  0.0000E+00  0.0000E+00  0.0000E+00  0.0000E+00  0.0000E+00  0.0000E+00  0.0000E+00  0.0000E+00  0.0000E+00  0.0000E+00  0.0000E+00  0.0000E+00  0.0000E+00  0.0000E+00  0.0000E+00  0.0000E+00  0.0000E+00
    -16.980  0.0000E+00  0.0000E+00  0.0000E+00  0.0000E+00  0.0000E+00  0.0000E+00  0.0000E+00  0.0000E+00  0.0000E+00  0.0000E+00  0.0000E+00  0.0000E+00  0.0000E+00  0.0000E+00  0.0000E+00  0.0000E+00  0.0000E+00  0.0000E+00
    -16.904  0.6311E-02  0.5904E-02  0.3535E-04  0.3453E-04  0.2373E-07  0.2429E-07  0.1058E-03  0.1033E-03  0.1124E-05  0.9392E-06  0.1419E-05  0.1428E-05  0.1981E-04  0.2120E-04  0.4725E-06  0.4759E-06  0.3627E-06  0.3026E-06
    -16.828  0.2383E-01  0.2189E-01  0.1683E-03  0.1621E-03  0.9196E-07  0.9252E-07  0.5036E-03  0.4850E-03  0.5352E-05  0.4410E-05  0.6757E-05  0.6705E-05  0.7651E-04  0.8013E-04  0.2250E-05  0.2235E-05  0.1727E-05  0.1421E-05
    -16.752  0.1642E-01  0.1472E-01  0.1601E-03  0.1529E-03  0.2224E-06  0.2381E-06  0.1079E-02  0.1026E-02  0.8867E-05  0.7183E-05  0.1469E-04  0.1469E-04  0.6140E-04  0.6126E-04  0.1929E-04  0.1832E-04  0.1556E-04  0.1326E-04
    -16.676  0.1739E-01  0.1558E-01  0.2225E-03  0.2138E-03  0.2758E-06  0.2961E-06  0.1435E-02  0.1367E-02  0.1544E-04  0.1265E-04  0.2574E-04  0.2541E-04  0.6847E-04  0.6775E-04  0.2699E-04  0.2562E-04  0.2128E-04  0.1811E-04
    -16.600  0.1831E-01  0.1639E-01  0.2968E-03  0.2862E-03  0.3234E-06  0.3474E-06  0.1799E-02  0.1717E-02  0.2296E-04  0.1895E-04  0.3819E-04  0.3750E-04  0.7558E-04  0.7423E-04  0.3451E-04  0.3277E-04  0.2675E-04  0.2275E-04
    -16.524  0.1911E-01  0.1670E-01  0.3881E-03  0.4095E-03  0.3771E-06  0.4889E-06  0.2184E-02  0.2162E-02  0.3145E-04  0.2634E-04  0.5315E-04  0.5885E-04  0.8250E-04  0.7901E-04  0.4295E-04  0.4743E-04  0.3228E-04  0.2920E-04
    -16.447  0.1642E-01  0.1427E-01  0.7643E-03  0.7858E-03  0.1057E-05  0.1234E-05  0.3134E-02  0.3098E-02  0.4090E-04  0.3518E-04  0.1267E-03  0.1297E-03  0.7757E-04  0.7313E-04  0.1084E-03  0.1096E-03  0.5298E-04  0.4760E-04
    -16.371  0.2147E-01  0.1822E-01  0.1731E-02  0.1604E-02  0.2165E-05  0.2251E-05  0.5617E-02  0.5143E-02  0.8386E-04  0.6737E-04  0.2860E-03  0.2606E-03  0.1104E-03  0.9918E-04  0.2229E-03  0.2015E-03  0.9210E-04  0.7616E-04
    -16.295  0.1590E-01  0.1308E-01  0.1495E-02  0.1357E-02  0.2078E-05  0.2122E-05  0.4719E-02  0.4228E-02  0.6357E-04  0.5005E-04  0.2538E-03  0.2263E-03  0.8267E-04  0.7189E-04  0.2079E-03  0.1842E-03  0.8153E-04  0.6630E-04
    -16.219  0.1080E-01  0.8412E-02  0.1211E-02  0.1063E-02  0.1859E-05  0.1843E-05  0.3728E-02  0.3222E-02  0.4428E-04  0.3349E-04  0.2115E-03  0.1820E-03  0.5693E-04  0.4681E-04  0.1816E-03  0.1558E-03  0.6801E-04  0.5368E-04
    -16.143  0.6162E-02  0.4204E-02  0.8906E-03  0.7419E-03  0.6179E-02  0.1351E-01  0.2650E-02  0.2131E-02  0.5234E-04  0.8301E-04  0.2482E-03  0.3438E-03  0.3327E-04  0.2404E-04  0.4088E-03  0.7585E-03  0.1285E-03  0.2294E-03
    -16.067  0.1133E-03  0.1142E-02  0.6673E-04  0.1852E-03  0.1042E-01  0.9522E-02  0.8065E-04  0.4600E-03  0.7190E-04  0.1043E-03  0.2236E-03  0.2365E-03  0.1093E-05  0.9959E-05  0.1495E-02  0.1458E-02  0.4503E-03  0.4543E-03
    -15.991  0.3043E-01  0.3448E-01  0.2238E-02  0.2763E-02  0.1453E-01  0.1478E-01  0.4104E-02  0.5554E-02  0.7662E-03  0.8812E-03  0.7139E-03  0.8892E-03  0.2347E-03  0.2714E-03  0.3599E-02  0.3897E-02  0.1362E-02  0.1470E-02
    -15.914  0.4107E-01  0.3569E-01  0.3729E-02  0.3490E-02  0.1720E-01  0.1256E-01  0.8862E-02  0.8928E-02  0.1317E-02  0.1208E-02  0.1436E-02  0.1446E-02  0.3312E-03  0.2928E-03  0.5251E-02  0.3807E-02  0.1930E-02  0.1402E-02
    -15.838  0.1878E-01  0.3678E-03  0.1839E-02  0.7899E-03  0.3984E-03  0.5750E-02  0.4975E-02  0.2916E-03  0.6691E-03  0.3915E-03  0.7590E-03  0.1161E-02  0.1557E-03  0.3612E-05  0.3242E-03  0.3490E-02  0.2351E-03  0.1284E-02
    -15.762  0.1123E-02  0.1652E-02  0.1767E-02  0.2385E-02  0.6329E-02  0.5595E-02  0.7109E-03  0.1017E-02  0.6825E-03  0.7757E-03  0.1870E-02  0.2088E-02  0.1284E-04  0.1825E-04  0.4404E-02  0.3960E-02  0.1639E-02  0.1515E-02
    -15.686  0.2827E-02  0.3177E-02  0.3755E-02  0.4239E-02  0.5951E-02  0.5137E-02  0.1608E-02  0.1837E-02  0.1183E-02  0.1201E-02  0.3049E-02  0.3109E-02  0.3310E-04  0.3568E-04  0.4790E-02  0.4182E-02  0.1860E-02  0.1655E-02
    -15.610  0.8079E-02  0.1931E-01  0.1075E-01  0.1167E-01  0.6365E-02  0.5592E-02  0.4094E-02  0.8512E-02  0.2955E-02  0.3252E-02  0.7286E-02  0.6687E-02  0.9416E-04  0.2066E-03  0.9685E-02  0.5937E-02  0.4107E-02  0.2202E-02
    -15.534  0.1830E-01  0.1580E-01  0.8439E-02  0.1059E-01  0.6623E-02  0.1512E-01  0.9222E-02  0.9832E-02  0.3169E-02  0.3495E-02  0.5883E-02  0.7667E-02  0.2048E-03  0.1711E-03  0.5747E-02  0.8571E-02  0.1898E-02  0.2953E-02
    -15.458  0.1283E-01  0.6891E-02  0.1262E-01  0.1257E-01  0.1717E-01  0.1164E-01  0.9957E-02  0.8888E-02  0.3864E-02  0.2632E-02  0.8807E-02  0.6142E-02  0.1477E-03  0.7864E-04  0.1021E-01  0.5383E-02  0.3667E-02  0.2182E-02
    -15.382  0.7453E-02  0.6116E-02  0.1529E-01  0.1659E-01  0.1262E-01  0.1095E-01  0.1020E-01  0.1021E-01  0.3191E-02  0.2839E-02  0.7481E-02  0.6823E-02  0.9030E-04  0.7125E-04  0.6029E-02  0.4920E-02  0.2508E-02  0.2108E-02
    -15.305  0.1515E-01  0.1055E-01  0.2087E-01  0.1630E-01  0.2495E-01  0.9131E-02  0.1087E-01  0.8951E-02  0.1489E-01  0.9567E-02  0.3940E-01  0.2397E-01  0.2275E-03  0.1459E-03  0.2517E-01  0.2198E-01  0.9044E-02  0.8233E-02
    -15.229  0.8967E-02  0.3353E-02  0.1517E-01  0.1105E-01  0.8381E-02  0.5454E-02  0.8452E-02  0.9208E-02  0.9441E-02  0.6521E-02  0.2369E-01  0.1546E-01  0.1338E-03  0.4970E-04  0.2350E-01  0.1790E-01  0.8776E-02  0.6702E-02
    -15.153  0.2748E-02  0.0000E+00  0.8582E-02  0.0000E+00  0.2881E-02  0.0000E+00  0.8784E-02  0.0000E+00  0.7882E-02  0.0000E+00  0.2057E-01  0.0000E+00  0.4410E-04  0.0000E+00  0.2551E-01  0.0000E+00  0.8766E-02  0.0000E+00
    -15.077  0.0000E+00  0.0000E+00  0.0000E+00  0.0000E+00  0.0000E+00  0.0000E+00  0.0000E+00  0.0000E+00  0.0000E+00  0.0000E+00  0.0000E+00  0.0000E+00  0.0000E+00  0.0000E+00  0.0000E+00  0.0000E+00  0.0000E+00  0.0000E+00
    -15.001  0.0000E+00  0.0000E+00  0.0000E+00  0.0000E+00  0.0000E+00  0.0000E+00  0.0000E+00  0.0000E+00  0.0000E+00  0.0000E+00  0.0000E+00  0.0000E+00  0.0000E+00  0.0000E+00  0.0000E+00  0.0000E+00  0.0000E+00  0.0000E+00
    -14.925  0.0000E+00  0.0000E+00  0.0000E+00  0.0000E+00  0.0000E+00  0.0000E+00  0.0000E+00  0.0000E+00  0.0000E+00  0.0000E+00  0.0000E+00  0.0000E+00  0.0000E+00  0.0000E+00  0.0000E+00  0.0000E+00  0.0000E+00  0.0000E+00
    -14.849  0.0000E+00  0.0000E+00  0.0000E+00  0.0000E+00  0.0000E+00  0.0000E+00  0.0000E+00  0.0000E+00  0.0000E+00  0.0000E+00  0.0000E+00  0.0000E+00  0.0000E+00  0.0000E+00  0.0000E+00  0.0000E+00  0.0000E+00  0.0000E+00
    -14.773  0.0000E+00  0.0000E+00  0.0000E+00  0.0000E+00  0.0000E+00  0.0000E+00  0.0000E+00  0.0000E+00  0.0000E+00  0.0000E+00  0.0000E+00  0.0000E+00  0.0000E+00  0.0000E+00  0.0000E+00  0.0000E+00  0.0000E+00  0.0000E+00
    -14.696  0.0000E+00  0.0000E+00  0.0000E+00  0.0000E+00  0.0000E+00  0.0000E+00  0.0000E+00  0.0000E+00  0.0000E+00  0.0000E+00  0.0000E+00  0.0000E+00  0.0000E+00  0.0000E+00  0.0000E+00  0.0000E+00  0.0000E+00  0.0000E+00
    -14.620  0.0000E+00  0.0000E+00  0.0000E+00  0.0000E+00  0.0000E+00  0.0000E+00  0.0000E+00  0.0000E+00  0.0000E+00  0.0000E+00  0.0000E+00  0.0000E+00  0.0000E+00  0.0000E+00  0.0000E+00  0.0000E+00  0.0000E+00  0.0000E+00
    -14.544  0.0000E+00  0.0000E+00  0.0000E+00  0.0000E+00  0.0000E+00  0.0000E+00  0.0000E+00  0.0000E+00  0.0000E+00  0.0000E+00  0.0000E+00  0.0000E+00  0.0000E+00  0.0000E+00  0.0000E+00  0.0000E+00  0.0000E+00  0.0000E+00
    -14.468  0.0000E+00  0.0000E+00  0.0000E+00  0.0000E+00  0.0000E+00  0.0000E+00  0.0000E+00  0.0000E+00  0.0000E+00  0.0000E+00  0.0000E+00  0.0000E+00  0.0000E+00  0.0000E+00  0.0000E+00  0.0000E+00  0.0000E+00  0.0000E+00
    -14.392  0.0000E+00  0.0000E+00  0.0000E+00  0.0000E+00  0.0000E+00  0.0000E+00  0.0000E+00  0.0000E+00  0.0000E+00  0.0000E+00  0.0000E+00  0.0000E+00  0.0000E+00  0.0000E+00  0.0000E+00  0.0000E+00  0.0000E+00  0.0000E+00
    -14.316  0.0000E+00  0.0000E+00  0.0000E+00  0.0000E+00  0.0000E+00  0.0000E+00  0.0000E+00  0.0000E+00  0.0000E+00  0.0000E+00  0.0000E+00  0.0000E+00  0.0000E+00  0.0000E+00  0.0000E+00  0.0000E+00  0.0000E+00  0.0000E+00
    -14.240  0.0000E+00  0.0000E+00  0.0000E+00  0.0000E+00  0.0000E+00  0.0000E+00  0.0000E+00  0.0000E+00  0.0000E+00  0.0000E+00  0.0000E+00  0.0000E+00  0.0000E+00  0.0000E+00  0.0000E+00  0.0000E+00  0.0000E+00  0.0000E+00
    -14.164  0.0000E+00  0.0000E+00  0.0000E+00  0.0000E+00  0.0000E+00  0.0000E+00  0.0000E+00  0.0000E+00  0.0000E+00  0.0000E+00  0.0000E+00  0.0000E+00  0.0000E+00  0.0000E+00  0.0000E+00  0.0000E+00  0.0000E+00  0.0000E+00