       N       E                     dE             d eps       ncg     rms          rms(c)
DAV:   1     0.371761893380E+03    0.37176E+03   -0.16605E+04   960   0.817E+02
DAV:   2    -0.258577911007E+01   -0.37435E+03   -0.35893E+03  1560   0.153E+02
DAV:   3    -0.485580723298E+02   -0.45972E+02   -0.45048E+02  1344   0.648E+01
DAV:   4    -0.502634796731E+02   -0.17054E+01   -0.17014E+01  1200   0.165E+01
DAV:   5    -0.503225969326E+02   -0.59117E-01   -0.59093E-01  1344   0.278E+00    0.216E+01
DAV:   6    -0.800456201866E+02   -0.29723E+02   -0.20423E+02  1344   0.633E+01    0.554E+01
DAV:   7    -0.435847890817E+02    0.36461E+02   -0.60669E+01  1176   0.888E+01    0.150E+01
DAV:   8    -0.450262030913E+02   -0.14414E+01   -0.45968E+00  1272   0.830E+00    0.863E+00
DAV:   9    -0.178146601128E+03   -0.13312E+03   -0.13127E+03  1608   0.134E+01    0.314E+01
DAV:  10    -0.434342047677E+02    0.13471E+03   -0.29278E+03  1344   0.645E+01    0.675E+00
DAV:  11    -0.461034303727E+02   -0.26692E+01   -0.59546E+00  1392   0.731E+00    0.289E+00
DAV:  12    -0.466060629155E+02   -0.50263E+00   -0.77730E-01  1368   0.488E+00    0.264E+00
DAV:  13    -0.468565123518E+02   -0.25045E+00   -0.77878E-02  1344   0.191E+00    0.202E+00
DAV:  14    -0.470047045014E+02   -0.14819E+00   -0.84419E-02  1344   0.191E+00    0.896E-01
DAV:  15    -0.470284652194E+02   -0.23761E-01   -0.50025E-02  1248   0.146E+00    0.336E-01
DAV:  16    -0.470321824983E+02   -0.37173E-02   -0.76505E-03  1320   0.460E-01    0.270E-01
DAV:  17    -0.470320415871E+02    0.14091E-03   -0.78874E-04  1080   0.168E-01    0.234E-01
DAV:  18    -0.470327332756E+02   -0.69169E-03   -0.30822E-04   960   0.887E-02    0.228E-01
DAV:  19    -0.470332775660E+02   -0.54429E-03   -0.15017E-04   912   0.539E-02    0.226E-01
DAV:  20    -0.470339532606E+02   -0.67569E-03   -0.27659E-04  1056   0.680E-02    0.224E-01
DAV:  21    -0.470345776977E+02   -0.62444E-03   -0.32109E-04   912   0.699E-02    0.220E-01
DAV:  22    -0.470357790933E+02   -0.12014E-02   -0.20901E-04  1008   0.383E-02    0.213E-01
DAV:  23    -0.470374143500E+02   -0.16353E-02   -0.26649E-04   960   0.519E-02    0.200E-01
DAV:  24    -0.470388751509E+02   -0.14608E-02   -0.63490E-05  1056   0.363E-02    0.190E-01
DAV:  25    -0.470406133340E+02   -0.17382E-02   -0.70733E-05  1008   0.400E-02    0.178E-01
DAV:  26    -0.470416121694E+02   -0.99884E-03   -0.10405E-04   888   0.441E-02    0.171E-01
DAV:  27    -0.470426842941E+02   -0.10721E-02   -0.58520E-04  1056   0.936E-02    0.167E-01
DAV:  28    -0.470426445134E+02    0.39781E-04   -0.57242E-04   936   0.925E-02
   1 F= -.47042645E+02 E0= -.47042645E+02  d E =-.470426E+02  mag=     5.9997
       N       E                     dE             d eps       ncg     rms          rms(c)
DAV:   1    -0.643874912439E+02   -0.17345E+02   -0.39621E+02  1320   0.114E+02    0.227E+01
DAV:   2    -0.546349071136E+02    0.97526E+01   -0.41905E+01  1392   0.449E+01    0.149E+01
DAV:   3    -0.533840748269E+02    0.12508E+01   -0.33844E+01  1416   0.667E+01    0.122E+01
DAV:   4    -0.501082124556E+02    0.32759E+01   -0.13598E+01  1440   0.226E+01    0.308E+00
DAV:   5    -0.501169446534E+02   -0.87322E-02   -0.55263E-01  1488   0.367E+00    0.121E+00
DAV:   6    -0.501086853418E+02    0.82593E-02   -0.82742E-02  1392   0.180E+00    0.534E-01
DAV:   7    -0.501121358365E+02   -0.34505E-02   -0.18181E-02  1200   0.702E-01    0.275E-01
DAV:   8    -0.501135464463E+02   -0.14106E-02   -0.44060E-03  1200   0.333E-01    0.149E-01
DAV:   9    -0.501144913141E+02   -0.94487E-03   -0.19523E-03  1128   0.267E-01    0.789E-02
DAV:  10    -0.501147257362E+02   -0.23442E-03   -0.98748E-04  1200   0.145E-01    0.477E-02
DAV:  11    -0.501149798413E+02   -0.25411E-03   -0.19355E-03  1104   0.142E-01    0.483E-02
DAV:  12    -0.501138734104E+02    0.11064E-02   -0.24663E-03  1104   0.130E-01    0.391E-02
DAV:  13    -0.501122002105E+02    0.16732E-02   -0.10587E-03  1008   0.781E-02    0.301E-02
DAV:  14    -0.501114231142E+02    0.77710E-03   -0.12560E-04  1128   0.416E-02    0.255E-02
DAV:  15    -0.501103983555E+02    0.10248E-02   -0.61515E-05   864   0.445E-02    0.238E-02
DAV:  16    -0.501093440051E+02    0.10544E-02   -0.10095E-04   936   0.590E-02    0.211E-02
DAV:  17    -0.501089139235E+02    0.43008E-03   -0.22633E-04  1104   0.530E-02    0.152E-02
DAV:  18    -0.501087033536E+02    0.21057E-03   -0.32153E-04  1056   0.679E-02    0.751E-03
DAV:  19    -0.501089035524E+02   -0.20020E-03   -0.41696E-05  1128   0.357E-02    0.508E-03
DAV:  20    -0.501092809591E+02   -0.37741E-03   -0.37011E-05   888   0.287E-02    0.287E-03
DAV:  21    -0.501094640515E+02   -0.18309E-03   -0.14792E-05   864   0.136E-02    0.131E-03
DAV:  22    -0.501095254162E+02   -0.61365E-04   -0.81209E-06   984   0.846E-03
   2 F= -.50109525E+02 E0= -.50109525E+02  d E =-.306688E+01  mag=     5.9994
       N       E                     dE             d eps       ncg     rms          rms(c)
DAV:   1    -0.502698336605E+02   -0.16037E+00   -0.31809E+00  1104   0.103E+01    0.193E+00
DAV:   2    -0.501952203790E+02    0.74613E-01   -0.27898E-01  1272   0.542E+00    0.129E+00
DAV:   3    -0.501704970233E+02    0.24723E-01   -0.12569E-01  1224   0.383E+00    0.789E-01
DAV:   4    -0.501555539378E+02    0.14943E-01   -0.61361E-02  1176   0.210E+00    0.167E-01
DAV:   5    -0.501548550483E+02    0.69889E-03   -0.33031E-03  1344   0.528E-01    0.702E-02
DAV:   6    -0.501546865883E+02    0.16846E-03   -0.32269E-04  1080   0.641E-02    0.350E-02
DAV:   7    -0.501546535456E+02    0.33043E-04   -0.67169E-05   888   0.474E-02
   3 F= -.50154654E+02 E0= -.50154654E+02  d E =-.311201E+01  mag=     5.9998
