 vasp.5.4.4.18Apr17-6-g9f103f2a35 (build May  1 2020 15:48:39) complex           
 executed on             LinuxGNU date 2020.06.14  05:34:20
 running on   24 total cores
 distrk:  each k-point on   24 cores,    1 groups
 distr:  one band on NCORES_PER_BAND=   1 cores,   24 groups


--------------------------------------------------------------------------------------------------------


 INCAR:
 POTCAR:   PAW_PBE Cr 06Sep2000                   
 POTCAR:   PAW_PBE Si 05Jan2001                   
 POTCAR:   PAW_PBE Se 06Sep2000                   

 ----------------------------------------------------------------------------- 
|                                                                             |
|           W    W    AA    RRRRR   N    N  II  N    N   GGGG   !!!           |
|           W    W   A  A   R    R  NN   N  II  NN   N  G    G  !!!           |
|           W    W  A    A  R    R  N N  N  II  N N  N  G       !!!           |
|           W WW W  AAAAAA  RRRRR   N  N N  II  N  N N  G  GGG   !            |
|           WW  WW  A    A  R   R   N   NN  II  N   NN  G    G                |
|           W    W  A    A  R    R  N    N  II  N    N   GGGG   !!!           |
|                                                                             |
|      For optimal performance we recommend to set                            |
|        NCORE= 4 - approx SQRT( number of cores)                             |
|      NCORE specifies how many cores store one orbital (NPAR=cpu/NCORE).     |
|      This setting can  greatly improve the performance of VASP for DFT.     |
|      The default,   NCORE=1            might be grossly inefficient         |
|      on modern multi-core architectures or massively parallel machines.     |
|      Do your own testing !!!!                                               |
|      Unfortunately you need to use the default for GW and RPA calculations. |
|      (for HF NCORE is supported but not extensively tested yet)             |
|                                                                             |
 ----------------------------------------------------------------------------- 


 ----------------------------------------------------------------------------- 
|                                                                             |
|  ADVICE TO THIS USER RUNNING 'VASP/VAMP'   (HEAR YOUR MASTER'S VOICE ...):  |
|                                                                             |
|      You have switched on vdW-DFT.                                          |
|      This routine was written and supplied by Jiri Klimes.                  |
|      We recommed that you carefully read and cite the following             |
|      publication                                                            |
|      J. Klimes, D.R. Bowler, A. Michelides                                  |
|        J. Phys.: Cond Matt. 22 022201 (2010)                                |
|      J. Klimes, D.R. Bowler, A. Michelides                                  |
|        Phys. Rev. B. 83, 195131 (2011)                                      |
|      and references therein.                                                |
|                                                                             |
 ----------------------------------------------------------------------------- 

 POTCAR:   PAW_PBE Cr 06Sep2000                   
   VRHFIN =Cr : d5 s1                                                           
   LEXCH  = PE                                                                  
   EATOM  =   276.9744 eV,   20.3570 Ry                                         
                                                                                
   TITEL  = PAW_PBE Cr 06Sep2000                                                
   LULTRA =        F    use ultrasoft PP ?                                      
   IUNSCR =        1    unscreen: 0-lin 1-nonlin 2-no                           
   RPACOR =    2.080    partial core radius                                     
   POMASS =   51.996; ZVAL   =    6.000    mass and valenz                      
   RCORE  =    2.500    outmost cutoff radius                                   
   RWIGS  =    2.500; RWIGS  =    1.323    wigner-seitz radius (au A)           
   ENMAX  =  227.082; ENMIN  =  170.311 eV                                      
   RCLOC  =    1.721    cutoff for local pot                                    
   LCOR   =        T    correct aug charges                                     
   LPAW   =        T    paw PP                                                  
   EAUG   =  402.108                                                            
   DEXC   =    -.035                                                            
   RMAX   =    3.060    core radius for proj-oper                               
   RAUG   =    1.300    factor for augmentation sphere                          
   RDEP   =    2.609    radius for radial grids                                 
   QCUT   =   -4.085; QGAM   =    8.171    optimization parameters              
                                                                                
   Description                                                                  
     l     E      TYP  RCUT    TYP  RCUT                                        
     2   .000     23  2.500                                                     
     2   .000     23  2.500                                                     
     0   .000     23  2.500                                                     
     0   .000     23  2.500                                                     
     1  -.400     23  2.500                                                     
     1  2.000     23  2.500                                                     
     3   .000      7   .000                                                     
  local pseudopotential read in
  partial core-charges read in
  atomic valenz-charges read in
  non local Contribution for L=           2  read in
    real space projection operators read in
  non local Contribution for L=           2  read in
    real space projection operators read in
  non local Contribution for L=           0  read in
    real space projection operators read in
  non local Contribution for L=           0  read in
    real space projection operators read in
  non local Contribution for L=           1  read in
    real space projection operators read in
  non local Contribution for L=           1  read in
    real space projection operators read in
    PAW grid and wavefunctions read in

   number of l-projection  operators is LMAX  =           6
   number of lm-projection operators is LMMAX =          18

 POTCAR:   PAW_PBE Si 05Jan2001                   
   VRHFIN =Si: s2p2                                                             
   LEXCH  = PE                                                                  
   EATOM  =   103.0669 eV,    7.5752 Ry                                         
                                                                                
   TITEL  = PAW_PBE Si 05Jan2001                                                
   LULTRA =        F    use ultrasoft PP ?                                      
   IUNSCR =        1    unscreen: 0-lin 1-nonlin 2-no                           
   RPACOR =    1.500    partial core radius                                     
   POMASS =   28.085; ZVAL   =    4.000    mass and valenz                      
   RCORE  =    1.900    outmost cutoff radius                                   
   RWIGS  =    2.480; RWIGS  =    1.312    wigner-seitz radius (au A)           
   ENMAX  =  245.345; ENMIN  =  184.009 eV                                      
   ICORE  =        2    local potential                                         
   LCOR   =        T    correct aug charges                                     
   LPAW   =        T    paw PP                                                  
   EAUG   =  322.069                                                            
   DEXC   =    -.007                                                            
   RMAX   =    2.944    core radius for proj-oper                               
   RAUG   =    1.300    factor for augmentation sphere                          
   RDEP   =    1.993    radius for radial grids                                 
   QCUT   =   -4.246; QGAM   =    8.493    optimization parameters              
                                                                                
   Description                                                                  
     l     E      TYP  RCUT    TYP  RCUT                                        
     0   .000     23  1.900                                                     
     0   .000     23  1.900                                                     
     1   .000     23  1.900                                                     
     1   .000     23  1.900                                                     
     2   .000      7  1.900                                                     
  local pseudopotential read in
  partial core-charges read in
  atomic valenz-charges read in
  non local Contribution for L=           0  read in
    real space projection operators read in
  non local Contribution for L=           0  read in
    real space projection operators read in
  non local Contribution for L=           1  read in
    real space projection operators read in
  non local Contribution for L=           1  read in
    real space projection operators read in
    PAW grid and wavefunctions read in

   number of l-projection  operators is LMAX  =           4
   number of lm-projection operators is LMMAX =           8

 POTCAR:   PAW_PBE Se 06Sep2000                   
   VRHFIN =Se: s2p4                                                             
   LEXCH  = PE                                                                  
   EATOM  =   256.9644 eV,   18.8864 Ry                                         
                                                                                
   TITEL  = PAW_PBE Se 06Sep2000                                                
   LULTRA =        F    use ultrasoft PP ?                                      
   IUNSCR =        1    unscreen: 0-lin 1-nonlin 2-no                           
   RPACOR =    1.900    partial core radius                                     
   POMASS =   78.960; ZVAL   =    6.000    mass and valenz                      
   RCORE  =    2.100    outmost cutoff radius                                   
   RWIGS  =    2.200; RWIGS  =    1.164    wigner-seitz radius (au A)           
   ENMAX  =  211.534; ENMIN  =  158.651 eV                                      
   ICORE  =        3    local potential                                         
   LCOR   =        T    correct aug charges                                     
   LPAW   =        T    paw PP                                                  
   EAUG   =  446.842                                                            
   DEXC   =    -.031                                                            
   RMAX   =    3.170    core radius for proj-oper                               
   RAUG   =    1.300    factor for augmentation sphere                          
   RDEP   =    2.177    radius for radial grids                                 
   QCUT   =   -3.943; QGAM   =    7.886    optimization parameters              
                                                                                
   Description                                                                  
     l     E      TYP  RCUT    TYP  RCUT                                        
     0   .000     23  2.100                                                     
     0   .000     23  2.100                                                     
     1   .000     23  2.100                                                     
     1   .000     23  2.100                                                     
     2   .000     23  2.100                                                     
     3  -.100      7  2.100                                                     
  local pseudopotential read in
  partial core-charges read in
  atomic valenz-charges read in
  non local Contribution for L=           0  read in
    real space projection operators read in
  non local Contribution for L=           0  read in
    real space projection operators read in
  non local Contribution for L=           1  read in
    real space projection operators read in
  non local Contribution for L=           1  read in
    real space projection operators read in
  non local Contribution for L=           2  read in
    real space projection operators read in
    PAW grid and wavefunctions read in

   number of l-projection  operators is LMAX  =           5
   number of lm-projection operators is LMMAX =          13

 Optimization of the real space projectors (new method)

 maximal supplied QI-value         = 15.12
 optimisation between [QCUT,QGAM] = [ 11.64, 23.28] = [ 37.95,151.78] Ry 
 Optimized for a Real-space Cutoff    1.49 Angstroem

   l    n(q)    QCUT    max X(q) W(low)/X(q) W(high)/X(q)  e(spline) 
   2      9    11.641     4.777    0.25E-04    0.21E-05    0.63E-07
   2      9    11.641    31.132    0.13E-03    0.22E-03    0.64E-06
   0     10    11.641    20.416    0.11E-04    0.74E-05    0.19E-07
   0     10    11.641    45.408    0.10E-03    0.85E-04    0.30E-06
   1     10    11.641     7.848    0.22E-04    0.23E-04    0.56E-07
   1     10    11.641     9.895    0.85E-04    0.54E-04    0.16E-06
 Optimization of the real space projectors (new method)

 maximal supplied QI-value         = 19.84
 optimisation between [QCUT,QGAM] = [ 11.51, 23.22] = [ 37.09,150.92] Ry 
 Optimized for a Real-space Cutoff    1.21 Angstroem

   l    n(q)    QCUT    max X(q) W(low)/X(q) W(high)/X(q)  e(spline) 
   0      8    11.508     8.708    0.18E-04    0.44E-05    0.47E-08
   0      8    11.508   106.241    0.70E-04    0.15E-03    0.51E-07
   1      8    11.508     5.901    0.63E-05    0.23E-04    0.21E-07
   1      8    11.508    73.241    0.15E-03    0.36E-04    0.79E-07
 Optimization of the real space projectors (new method)

 maximal supplied QI-value         = 17.95
 optimisation between [QCUT,QGAM] = [ 11.67, 23.34] = [ 38.13,152.52] Ry 
 Optimized for a Real-space Cutoff    1.25 Angstroem

   l    n(q)    QCUT    max X(q) W(low)/X(q) W(high)/X(q)  e(spline) 
   0      9    11.669     6.499    0.13E-04    0.81E-05    0.11E-07
   0      9    11.669    52.623    0.18E-03    0.46E-04    0.72E-07
   1      8    11.669     4.229    0.40E-04    0.45E-04    0.31E-07
   1      8    11.669    29.991    0.22E-03    0.36E-03    0.10E-06
   2      8    11.669     3.719    0.19E-03    0.46E-04    0.50E-07

 ----------------------------------------------------------------------------- 
|                                                                             |
|  ADVICE TO THIS USER RUNNING 'VASP/VAMP'   (HEAR YOUR MASTER'S VOICE ...):  |
|                                                                             |
|      You enforced a specific xc-type in the INCAR file,                     |
|      a different type was found on the POTCAR file                          |
|          I HOPE YOU KNOW, WHAT YOU ARE  DOING                               |
|                                                                             |
 ----------------------------------------------------------------------------- 

 PAW_PBE Cr 06Sep2000                   :
 energy of atom  1       EATOM= -276.9744
 kinetic energy error for atom=    0.0010 (will be added to EATOM!!)
 PAW_PBE Si 05Jan2001                   :
 energy of atom  2       EATOM= -103.0669
 kinetic energy error for atom=    0.0005 (will be added to EATOM!!)
 PAW_PBE Se 06Sep2000                   :
 energy of atom  3       EATOM= -256.9644
 kinetic energy error for atom=    0.0007 (will be added to EATOM!!)


 POSCAR: Cr2 Si2 Se6                             
  positions in direct lattice
  velocities in cartesian coordinates
  No initial velocities read in
 exchange correlation table for  LEXCH =       42
   RHO(1)=    0.500       N(1)  =     2000
   RHO(2)=  100.500       N(2)  =     4000



--------------------------------------------------------------------------------------------------------


 ion  position               nearest neighbor table
   1  0.333  0.333  0.500-   6 2.78   5 2.78   7 2.78   8 2.78  10 2.78   9 2.78
   2  0.667  0.667  0.500-   9 2.78   8 2.78  10 2.78   5 2.78   7 2.78   6 2.78
   3  0.000  0.000  0.448-   4 2.43   8 2.63  10 2.63   9 2.63
   4  0.000  0.000  0.552-   3 2.43   5 2.63   7 2.63   6 2.63
   5  0.626  0.000  0.574-   4 2.63   1 2.78   2 2.78
   6  0.000  0.373  0.574-   4 2.63   1 2.78   2 2.78
   7  0.373  0.626  0.574-   4 2.63   1 2.78   2 2.78
   8  0.374  1.000  0.426-   3 2.63   2 2.78   1 2.78
   9  1.000  0.627  0.426-   3 2.63   2 2.78   1 2.78
  10  0.627  0.374  0.426-   3 2.63   2 2.78   1 2.78

  LATTYP: Found a hexagonal cell.
 ALAT       =     6.9077769333
 C/A-ratio  =     3.3939410937
  
  Lattice vectors:
  
 A1 = (   3.4538890000,  -5.9823100000,   0.0000000000)
 A2 = (  -6.9077770000,   0.0000000000,   0.0000000000)
 A3 = (   0.0000000000,   0.0000000000, -23.4445880000)


Analysis of symmetry for initial positions (statically):
=====================================================================
 Subroutine PRICEL returns:
 Original cell was already a primitive cell.
 

 Routine SETGRP: Setting up the symmetry group for a 
 hexagonal supercell.


 Subroutine GETGRP returns: Found  6 space group operations
 (whereof  6 operations were pure point group operations)
 out of a pool of 24 trial point group operations.


The static configuration has the point symmetry S_6 .


Analysis of symmetry for dynamics (positions and initial velocities):
=====================================================================
 Subroutine PRICEL returns:
 Original cell was already a primitive cell.
 

 Routine SETGRP: Setting up the symmetry group for a 
 hexagonal supercell.


 Subroutine GETGRP returns: Found  6 space group operations
 (whereof  6 operations were pure point group operations)
 out of a pool of 24 trial point group operations.


The dynamic configuration has the point symmetry S_6 .


Analysis of constrained symmetry for selective dynamics:
=====================================================================
 Subroutine PRICEL returns:
 Original cell was already a primitive cell.
 

 Routine SETGRP: Setting up the symmetry group for a 
 hexagonal supercell.


 Subroutine GETGRP returns: Found  6 space group operations
 (whereof  6 operations were pure point group operations)
 out of a pool of 24 trial point group operations.


The constrained configuration has the point symmetry S_6 .


Analysis of structural, dynamic, and magnetic symmetry:
=====================================================================
 Subroutine PRICEL returns:
 Original cell was already a primitive cell.
 

 Routine SETGRP: Setting up the symmetry group for a 
 hexagonal supercell.


 Subroutine GETGRP returns: Found  6 space group operations
 (whereof  6 operations were pure point group operations)
 out of a pool of 24 trial point group operations.


The magnetic configuration has the point symmetry S_6 .


 Subroutine INISYM returns: Found  6 space group operations
 (whereof  6 operations are pure point group operations),
 and found     1 'primitive' translations



 KPOINTS: Kpoints from vasprun.xml                

Automatic generation of k-mesh.
Space group operators:
 irot       det(A)        alpha          n_x          n_y          n_z        tau_x        tau_y        tau_z
    1     1.000000     0.000000     1.000000     0.000000     0.000000     0.000000     0.000000     0.000000
    2    -1.000000     0.000000     1.000000     0.000000     0.000000     0.000000     0.000000     0.000000
    3     1.000000   120.000000     0.000000     0.000000     1.000000     0.000000     0.000000     0.000000
    4    -1.000000   120.000000     0.000000     0.000000     1.000000     0.000000     0.000000     0.000000
    5     1.000000   120.000000     0.000000     0.000000    -1.000000     0.000000     0.000000     0.000000
    6    -1.000000   120.000000     0.000000     0.000000    -1.000000     0.000000     0.000000     0.000000
 
 Subroutine IBZKPT returns following result:
 ===========================================
 
 Found      5 irreducible k-points:
 
 Following reciprocal coordinates:
            Coordinates               Weight
  0.000000  0.000000  0.000000      1.000000
  0.200000  0.000000  0.000000      6.000000
  0.400000  0.000000  0.000000      6.000000
  0.400000  0.200000  0.000000      6.000000
 -0.400000  0.200000  0.000000      6.000000
 
 Following cartesian coordinates:
            Coordinates               Weight
  0.000000  0.000000  0.000000      1.000000
  0.028953 -0.016716  0.000000      6.000000
  0.057906 -0.033432  0.000000      6.000000
  0.057906  0.000000  0.000000      6.000000
 -0.057906  0.066864  0.000000      6.000000
 
 TETIRR: Found     15 inequivalent tetrahedra from      150


--------------------------------------------------------------------------------------------------------




 Dimension of arrays:
   k-points           NKPTS =      5   k-points in BZ     NKDIM =      5   number of bands    NBANDS=     48
   number of dos      NEDOS =    301   number of ions     NIONS =     10
   non local maximal  LDIM  =      6   non local SUM 2l+1 LMDIM =     18
   total plane-waves  NPLWV = 524880
   max r-space proj   IRMAX =   7543   max aug-charges    IRDMAX=  27873
   dimension x,y,z NGX =    54 NGY =   54 NGZ =  180
   dimension x,y,z NGXF=   108 NGYF=  108 NGZF=  360
   support grid    NGXF=   108 NGYF=  108 NGZF=  360
   ions per type =               2   2   6
   NGX,Y,Z   is equivalent  to a cutoff of  13.00, 13.00, 12.76 a.u.
   NGXF,Y,Z  is equivalent  to a cutoff of  25.99, 25.99, 25.53 a.u.

 SYSTEM =  unknown system                          
 POSCAR =  Cr2 Si2 Se6                             

 Startparameter for this run:
   NWRITE =      2    write-flag & timer
   PREC   = accura    normal or accurate (medium, high low for compatibility)
   ISTART =      0    job   : 0-new  1-cont  2-samecut
   ICHARG =      2    charge: 1-file 2-atom 10-const
   ISPIN  =      2    spin polarized calculation?
   LNONCOLLINEAR =      F non collinear calculations
   LSORBIT =      F    spin-orbit coupling
   INIWAV =      1    electr: 0-lowe 1-rand  2-diag
   LASPH  =      F    aspherical Exc in radial PAW
   METAGGA=      F    non-selfconsistent MetaGGA calc.

 Electronic Relaxation 1
   ENCUT  =  520.0 eV  38.22 Ry    6.18 a.u.  12.84 12.84 43.59*2*pi/ulx,y,z
   ENINI  =  520.0     initial cutoff
   ENAUG  =  446.8 eV  augmentation charge cutoff
   NELM   =    400;   NELMIN=  2; NELMDL=  0     # of ELM steps 
   EDIFF  = 0.1E-03   stopping-criterion for ELM
   LREAL  =      T    real-space projection
   NLSPLINE    = F    spline interpolate recip. space projectors
   LCOMPAT=      F    compatible to vasp.4.4
   GGA_COMPAT  = T    GGA compatible to vasp.4.4-vasp.4.6
   LMAXPAW     = -100 max onsite density
   LMAXMIX     =    2 max onsite mixed and CHGCAR
   VOSKOWN=      0    Vosko Wilk Nusair interpolation
   ROPT   =   -0.00025  -0.00025  -0.00025
 Ionic relaxation
   EDIFFG = 0.1E-02   stopping-criterion for IOM
   NSW    =     99    number of steps for IOM
   NBLOCK =      1;   KBLOCK =     99    inner block; outer block 
   IBRION =      2    ionic relax: 0-MD 1-quasi-New 2-CG
   NFREE  =      1    steps in history (QN), initial steepest desc. (CG)
   ISIF   =      3    stress and relaxation
   IWAVPR =     11    prediction:  0-non 1-charg 2-wave 3-comb
   ISYM   =      2    0-nonsym 1-usesym 2-fastsym
   LCORR  =      T    Harris-Foulkes like correction to forces

   POTIM  = 0.5000    time-step for ionic-motion
   TEIN   =    0.0    initial temperature
   TEBEG  =    0.0;   TEEND  =   0.0 temperature during run
   SMASS  =  -3.00    Nose mass-parameter (am)
   estimated Nose-frequenzy (Omega)   =  0.10E-29 period in steps =****** mass=  -0.109E-26a.u.
   SCALEE = 1.0000    scale energy and forces
   NPACO  =    256;   APACO  = 16.0  distance and # of slots for P.C.
   PSTRESS=    0.0 pullay stress

  Mass of Ions in am
   POMASS =  52.00 28.09 78.96
  Ionic Valenz
   ZVAL   =   6.00  4.00  6.00
  Atomic Wigner-Seitz radii
   RWIGS  =  -1.00 -1.00 -1.00
  virtual crystal weights 
   VCA    =   1.00  1.00  1.00
   NELECT =      56.0000    total number of electrons
   NUPDOWN=      -1.0000    fix difference up-down

 DOS related values:
   EMIN   =  10.00;   EMAX   =-10.00  energy-range for DOS
   EFERMI =   0.00
   ISMEAR =    -5;   SIGMA  =   0.05  broadening in eV -4-tet -1-fermi 0-gaus

 Electronic relaxation 2 (details)
   IALGO  =     38    algorithm
   LDIAG  =      T    sub-space diagonalisation (order eigenvalues)
   LSUBROT=      F    optimize rotation matrix (better conditioning)
   TURBO    =      0    0=normal 1=particle mesh
   IRESTART =      0    0=no restart 2=restart with 2 vectors
   NREBOOT  =      0    no. of reboots
   NMIN     =      0    reboot dimension
   EREF     =   0.00    reference energy to select bands
   IMIX   =      4    mixing-type and parameters
     AMIX     =   0.40;   BMIX     =  1.00
     AMIX_MAG =   1.60;   BMIX_MAG =  1.00
     AMIN     =   0.01
     WC   =   100.;   INIMIX=   1;  MIXPRE=   1;  MAXMIX= -45

 Intra band minimization:
   WEIMIN = 0.0010     energy-eigenvalue tresh-hold
   EBREAK =  0.52E-06  absolut break condition
   DEPER  =   0.30     relativ break condition  

   TIME   =   0.40     timestep for ELM

  volume/ion in A,a.u.               =      96.88       653.80
  Fermi-wavevector in a.u.,A,eV,Ry     =   0.632976  1.196152  5.451299  0.400659
  Thomas-Fermi vector in A             =   1.696476

 Write flags
   LWAVE        =      F    write WAVECAR
   LDOWNSAMPLE  =      F    k-point downsampling of WAVECAR
   LCHARG       =      T    write CHGCAR
   LVTOT        =      F    write LOCPOT, total local potential
   LVHAR        =      F    write LOCPOT, Hartree potential only
   LELF         =      F    write electronic localiz. function (ELF)
   LORBIT       =     11    0 simple, 1 ext, 2 COOP (PROOUT), +10 PAW based schemes


 Dipole corrections
   LMONO  =      F    monopole corrections only (constant potential shift)
   LDIPOL =      F    correct potential (dipole corrections)
   IDIPOL =      0    1-x, 2-y, 3-z, 4-all directions 
   EPSILON=  1.0000000 bulk dielectric constant

 Exchange correlation treatment:
   GGA     =    BO    GGA type
   LEXCH   =    42    internal setting for exchange type
   VOSKOWN=      0    Vosko Wilk Nusair interpolation
   LHFCALC =     F    Hartree Fock is set to
   LHFONE  =     F    Hartree Fock one center treatment
   AEXX    =    0.0000 exact exchange contribution

 vdW DFT:
   LUSE_VDW   =     T    switch on vdW DFT
   Zab_VDW    =-.8491    correlation parameter
   PARAM1     =0.1833
   PARAM2     =0.2200
   PARAM3     =0.0000
   -- rVV10 --
   BPARAM     = 6.3000
   CPARAM     = 0.0093

 Linear response parameters
   LEPSILON=     F    determine dielectric tensor
   LRPA    =     F    only Hartree local field effects (RPA)
   LNABLA  =     F    use nabla operator in PAW spheres
   LVEL    =     F    velocity operator in full k-point grid
   LINTERFAST=   F  fast interpolation
   KINTER  =     0    interpolate to denser k-point grid
   CSHIFT  =0.1000    complex shift for real part using Kramers Kronig
   OMEGAMAX=  -1.0    maximum frequency
   DEG_THRESHOLD= 0.2000000E-02 threshold for treating states as degnerate
   RTIME   =   -0.100 relaxation time in fs
  (WPLASMAI=    0.000 imaginary part of plasma frequency in eV, 0.658/RTIME)
   DFIELD  = 0.0000000 0.0000000 0.0000000 field for delta impulse in time

 Orbital magnetization related:
   ORBITALMAG=     F  switch on orbital magnetization
   LCHIMAG   =     F  perturbation theory with respect to B field
   DQ        =  0.001000  dq finite difference perturbation B field
   LLRAUG    =     F  two centre corrections for induced B field



--------------------------------------------------------------------------------------------------------


 conjugate gradient relaxation of ions
   using selective dynamics as specified on POSCAR
 charge density and potential will be updated during run
 spin polarized calculation
 Variant of blocked Davidson
 Davidson routine will perform the subspace rotation
 perform sub-space diagonalisation
    after iterative eigenvector-optimisation
 modified Broyden-mixing scheme, WC =      100.0
 initial mixing is a Kerker type mixing with AMIX =  0.4000 and BMIX =      1.0000
 Hartree-type preconditioning will be used
 using additional bands           20
 real space projection scheme for non local part
 use partial core corrections
 calculate Harris-corrections to forces   (improved forces if not selfconsistent)
 use gradient corrections 
 use of overlap-Matrix (Vanderbilt PP)
 Fermi weights with tetrahedron method with Bloechl corrections


--------------------------------------------------------------------------------------------------------


  energy-cutoff  :      520.00
  volume of cell :      968.84
      direct lattice vectors                 reciprocal lattice vectors
     6.907777000 -0.000000000  0.000000000     0.144764372 -0.083579742  0.000000000
     3.453888000  5.982310000  0.000000000     0.000000000  0.167159509 -0.000000000
     0.000000000  0.000000000 23.444588000    -0.000000000  0.000000000  0.042653767

  length of vectors
     6.907777000  6.907776433 23.444588000     0.167159495  0.167159509  0.042653767



 k-points in units of 2pi/SCALE and weight: Kpoints from vasprun.xml                
   0.00000000  0.00000000  0.00000000       0.040
   0.02895287 -0.01671595  0.00000000       0.240
   0.05790575 -0.03343190  0.00000000       0.240
   0.05790575  0.00000000  0.00000000       0.240
  -0.05790575  0.06686380  0.00000000       0.240

 k-points in reciprocal lattice and weights: Kpoints from vasprun.xml                
   0.00000000  0.00000000  0.00000000       0.040
   0.20000000  0.00000000  0.00000000       0.240
   0.40000000  0.00000000  0.00000000       0.240
   0.40000000  0.20000000  0.00000000       0.240
  -0.40000000  0.20000000  0.00000000       0.240

 position of ions in fractional coordinates (direct lattice) 
   0.33333300  0.33333300  0.49992500
   0.66666700  0.66666700  0.50007500
   0.00000000  0.00000000  0.44821600
   0.00000000  0.00000000  0.55178400
   0.62635700  0.00042000  0.57375200
   0.00042000  0.37322400  0.57375200
   0.37322400  0.62635700  0.57375200
   0.37364300  0.99958000  0.42624800
   0.99958000  0.62677600  0.42624800
   0.62677600  0.37364300  0.42624800

 position of ions in cartesian coordinates  (Angst):
   3.45388488  1.99410134 11.72053566
   6.90778012  3.98820866 11.72405234
   0.00000000  0.00000000 10.50823946
   0.00000000  0.00000000 12.93634854
   4.32818511  0.00251257 13.45137925
   1.29197516  2.23274167 13.45137925
   4.74151509  3.74706174 13.45137925
   6.03347989  5.97979743  9.99320875
   9.06968984  3.74956833  9.99320875
   5.62014991  2.23524826  9.99320875



--------------------------------------------------------------------------------------------------------


 k-point  1 :   0.0000 0.0000 0.0000  plane waves:   26073
 k-point  2 :   0.2000 0.0000 0.0000  plane waves:   26070
 k-point  3 :   0.4000 0.0000 0.0000  plane waves:   26086
 k-point  4 :   0.4000 0.2000 0.0000  plane waves:   26085
 k-point  5 :  -0.4000 0.2000 0.0000  plane waves:   26115

 maximum and minimum number of plane-waves per node :     26115    26070

 maximum number of plane-waves:     26115
 maximum index in each direction: 
   IXMAX=   13   IYMAX=   12   IZMAX=   43
   IXMIN=  -13   IYMIN=  -13   IZMIN=  -43


 serial   3D FFT for wavefunctions
 parallel 3D FFT for charge:
    minimum data exchange during FFTs selected (reduces bandwidth)


 total amount of memory used by VASP MPI-rank0   113598. kBytes
=======================================================================

   base      :      30000. kBytes
   nonlr-proj:       7052. kBytes
   fftplans  :       8558. kBytes
   grid      :      59268. kBytes
   one-center:        311. kBytes
   wavefun   :       8409. kBytes

     INWAV:  cpu time    0.0000: real time    0.0000
 Broyden mixing: mesh for mixing (old mesh)
   NGX = 25   NGY = 25   NGZ = 87
  (NGX  =108   NGY  =108   NGZ  =360)
  gives a total of  54375 points

 initial charge density was supplied:
 charge density of overlapping atoms calculated
 number of electron      56.0000000 magnetization      14.8000000
 keeping initial charge density in first step


--------------------------------------------------------------------------------------------------------


 Maximum index for non-local projection operator         7247
 Maximum index for augmentation-charges         1427 (set IRDMAX)


--------------------------------------------------------------------------------------------------------


 First call to EWALD:  gamma=   0.179
 Maximum number of real-space cells 4x 4x 1
 Maximum number of reciprocal cells 2x 2x 6

    FEWALD:  cpu time    0.0040: real time    0.0078


--------------------------------------- Iteration      1(   1)  ---------------------------------------


vdW kernel read from vdw_kernel.bindat
  0.0000  0.2424  0.5071  0.7962  1.1119  1.4567  1.8333  2.2446  2.6937  3.1842
  3.7199  4.3049  4.9438  5.6415  6.4036  7.2358  8.1446  9.1372 10.2212 11.4050
 12.6979 14.1099 15.6519 17.3360 19.1751 21.1837 23.3773 25.7729 28.3892 31.2465
 34.3669 37.7748 41.4965 45.5611 50.0000

    POTLOK:  cpu time   36.3320: real time   66.2627
    SETDIJ:  cpu time    0.0840: real time    0.0854
     EDDAV:  cpu time   20.7920: real time   32.5446
 BZINTS: Fermi energy:  5.122777; 56.000000 electrons
         Band energy: -40.702024;  BLOECHL correction: -0.053827
       DOS:  cpu time    0.0120: real time    0.0155
    --------------------------------------------
      LOOP:  cpu time   57.2200: real time   98.9083

 eigenvalue-minimisations  :   960
 total energy-change (2. order) : 0.3717619E+03  (-0.1660456E+04)
 number of electron      56.0000000 magnetization      14.8000000
 augmentation part       56.0000000 magnetization      14.8000000

 Free energy of the ion-electron system (eV)
  ---------------------------------------------------
  alpha Z        PSCENC =        29.07756033
  Ewald energy   TEWEN  =      5985.89955237
  -Hartree energ DENC   =     -8014.76401249
  -exchange      EXHF   =         0.00000000
  -V(xc)+E(xc)   XCENC  =       -66.47697914
  PAW double counting   =      1150.13217358     -984.69438568
  entropy T*S    EENTRO =         0.00000000
  eigenvalues    EBANDS =       -40.70202374
  atomic energy  EATOM  =      2313.29000814
  Solvation  Ediel_sol  =         0.00000000
  ---------------------------------------------------
  free energy    TOTEN  =       371.76189338 eV

  energy without entropy =      371.76189338  energy(sigma->0) =      371.76189338


--------------------------------------------------------------------------------------------------------




--------------------------------------- Iteration      1(   2)  ---------------------------------------


     EDDAV:  cpu time   28.6520: real time   44.9803
 BZINTS: Fermi energy: -1.887328; 55.961550 electrons
         Band energy:-415.049696;  BLOECHL correction: -0.016540
       DOS:  cpu time    0.0080: real time    0.0166
    --------------------------------------------
      LOOP:  cpu time   28.6600: real time   44.9969

 eigenvalue-minimisations  :  1560
 total energy-change (2. order) :-0.3743477E+03  (-0.3589328E+03)
 number of electron      56.0000000 magnetization      14.8000000
 augmentation part       56.0000000 magnetization      14.8000000

 Free energy of the ion-electron system (eV)
  ---------------------------------------------------
  alpha Z        PSCENC =        29.07756033
  Ewald energy   TEWEN  =      5985.89955237
  -Hartree energ DENC   =     -8014.76401249
  -exchange      EXHF   =         0.00000000
  -V(xc)+E(xc)   XCENC  =       -66.47697914
  PAW double counting   =      1150.13217358     -984.69438568
  entropy T*S    EENTRO =         0.00000000
  eigenvalues    EBANDS =      -415.04969623
  atomic energy  EATOM  =      2313.29000814
  Solvation  Ediel_sol  =         0.00000000
  ---------------------------------------------------
  free energy    TOTEN  =        -2.58577911 eV

  energy without entropy =       -2.58577911  energy(sigma->0) =       -2.58577911


--------------------------------------------------------------------------------------------------------




--------------------------------------- Iteration      1(   3)  ---------------------------------------


     EDDAV:  cpu time   23.0280: real time   41.1438
 BZINTS: Fermi energy: -2.731635; 56.000000 electrons
         Band energy:-461.021989;  BLOECHL correction: -0.010231
       DOS:  cpu time    0.0080: real time    0.0147
    --------------------------------------------
      LOOP:  cpu time   23.0360: real time   41.1585

 eigenvalue-minimisations  :  1344
 total energy-change (2. order) :-0.4597229E+02  (-0.4504816E+02)
 number of electron      56.0000000 magnetization      14.8000000
 augmentation part       56.0000000 magnetization      14.8000000

 Free energy of the ion-electron system (eV)
  ---------------------------------------------------
  alpha Z        PSCENC =        29.07756033
  Ewald energy   TEWEN  =      5985.89955237
  -Hartree energ DENC   =     -8014.76401249
  -exchange      EXHF   =         0.00000000
  -V(xc)+E(xc)   XCENC  =       -66.47697914
  PAW double counting   =      1150.13217358     -984.69438568
  entropy T*S    EENTRO =         0.00000000
  eigenvalues    EBANDS =      -461.02198945
  atomic energy  EATOM  =      2313.29000814
  Solvation  Ediel_sol  =         0.00000000
  ---------------------------------------------------
  free energy    TOTEN  =       -48.55807233 eV

  energy without entropy =      -48.55807233  energy(sigma->0) =      -48.55807233


--------------------------------------------------------------------------------------------------------




--------------------------------------- Iteration      1(   4)  ---------------------------------------


     EDDAV:  cpu time   21.1400: real time   37.6724
 BZINTS: Fermi energy: -2.738457; 56.000000 electrons
         Band energy:-462.727397;  BLOECHL correction: -0.011418
       DOS:  cpu time    0.0120: real time    0.0138
    --------------------------------------------
      LOOP:  cpu time   21.1520: real time   37.6862

 eigenvalue-minimisations  :  1200
 total energy-change (2. order) :-0.1705407E+01  (-0.1701370E+01)
 number of electron      56.0000000 magnetization      14.8000000
 augmentation part       56.0000000 magnetization      14.8000000

 Free energy of the ion-electron system (eV)
  ---------------------------------------------------
  alpha Z        PSCENC =        29.07756033
  Ewald energy   TEWEN  =      5985.89955237
  -Hartree energ DENC   =     -8014.76401249
  -exchange      EXHF   =         0.00000000
  -V(xc)+E(xc)   XCENC  =       -66.47697914
  PAW double counting   =      1150.13217358     -984.69438568
  entropy T*S    EENTRO =         0.00000000
  eigenvalues    EBANDS =      -462.72739680
  atomic energy  EATOM  =      2313.29000814
  Solvation  Ediel_sol  =         0.00000000
  ---------------------------------------------------
  free energy    TOTEN  =       -50.26347967 eV

  energy without entropy =      -50.26347967  energy(sigma->0) =      -50.26347967


--------------------------------------------------------------------------------------------------------




--------------------------------------- Iteration      1(   5)  ---------------------------------------


     EDDAV:  cpu time   23.3280: real time   41.2565
 BZINTS: Fermi energy: -2.738504; 56.000000 electrons
         Band energy:-462.786514;  BLOECHL correction: -0.011412
       DOS:  cpu time    0.0040: real time    0.0065
    CHARGE:  cpu time    2.2120: real time    2.2732
    MIXING:  cpu time    0.0680: real time    0.0797
    --------------------------------------------
      LOOP:  cpu time   25.6120: real time   43.6160

 eigenvalue-minimisations  :  1344
 total energy-change (2. order) :-0.5911726E-01  (-0.5909329E-01)
 number of electron      55.9999997 magnetization      13.8383611
 augmentation part       -4.7056534 magnetization      10.6968928

 Broyden mixing:
  rms(total) = 0.21629E+01    rms(broyden)= 0.21629E+01
  rms(prec ) = 0.23381E+01
  weight for this iteration     100.00

 Free energy of the ion-electron system (eV)
  ---------------------------------------------------
  alpha Z        PSCENC =        29.07756033
  Ewald energy   TEWEN  =      5985.89955237
  -Hartree energ DENC   =     -8014.76401249
  -exchange      EXHF   =         0.00000000
  -V(xc)+E(xc)   XCENC  =       -66.47697914
  PAW double counting   =      1150.13217358     -984.69438568
  entropy T*S    EENTRO =         0.00000000
  eigenvalues    EBANDS =      -462.78651406
  atomic energy  EATOM  =      2313.29000814
  Solvation  Ediel_sol  =         0.00000000
  ---------------------------------------------------
  free energy    TOTEN  =       -50.32259693 eV

  energy without entropy =      -50.32259693  energy(sigma->0) =      -50.32259693


--------------------------------------------------------------------------------------------------------




--------------------------------------- Iteration      1(   6)  ---------------------------------------


    POTLOK:  cpu time   40.8600: real time   65.8124
    SETDIJ:  cpu time    0.0720: real time    0.0689
     EDDAV:  cpu time   22.7840: real time   40.0040
 BZINTS: Fermi energy: -5.001001; 56.000000 electrons
         Band energy:-531.678567;  BLOECHL correction: -0.031919
       DOS:  cpu time    0.0160: real time    0.0186
    CHARGE:  cpu time    1.2080: real time    2.4173
    MIXING:  cpu time    0.0240: real time    0.0589
    --------------------------------------------
      LOOP:  cpu time   64.9640: real time  108.3801

 eigenvalue-minimisations  :  1344
 total energy-change (2. order) :-0.2972302E+02  (-0.2042270E+02)
 number of electron      55.9999995 magnetization      13.5673230
 augmentation part        7.2042609 magnetization      10.2813215

 Broyden mixing:
  rms(total) = 0.55431E+01    rms(broyden)= 0.55431E+01
  rms(prec ) = 0.62251E+01
  weight for this iteration     100.00

 eigenvalues of (default mixing * dielectric matrix)
  average eigenvalue GAMMA=   0.2454
  0.2454

 Free energy of the ion-electron system (eV)
  ---------------------------------------------------
  alpha Z        PSCENC =        29.07756033
  Ewald energy   TEWEN  =      5985.89955237
  -Hartree energ DENC   =     -7981.25880467
  -exchange      EXHF   =         0.00000000
  -V(xc)+E(xc)   XCENC  =       -68.28198755
  PAW double counting   =      1110.03376009     -937.12714212
  entropy T*S    EENTRO =         0.00000000
  eigenvalues    EBANDS =      -531.67856677
  atomic energy  EATOM  =      2313.29000814
  Solvation  Ediel_sol  =         0.00000000
  ---------------------------------------------------
  free energy    TOTEN  =       -80.04562019 eV

  energy without entropy =      -80.04562019  energy(sigma->0) =      -80.04562019


--------------------------------------------------------------------------------------------------------




--------------------------------------- Iteration      1(   7)  ---------------------------------------


    POTLOK:  cpu time   35.6240: real time   65.0717
    SETDIJ:  cpu time    0.0320: real time    0.0700
     EDDAV:  cpu time   20.4360: real time   37.4756
 BZINTS: Fermi energy: -3.361003; 56.000000 electrons
         Band energy:-456.450475;  BLOECHL correction:  0.000000
       DOS:  cpu time    0.0080: real time    0.0175
    CHARGE:  cpu time    1.1760: real time    2.3348
    MIXING:  cpu time    0.0320: real time    0.0625
    --------------------------------------------
      LOOP:  cpu time   57.3080: real time  105.0322

 eigenvalue-minimisations  :  1176
 total energy-change (2. order) : 0.3646083E+02  (-0.6066851E+01)
 number of electron      55.9999996 magnetization      13.0991229
 augmentation part       -2.9930115 magnetization      10.7009859

 Broyden mixing:
  rms(total) = 0.15037E+01    rms(broyden)= 0.15037E+01
  rms(prec ) = 0.15424E+01
  weight for this iteration     100.00

 eigenvalues of (default mixing * dielectric matrix)
  average eigenvalue GAMMA=   0.3877
  0.5748  0.2006

 Free energy of the ion-electron system (eV)
  ---------------------------------------------------
  alpha Z        PSCENC =        29.07756033
  Ewald energy   TEWEN  =      5985.89955237
  -Hartree energ DENC   =     -8012.25402169
  -exchange      EXHF   =         0.00000000
  -V(xc)+E(xc)   XCENC  =       -69.04085617
  PAW double counting   =      1169.54000955    -1003.64656680
  entropy T*S    EENTRO =         0.00000000
  eigenvalues    EBANDS =      -456.45047480
  atomic energy  EATOM  =      2313.29000814
  Solvation  Ediel_sol  =         0.00000000
  ---------------------------------------------------
  free energy    TOTEN  =       -43.58478908 eV

  energy without entropy =      -43.58478908  energy(sigma->0) =      -43.58478908


--------------------------------------------------------------------------------------------------------




--------------------------------------- Iteration      1(   8)  ---------------------------------------


    POTLOK:  cpu time   36.1880: real time   65.3143
    SETDIJ:  cpu time    0.0280: real time    0.0734
     EDDAV:  cpu time   23.0560: real time   39.0271
 BZINTS: Fermi energy: -3.807263; 56.000000 electrons
         Band energy:-459.776332;  BLOECHL correction:  0.000000
       DOS:  cpu time    0.0000: real time    0.0018
    CHARGE:  cpu time    1.2600: real time    2.2770
    MIXING:  cpu time    0.0280: real time    0.0605
    --------------------------------------------
      LOOP:  cpu time   60.5600: real time  106.7541

 eigenvalue-minimisations  :  1272
 total energy-change (2. order) :-0.1441414E+01  (-0.4596839E+00)
 number of electron      55.9999996 magnetization      11.8208802
 augmentation part       -2.7127379 magnetization       9.6376214

 Broyden mixing:
  rms(total) = 0.86262E+00    rms(broyden)= 0.86261E+00
  rms(prec ) = 0.89508E+00
  weight for this iteration     100.00

 eigenvalues of (default mixing * dielectric matrix)
  average eigenvalue GAMMA=   0.6410
  0.2155  0.8537  0.8537

 Free energy of the ion-electron system (eV)
  ---------------------------------------------------
  alpha Z        PSCENC =        29.07756033
  Ewald energy   TEWEN  =      5985.89955237
  -Hartree energ DENC   =     -8010.75956171
  -exchange      EXHF   =         0.00000000
  -V(xc)+E(xc)   XCENC  =       -68.59548352
  PAW double counting   =      1168.54353937    -1002.70548612
  entropy T*S    EENTRO =         0.00000000
  eigenvalues    EBANDS =      -459.77633195
  atomic energy  EATOM  =      2313.29000814
  Solvation  Ediel_sol  =         0.00000000
  ---------------------------------------------------
  free energy    TOTEN  =       -45.02620309 eV

  energy without entropy =      -45.02620309  energy(sigma->0) =      -45.02620309


--------------------------------------------------------------------------------------------------------




--------------------------------------- Iteration      1(   9)  ---------------------------------------


    POTLOK:  cpu time   35.2920: real time   65.1068
    SETDIJ:  cpu time    0.0520: real time    0.0836
     EDDAV:  cpu time   26.5400: real time   47.7422
 BZINTS: Fermi energy: -4.232944; 56.000000 electrons
         Band energy:-591.398511;  BLOECHL correction: -0.155559
       DOS:  cpu time    0.0040: real time    0.0041
    CHARGE:  cpu time    1.3680: real time    2.5201
    MIXING:  cpu time    0.0200: real time    0.0634
    --------------------------------------------
      LOOP:  cpu time   63.2760: real time  115.5202

 eigenvalue-minimisations  :  1608
 total energy-change (2. order) :-0.1331204E+03  (-0.1312671E+03)
 number of electron      55.9999996 magnetization      11.8128506
 augmentation part       -2.0090159 magnetization      10.0815079

 Broyden mixing:
  rms(total) = 0.31420E+01    rms(broyden)= 0.30725E+01
  rms(prec ) = 0.31223E+01
  weight for this iteration     100.00

 eigenvalues of (default mixing * dielectric matrix)
  average eigenvalue GAMMA=   0.4828
  0.8536  0.8536  0.2155  0.0086

 Free energy of the ion-electron system (eV)
  ---------------------------------------------------
  alpha Z        PSCENC =        29.07756033
  Ewald energy   TEWEN  =      5985.89955237
  -Hartree energ DENC   =     -8013.66002342
  -exchange      EXHF   =         0.00000000
  -V(xc)+E(xc)   XCENC  =       -67.01175490
  PAW double counting   =      1179.14615461    -1013.48958773
  entropy T*S    EENTRO =         0.00000000
  eigenvalues    EBANDS =      -591.39851052
  atomic energy  EATOM  =      2313.29000814
  Solvation  Ediel_sol  =         0.00000000
  ---------------------------------------------------
  free energy    TOTEN  =      -178.14660113 eV

  energy without entropy =     -178.14660113  energy(sigma->0) =     -178.14660113


--------------------------------------------------------------------------------------------------------




--------------------------------------- Iteration      1(  10)  ---------------------------------------


    POTLOK:  cpu time   44.1880: real time   65.7349
    SETDIJ:  cpu time    0.0760: real time    0.0771
     EDDAV:  cpu time   23.8440: real time   41.0444
 BZINTS: Fermi energy: -3.502663; 56.000000 electrons
         Band energy:-458.185382;  BLOECHL correction:  0.000000
       DOS:  cpu time    0.0000: real time    0.0033
    CHARGE:  cpu time    1.1680: real time    2.5249
    MIXING:  cpu time    0.0320: real time    0.0719
    --------------------------------------------
      LOOP:  cpu time   69.3080: real time  109.4566

 eigenvalue-minimisations  :  1344
 total energy-change (2. order) : 0.1347124E+03  (-0.2927832E+03)
 number of electron      55.9999996 magnetization      10.6479777
 augmentation part       -2.1008561 magnetization       9.0416164

 Broyden mixing:
  rms(total) = 0.67501E+00    rms(broyden)= 0.42345E+00
  rms(prec ) = 0.42742E+00
  weight for this iteration     100.00
  WARNING: grid for Broyden might be to small

 eigenvalues of (default mixing * dielectric matrix)
  average eigenvalue GAMMA=   0.6719
  1.2594  1.2594  0.6143  0.2141  0.0122

 Free energy of the ion-electron system (eV)
  ---------------------------------------------------
  alpha Z        PSCENC =        29.07756033
  Ewald energy   TEWEN  =      5985.89955237
  -Hartree energ DENC   =     -8013.45910664
  -exchange      EXHF   =         0.00000000
  -V(xc)+E(xc)   XCENC  =       -65.69818576
  PAW double counting   =      1178.84092310    -1013.19957445
  entropy T*S    EENTRO =         0.00000000
  eigenvalues    EBANDS =      -458.18538186
  atomic energy  EATOM  =      2313.29000814
  Solvation  Ediel_sol  =         0.00000000
  ---------------------------------------------------
  free energy    TOTEN  =       -43.43420477 eV

  energy without entropy =      -43.43420477  energy(sigma->0) =      -43.43420477


--------------------------------------------------------------------------------------------------------




--------------------------------------- Iteration      1(  11)  ---------------------------------------


    POTLOK:  cpu time   35.8120: real time   64.6175
    SETDIJ:  cpu time    0.0280: real time    0.0736
     EDDAV:  cpu time   23.8520: real time   41.8523
 BZINTS: Fermi energy: -4.106366; 56.000000 electrons
         Band energy:-459.586167;  BLOECHL correction:  0.000000
       DOS:  cpu time    0.0000: real time    0.0031
    CHARGE:  cpu time    1.2280: real time    2.3627
    MIXING:  cpu time    0.0280: real time    0.0617
    --------------------------------------------
      LOOP:  cpu time   60.9480: real time  108.9709

 eigenvalue-minimisations  :  1392
 total energy-change (2. order) :-0.2669226E+01  (-0.5954567E+00)
 number of electron      55.9999996 magnetization       9.5240901
 augmentation part       -1.8185345 magnetization       8.1936321

 Broyden mixing:
  rms(total) = 0.28877E+00    rms(broyden)= 0.26891E+00
  rms(prec ) = 0.27287E+00
  weight for this iteration     100.00

 eigenvalues of (default mixing * dielectric matrix)
  average eigenvalue GAMMA=   0.8668
  2.4943  0.2141  1.0255  0.8258  0.6287  0.0122

 Free energy of the ion-electron system (eV)
  ---------------------------------------------------
  alpha Z        PSCENC =        29.07756033
  Ewald energy   TEWEN  =      5985.89955237
  -Hartree energ DENC   =     -8014.23417997
  -exchange      EXHF   =         0.00000000
  -V(xc)+E(xc)   XCENC  =       -65.68310644
  PAW double counting   =      1177.15719384    -1012.02429161
  entropy T*S    EENTRO =         0.00000000
  eigenvalues    EBANDS =      -459.58616704
  atomic energy  EATOM  =      2313.29000814
  Solvation  Ediel_sol  =         0.00000000
  ---------------------------------------------------
  free energy    TOTEN  =       -46.10343037 eV

  energy without entropy =      -46.10343037  energy(sigma->0) =      -46.10343037


--------------------------------------------------------------------------------------------------------




--------------------------------------- Iteration      1(  12)  ---------------------------------------


    POTLOK:  cpu time   37.2040: real time   65.3611
    SETDIJ:  cpu time    0.0280: real time    0.0744
     EDDAV:  cpu time   22.9000: real time   41.4521
 BZINTS: Fermi energy: -4.107759; 56.000000 electrons
         Band energy:-459.621825;  BLOECHL correction:  0.000000
       DOS:  cpu time    0.0000: real time    0.0015
    CHARGE:  cpu time    1.3520: real time    2.4430
    MIXING:  cpu time    0.0560: real time    0.0747
    --------------------------------------------
      LOOP:  cpu time   61.5400: real time  109.4067

 eigenvalue-minimisations  :  1368
 total energy-change (2. order) :-0.5026325E+00  (-0.7773028E-01)
 number of electron      55.9999996 magnetization       8.1360769
 augmentation part       -1.7770376 magnetization       6.9530085

 Broyden mixing:
  rms(total) = 0.26382E+00    rms(broyden)= 0.26298E+00
  rms(prec ) = 0.26924E+00
  weight for this iteration     100.00

 eigenvalues of (default mixing * dielectric matrix)
  average eigenvalue GAMMA=   1.0229
  3.2314  1.1951  1.1951  0.2141  0.6562  0.6562  0.0122

 Free energy of the ion-electron system (eV)
  ---------------------------------------------------
  alpha Z        PSCENC =        29.07756033
  Ewald energy   TEWEN  =      5985.89955237
  -Hartree energ DENC   =     -8015.05999618
  -exchange      EXHF   =         0.00000000
  -V(xc)+E(xc)   XCENC  =       -65.20952829
  PAW double counting   =      1177.38562701    -1012.36746101
  entropy T*S    EENTRO =         0.00000000
  eigenvalues    EBANDS =      -459.62182530
  atomic energy  EATOM  =      2313.29000814
  Solvation  Ediel_sol  =         0.00000000
  ---------------------------------------------------
  free energy    TOTEN  =       -46.60606292 eV

  energy without entropy =      -46.60606292  energy(sigma->0) =      -46.60606292


--------------------------------------------------------------------------------------------------------




--------------------------------------- Iteration      1(  13)  ---------------------------------------


    POTLOK:  cpu time   36.4400: real time   65.2306
    SETDIJ:  cpu time    0.0320: real time    0.0809
     EDDAV:  cpu time   23.2680: real time   40.4399
 BZINTS: Fermi energy: -4.040031; 56.000000 electrons
         Band energy:-458.694524;  BLOECHL correction:  0.000000
       DOS:  cpu time    0.0000: real time    0.0012
    CHARGE:  cpu time    1.2320: real time    2.4632
    MIXING:  cpu time    0.0320: real time    0.0743
    --------------------------------------------
      LOOP:  cpu time   61.0080: real time  108.2901

 eigenvalue-minimisations  :  1344
 total energy-change (2. order) :-0.2504494E+00  (-0.7787825E-02)
 number of electron      55.9999996 magnetization       6.8474174
 augmentation part       -1.8221888 magnetization       5.6207665

 Broyden mixing:
  rms(total) = 0.20215E+00    rms(broyden)= 0.20211E+00
  rms(prec ) = 0.20744E+00
  weight for this iteration     100.00

 eigenvalues of (default mixing * dielectric matrix)
  average eigenvalue GAMMA=   1.2325
  4.4695  1.5190  1.5190  0.2141  0.7569  0.7569  0.6121  0.0122

 Free energy of the ion-electron system (eV)
  ---------------------------------------------------
  alpha Z        PSCENC =        29.07756033
  Ewald energy   TEWEN  =      5985.89955237
  -Hartree energ DENC   =     -8015.68383676
  -exchange      EXHF   =         0.00000000
  -V(xc)+E(xc)   XCENC  =       -65.45170448
  PAW double counting   =      1175.20655207    -1010.50012023
  entropy T*S    EENTRO =         0.00000000
  eigenvalues    EBANDS =      -458.69452379
  atomic energy  EATOM  =      2313.29000814
  Solvation  Ediel_sol  =         0.00000000
  ---------------------------------------------------
  free energy    TOTEN  =       -46.85651235 eV

  energy without entropy =      -46.85651235  energy(sigma->0) =      -46.85651235


--------------------------------------------------------------------------------------------------------




--------------------------------------- Iteration      1(  14)  ---------------------------------------


    POTLOK:  cpu time   43.3080: real time   65.2117
    SETDIJ:  cpu time    0.0200: real time    0.0559
     EDDAV:  cpu time   24.9280: real time   40.7298
 BZINTS: Fermi energy: -4.073480; 56.000000 electrons
         Band energy:-457.711076;  BLOECHL correction:  0.000000
       DOS:  cpu time    0.0040: real time    0.0142
    CHARGE:  cpu time    1.2880: real time    2.3038
    MIXING:  cpu time    0.0400: real time    0.0829
    --------------------------------------------
      LOOP:  cpu time   69.5840: real time  108.3983

 eigenvalue-minimisations  :  1344
 total energy-change (2. order) :-0.1481921E+00  (-0.8441905E-02)
 number of electron      55.9999996 magnetization       6.2090888
 augmentation part       -1.9200810 magnetization       4.8902638

 Broyden mixing:
  rms(total) = 0.89594E-01    rms(broyden)= 0.89590E-01
  rms(prec ) = 0.91753E-01
  weight for this iteration     100.00

 eigenvalues of (default mixing * dielectric matrix)
  average eigenvalue GAMMA=   1.5745
  7.3297  1.7488  1.7488  0.2141  0.9108  0.9108  0.6763  0.6186  0.0122

 Free energy of the ion-electron system (eV)
  ---------------------------------------------------
  alpha Z        PSCENC =        29.07756033
  Ewald energy   TEWEN  =      5985.89955237
  -Hartree energ DENC   =     -8016.34972483
  -exchange      EXHF   =         0.00000000
  -V(xc)+E(xc)   XCENC  =       -66.04760153
  PAW double counting   =      1174.72533807    -1009.88876145
  entropy T*S    EENTRO =         0.00000000
  eigenvalues    EBANDS =      -457.71107560
  atomic energy  EATOM  =      2313.29000814
  Solvation  Ediel_sol  =         0.00000000
  ---------------------------------------------------
  free energy    TOTEN  =       -47.00470450 eV

  energy without entropy =      -47.00470450  energy(sigma->0) =      -47.00470450


--------------------------------------------------------------------------------------------------------




--------------------------------------- Iteration      1(  15)  ---------------------------------------


    POTLOK:  cpu time   36.3920: real time   66.0072
    SETDIJ:  cpu time    0.0760: real time    0.0778
     EDDAV:  cpu time   22.0360: real time   38.2872
 BZINTS: Fermi energy: -4.053516; 56.000000 electrons
         Band energy:-457.061765;  BLOECHL correction:  0.000000
       DOS:  cpu time    0.0080: real time    0.0272
    CHARGE:  cpu time    1.1720: real time    2.3793
    MIXING:  cpu time    0.0320: real time    0.0653
    --------------------------------------------
      LOOP:  cpu time   59.7160: real time  106.8440

 eigenvalue-minimisations  :  1248
 total energy-change (2. order) :-0.2376072E-01  (-0.5002491E-02)
 number of electron      55.9999996 magnetization       6.0371430
 augmentation part       -1.9607553 magnetization       4.6419678

 Broyden mixing:
  rms(total) = 0.33589E-01    rms(broyden)= 0.33588E-01
  rms(prec ) = 0.34614E-01
  weight for this iteration     100.00

 eigenvalues of (default mixing * dielectric matrix)
  average eigenvalue GAMMA=   1.6907
  8.7352  1.9331  1.9331  0.2141  1.1080  0.8410  0.8410  0.6701  0.6188  0.0122

 Free energy of the ion-electron system (eV)
  ---------------------------------------------------
  alpha Z        PSCENC =        29.07756033
  Ewald energy   TEWEN  =      5985.89955237
  -Hartree energ DENC   =     -8016.66481967
  -exchange      EXHF   =         0.00000000
  -V(xc)+E(xc)   XCENC  =       -66.52080358
  PAW double counting   =      1174.20922043    -1009.25741801
  entropy T*S    EENTRO =         0.00000000
  eigenvalues    EBANDS =      -457.06176523
  atomic energy  EATOM  =      2313.29000814
  Solvation  Ediel_sol  =         0.00000000
  ---------------------------------------------------
  free energy    TOTEN  =       -47.02846522 eV

  energy without entropy =      -47.02846522  energy(sigma->0) =      -47.02846522


--------------------------------------------------------------------------------------------------------




--------------------------------------- Iteration      1(  16)  ---------------------------------------


    POTLOK:  cpu time   35.8240: real time   65.3546
    SETDIJ:  cpu time    0.0320: real time    0.0750
     EDDAV:  cpu time   22.1520: real time   39.9259
 BZINTS: Fermi energy: -4.043114; 56.000000 electrons
         Band energy:-456.797319;  BLOECHL correction:  0.000000
       DOS:  cpu time    0.0000: real time    0.0123
    CHARGE:  cpu time    1.2160: real time    2.3731
    MIXING:  cpu time    0.0320: real time    0.0694
    --------------------------------------------
      LOOP:  cpu time   59.2560: real time  107.8103

 eigenvalue-minimisations  :  1320
 total energy-change (2. order) :-0.3717279E-02  (-0.7650481E-03)
 number of electron      55.9999996 magnetization       6.0049250
 augmentation part       -1.9602168 magnetization       4.6020299

 Broyden mixing:
  rms(total) = 0.27016E-01    rms(broyden)= 0.27016E-01
  rms(prec ) = 0.27592E-01
  weight for this iteration     100.00

 eigenvalues of (default mixing * dielectric matrix)
  average eigenvalue GAMMA=   1.7160
  9.1769  2.2587  1.6787  1.6787  0.2141  0.9278  0.9278  0.6942  0.6942  0.6128
  0.0122

 Free energy of the ion-electron system (eV)
  ---------------------------------------------------
  alpha Z        PSCENC =        29.07756033
  Ewald energy   TEWEN  =      5985.89955237
  -Hartree energ DENC   =     -8016.93057985
  -exchange      EXHF   =         0.00000000
  -V(xc)+E(xc)   XCENC  =       -66.60456040
  PAW double counting   =      1174.78326728    -1009.75011140
  entropy T*S    EENTRO =         0.00000000
  eigenvalues    EBANDS =      -456.79731897
  atomic energy  EATOM  =      2313.29000814
  Solvation  Ediel_sol  =         0.00000000
  ---------------------------------------------------
  free energy    TOTEN  =       -47.03218250 eV

  energy without entropy =      -47.03218250  energy(sigma->0) =      -47.03218250


--------------------------------------------------------------------------------------------------------




--------------------------------------- Iteration      1(  17)  ---------------------------------------


    POTLOK:  cpu time   35.7080: real time   65.9723
    SETDIJ:  cpu time    0.0280: real time    0.0665
     EDDAV:  cpu time   20.1360: real time   34.4141
 BZINTS: Fermi energy: -4.032091; 56.000000 electrons
         Band energy:-456.705094;  BLOECHL correction:  0.000000
       DOS:  cpu time    0.0080: real time    0.0186
    CHARGE:  cpu time    1.5040: real time    2.2599
    MIXING:  cpu time    0.0760: real time    0.0775
    --------------------------------------------
      LOOP:  cpu time   57.4600: real time  102.8089

 eigenvalue-minimisations  :  1080
 total energy-change (2. order) : 0.1409112E-03  (-0.7887425E-04)
 number of electron      55.9999996 magnetization       6.0013854
 augmentation part       -1.9577622 magnetization       4.6023458

 Broyden mixing:
  rms(total) = 0.23438E-01    rms(broyden)= 0.23438E-01
  rms(prec ) = 0.23973E-01
  weight for this iteration     100.00

 eigenvalues of (default mixing * dielectric matrix)
  average eigenvalue GAMMA=   1.6948
  9.3088  2.5734  1.7563  1.7563  0.2141  0.9821  0.9821  0.7487  0.7487  0.6126
  0.6428  0.0122

 Free energy of the ion-electron system (eV)
  ---------------------------------------------------
  alpha Z        PSCENC =        29.07756033
  Ewald energy   TEWEN  =      5985.89955237
  -Hartree energ DENC   =     -8017.04374243
  -exchange      EXHF   =         0.00000000
  -V(xc)+E(xc)   XCENC  =       -66.58111531
  PAW double counting   =      1174.94975492    -1009.91896607
  entropy T*S    EENTRO =         0.00000000
  eigenvalues    EBANDS =      -456.70509353
  atomic energy  EATOM  =      2313.29000814
  Solvation  Ediel_sol  =         0.00000000
  ---------------------------------------------------
  free energy    TOTEN  =       -47.03204159 eV

  energy without entropy =      -47.03204159  energy(sigma->0) =      -47.03204159


--------------------------------------------------------------------------------------------------------




--------------------------------------- Iteration      1(  18)  ---------------------------------------


    POTLOK:  cpu time   37.8040: real time   65.5921
    SETDIJ:  cpu time    0.0240: real time    0.0505
     EDDAV:  cpu time   18.0800: real time   31.9394
 BZINTS: Fermi energy: -4.050800; 56.000000 electrons
         Band energy:-456.658933;  BLOECHL correction:  0.000000
       DOS:  cpu time    0.0000: real time    0.0038
    CHARGE:  cpu time    1.3080: real time    2.4385
    MIXING:  cpu time    0.0320: real time    0.0679
    --------------------------------------------
      LOOP:  cpu time   57.2480: real time  100.0922

 eigenvalue-minimisations  :   960
 total energy-change (2. order) :-0.6916885E-03  (-0.3082207E-04)
 number of electron      55.9999996 magnetization       6.0009107
 augmentation part       -1.9569115 magnetization       4.6046116

 Broyden mixing:
  rms(total) = 0.22793E-01    rms(broyden)= 0.22793E-01
  rms(prec ) = 0.23310E-01
  weight for this iteration     100.00

 eigenvalues of (default mixing * dielectric matrix)
  average eigenvalue GAMMA=   1.6698
  9.3335  2.6934  1.8251  1.8251  0.2141  1.1777  0.9581  0.9581  0.7301  0.7301
  0.6167  0.6330  0.0122

 Free energy of the ion-electron system (eV)
  ---------------------------------------------------
  alpha Z        PSCENC =        29.07756033
  Ewald energy   TEWEN  =      5985.89955237
  -Hartree energ DENC   =     -8017.10231496
  -exchange      EXHF   =         0.00000000
  -V(xc)+E(xc)   XCENC  =       -66.56379181
  PAW double counting   =      1175.01058877    -1009.98540281
  entropy T*S    EENTRO =         0.00000000
  eigenvalues    EBANDS =      -456.65893331
  atomic energy  EATOM  =      2313.29000814
  Solvation  Ediel_sol  =         0.00000000
  ---------------------------------------------------
  free energy    TOTEN  =       -47.03273328 eV

  energy without entropy =      -47.03273328  energy(sigma->0) =      -47.03273328


--------------------------------------------------------------------------------------------------------




--------------------------------------- Iteration      1(  19)  ---------------------------------------


    POTLOK:  cpu time   41.9000: real time   65.2527
    SETDIJ:  cpu time    0.0320: real time    0.0808
     EDDAV:  cpu time   18.6080: real time   30.3471
 BZINTS: Fermi energy: -4.058736; 56.000000 electrons
         Band energy:-456.614712;  BLOECHL correction:  0.000000
       DOS:  cpu time    0.0040: real time    0.0088
    CHARGE:  cpu time    1.2840: real time    2.3287
    MIXING:  cpu time    0.0360: real time    0.0753
    --------------------------------------------
      LOOP:  cpu time   61.8640: real time   98.0934

 eigenvalue-minimisations  :   912
 total energy-change (2. order) :-0.5442904E-03  (-0.1501668E-04)
 number of electron      55.9999996 magnetization       6.0003039
 augmentation part       -1.9566136 magnetization       4.6047903

 Broyden mixing:
  rms(total) = 0.22642E-01    rms(broyden)= 0.22642E-01
  rms(prec ) = 0.23145E-01
  weight for this iteration     100.00

 eigenvalues of (default mixing * dielectric matrix)
  average eigenvalue GAMMA=   1.6459
  9.3371  2.7539  1.8668  1.6728  1.6728  0.2141  0.0122  0.9950  0.9950  0.7994
  0.7994  0.6143  0.6687  0.6410

 Free energy of the ion-electron system (eV)
  ---------------------------------------------------
  alpha Z        PSCENC =        29.07756033
  Ewald energy   TEWEN  =      5985.89955237
  -Hartree energ DENC   =     -8017.14584202
  -exchange      EXHF   =         0.00000000
  -V(xc)+E(xc)   XCENC  =       -66.56207145
  PAW double counting   =      1175.02321289    -1010.00098595
  entropy T*S    EENTRO =         0.00000000
  eigenvalues    EBANDS =      -456.61471189
  atomic energy  EATOM  =      2313.29000814
  Solvation  Ediel_sol  =         0.00000000
  ---------------------------------------------------
  free energy    TOTEN  =       -47.03327757 eV

  energy without entropy =      -47.03327757  energy(sigma->0) =      -47.03327757


--------------------------------------------------------------------------------------------------------




--------------------------------------- Iteration      1(  20)  ---------------------------------------


    POTLOK:  cpu time   36.8800: real time   64.8024
    SETDIJ:  cpu time    0.0440: real time    0.1043
     EDDAV:  cpu time   19.7760: real time   33.6400
 BZINTS: Fermi energy: -4.064661; 56.000000 electrons
         Band energy:-456.546095;  BLOECHL correction:  0.000000
       DOS:  cpu time    0.0000: real time    0.0012
    CHARGE:  cpu time    1.2080: real time    2.4218
    MIXING:  cpu time    0.0400: real time    0.0701
    --------------------------------------------
      LOOP:  cpu time   57.9480: real time  101.0398

 eigenvalue-minimisations  :  1056
 total energy-change (2. order) :-0.6756946E-03  (-0.2765943E-04)
 number of electron      55.9999996 magnetization       5.9996367
 augmentation part       -1.9568656 magnetization       4.6038453

 Broyden mixing:
  rms(total) = 0.22409E-01    rms(broyden)= 0.22409E-01
  rms(prec ) = 0.22898E-01
  weight for this iteration     100.00

 eigenvalues of (default mixing * dielectric matrix)
  average eigenvalue GAMMA=   1.6488
  9.3392  2.8139  2.2237  1.7836  1.7836  0.2141  0.0122  1.1064  0.9942  0.9942
  0.7710  0.7710  0.6796  0.6156  0.6292

 Free energy of the ion-electron system (eV)
  ---------------------------------------------------
  alpha Z        PSCENC =        29.07756033
  Ewald energy   TEWEN  =      5985.89955237
  -Hartree energ DENC   =     -8017.21019593
  -exchange      EXHF   =         0.00000000
  -V(xc)+E(xc)   XCENC  =       -66.56472889
  PAW double counting   =      1175.02631358    -1010.00636810
  entropy T*S    EENTRO =         0.00000000
  eigenvalues    EBANDS =      -456.54609477
  atomic energy  EATOM  =      2313.29000814
  Solvation  Ediel_sol  =         0.00000000
  ---------------------------------------------------
  free energy    TOTEN  =       -47.03395326 eV

  energy without entropy =      -47.03395326  energy(sigma->0) =      -47.03395326


--------------------------------------------------------------------------------------------------------




--------------------------------------- Iteration      1(  21)  ---------------------------------------


    POTLOK:  cpu time   46.3600: real time   65.0888
    SETDIJ:  cpu time    0.0240: real time    0.0684
     EDDAV:  cpu time   16.9480: real time   31.4818
 BZINTS: Fermi energy: -4.058392; 56.000000 electrons
         Band energy:-456.411474;  BLOECHL correction:  0.000000
       DOS:  cpu time    0.0040: real time    0.0217
    CHARGE:  cpu time    1.4600: real time    2.2618
    MIXING:  cpu time    0.0360: real time    0.0761
    --------------------------------------------
      LOOP:  cpu time   64.8320: real time   98.9985

 eigenvalue-minimisations  :   912
 total energy-change (2. order) :-0.6244372E-03  (-0.3210861E-04)
 number of electron      55.9999996 magnetization       5.9995107
 augmentation part       -1.9568759 magnetization       4.6034847

 Broyden mixing:
  rms(total) = 0.21991E-01    rms(broyden)= 0.21991E-01
  rms(prec ) = 0.22463E-01
  weight for this iteration     100.00

 eigenvalues of (default mixing * dielectric matrix)
  average eigenvalue GAMMA=   1.6418
  9.3399  2.9092  2.5291  1.8476  1.8476  1.3399  0.2141  0.0122  1.0066  1.0066
  0.8069  0.8069  0.6803  0.6803  0.6209  0.6209

 Free energy of the ion-electron system (eV)
  ---------------------------------------------------
  alpha Z        PSCENC =        29.07756033
  Ewald energy   TEWEN  =      5985.89955237
  -Hartree energ DENC   =     -8017.34088743
  -exchange      EXHF   =         0.00000000
  -V(xc)+E(xc)   XCENC  =       -66.56786403
  PAW double counting   =      1175.03646895    -1010.01794211
  entropy T*S    EENTRO =         0.00000000
  eigenvalues    EBANDS =      -456.41147392
  atomic energy  EATOM  =      2313.29000814
  Solvation  Ediel_sol  =         0.00000000
  ---------------------------------------------------
  free energy    TOTEN  =       -47.03457770 eV

  energy without entropy =      -47.03457770  energy(sigma->0) =      -47.03457770


--------------------------------------------------------------------------------------------------------




--------------------------------------- Iteration      1(  22)  ---------------------------------------


    POTLOK:  cpu time   36.6720: real time   64.8334
    SETDIJ:  cpu time    0.0360: real time    0.0866
     EDDAV:  cpu time   18.3160: real time   32.9634
 BZINTS: Fermi energy: -4.058410; 56.000000 electrons
         Band energy:-456.172015;  BLOECHL correction:  0.000000
       DOS:  cpu time    0.0000: real time    0.0133
    CHARGE:  cpu time    1.2320: real time    2.3453
    MIXING:  cpu time    0.0920: real time    0.0915
    --------------------------------------------
      LOOP:  cpu time   56.3480: real time  100.3334

 eigenvalue-minimisations  :  1008
 total energy-change (2. order) :-0.1201396E-02  (-0.2090077E-04)
 number of electron      55.9999996 magnetization       5.9999541
 augmentation part       -1.9565157 magnetization       4.6042730

 Broyden mixing:
  rms(total) = 0.21332E-01    rms(broyden)= 0.21332E-01
  rms(prec ) = 0.21778E-01
  weight for this iteration     100.00

 eigenvalues of (default mixing * dielectric matrix)
  average eigenvalue GAMMA=   1.6439
  9.3398  3.1680  2.7195  1.9309  1.6421  1.6421  0.2141  0.0122  1.0741  1.0741
  0.8854  0.8854  0.7252  0.7252  0.6615  0.6147  0.6325

 Free energy of the ion-electron system (eV)
  ---------------------------------------------------
  alpha Z        PSCENC =        29.07756033
  Ewald energy   TEWEN  =      5985.89955237
  -Hartree energ DENC   =     -8017.58211469
  -exchange      EXHF   =         0.00000000
  -V(xc)+E(xc)   XCENC  =       -66.56622730
  PAW double counting   =      1175.05514900    -1010.03769200
  entropy T*S    EENTRO =         0.00000000
  eigenvalues    EBANDS =      -456.17201493
  atomic energy  EATOM  =      2313.29000814
  Solvation  Ediel_sol  =         0.00000000
  ---------------------------------------------------
  free energy    TOTEN  =       -47.03577909 eV

  energy without entropy =      -47.03577909  energy(sigma->0) =      -47.03577909


--------------------------------------------------------------------------------------------------------




--------------------------------------- Iteration      1(  23)  ---------------------------------------


    POTLOK:  cpu time   37.2280: real time   64.5409
    SETDIJ:  cpu time    0.0360: real time    0.0741
     EDDAV:  cpu time   17.7160: real time   31.4810
 BZINTS: Fermi energy: -3.991867; 56.000000 electrons
         Band energy:-455.671475;  BLOECHL correction:  0.000000
       DOS:  cpu time    0.0040: real time    0.0016
    CHARGE:  cpu time    1.3320: real time    2.3782
    MIXING:  cpu time    0.0400: real time    0.0859
    --------------------------------------------
      LOOP:  cpu time   56.3560: real time   98.5617

 eigenvalue-minimisations  :   960
 total energy-change (2. order) :-0.1635257E-02  (-0.2664947E-04)
 number of electron      55.9999996 magnetization       5.9997751
 augmentation part       -1.9561334 magnetization       4.6047596

 Broyden mixing:
  rms(total) = 0.20043E-01    rms(broyden)= 0.20043E-01
  rms(prec ) = 0.20442E-01
  weight for this iteration     100.00

 eigenvalues of (default mixing * dielectric matrix)
  average eigenvalue GAMMA=   1.7220
  9.3399  4.3000  2.8005  2.2592  1.7081  1.7081  1.4708  0.2141  0.0122  1.0775
  0.9814  0.9814  0.7925  0.7545  0.6987  0.6159  0.6297  0.6507

 Free energy of the ion-electron system (eV)
  ---------------------------------------------------
  alpha Z        PSCENC =        29.07756033
  Ewald energy   TEWEN  =      5985.89955237
  -Hartree energ DENC   =     -8018.08912142
  -exchange      EXHF   =         0.00000000
  -V(xc)+E(xc)   XCENC  =       -66.56069593
  PAW double counting   =      1175.07849611    -1010.06173912
  entropy T*S    EENTRO =         0.00000000
  eigenvalues    EBANDS =      -455.67147483
  atomic energy  EATOM  =      2313.29000814
  Solvation  Ediel_sol  =         0.00000000
  ---------------------------------------------------
  free energy    TOTEN  =       -47.03741435 eV

  energy without entropy =      -47.03741435  energy(sigma->0) =      -47.03741435


--------------------------------------------------------------------------------------------------------




--------------------------------------- Iteration      1(  24)  ---------------------------------------


    POTLOK:  cpu time   37.0280: real time   65.3193
    SETDIJ:  cpu time    0.0360: real time    0.0901
     EDDAV:  cpu time   19.6960: real time   34.3194
 BZINTS: Fermi energy: -4.042617; 56.000000 electrons
         Band energy:-455.268926;  BLOECHL correction:  0.000000
       DOS:  cpu time    0.0080: real time    0.0305
    CHARGE:  cpu time    1.1440: real time    2.2674
    MIXING:  cpu time    0.0360: real time    0.0766
    --------------------------------------------
      LOOP:  cpu time   57.9480: real time  102.1033

 eigenvalue-minimisations  :  1056
 total energy-change (2. order) :-0.1460801E-02  (-0.6348955E-05)
 number of electron      55.9999996 magnetization       5.9990050
 augmentation part       -1.9564941 magnetization       4.6036865

 Broyden mixing:
  rms(total) = 0.18981E-01    rms(broyden)= 0.18981E-01
  rms(prec ) = 0.19338E-01
  weight for this iteration     100.00

 eigenvalues of (default mixing * dielectric matrix)
[...]
     34      -0.0797      0.00000
     35       0.0912      0.00000
     36       0.1221      0.00000
     37       0.7570      0.00000
     38       0.9682      0.00000
     39       1.0529      0.00000
     40       1.9010      0.00000
     41       1.9992      0.00000
     42       2.2575      0.00000
     43       2.4111      0.00000
     44       2.4520      0.00000
     45       3.0305      0.00000
     46       3.2553      0.00000
     47       3.6409      0.00000
     48       3.6486      0.00000

 k-point     5 :      -0.4000    0.2000    0.0000
  band No.  band energies     occupation 
      1     -16.1308      1.00000
      2     -16.0128      1.00000
      3     -15.6669      1.00000
      4     -15.6309      1.00000
      5     -15.5638      1.00000
      6     -15.3734      1.00000
      7     -10.8639      1.00000
      8      -9.2014      1.00000
      9      -7.5039      1.00000
     10      -7.1452      1.00000
     11      -6.9331      1.00000
     12      -6.6111      1.00000
     13      -6.4107      1.00000
     14      -6.1053      1.00000
     15      -5.6541      1.00000
     16      -5.3414      1.00000
     17      -5.2456      1.00000
     18      -5.0977      1.00000
     19      -4.9819      1.00000
     20      -4.9297      1.00000
     21      -4.5792      1.00000
     22      -4.2884      1.00000
     23      -4.1460      1.00000
     24      -3.7993      1.00000
     25      -3.6880      1.00000
     26      -2.2279      0.00000
     27      -1.4397      0.00000
     28      -1.4035      0.00000
     29      -0.8501      0.00000
     30      -0.7826      0.00000
     31      -0.6583      0.00000
     32      -0.6260      0.00000
     33      -0.3537      0.00000
     34      -0.3121      0.00000
     35       0.0893      0.00000
     36       0.1554      0.00000
     37       0.5758      0.00000
     38       0.9381      0.00000
     39       1.0294      0.00000
     40       1.8767      0.00000
     41       1.9839      0.00000
     42       2.0487      0.00000
     43       2.7359      0.00000
     44       2.9205      0.00000
     45       2.9370      0.00000
     46       3.0418      0.00000
     47       3.3925      0.00000
     48       3.7247      0.00000


--------------------------------------------------------------------------------------------------------


 soft charge-density along one line, spin component           1
         0         1         2         3         4         5         6         7         8         9
 total charge-density along one line

 soft charge-density along one line, spin component           2
         0         1         2         3         4         5         6         7         8         9
 total charge-density along one line

 pseudopotential strength for first ion, spin component:           1
 -8.849   0.099  -0.000  -0.000  -0.000   0.700  -0.027   0.000
  0.099  -8.771   0.000  -0.000  -0.000  -0.027   0.679  -0.000
 -0.000   0.000  -8.940   0.000   0.000   0.000  -0.000   0.725
 -0.000  -0.000   0.000  -8.771  -0.099   0.000   0.000  -0.000
 -0.000  -0.000   0.000  -0.099  -8.849   0.000   0.000  -0.000
  0.700  -0.027   0.000   0.000   0.000   0.359   0.007  -0.000
 -0.027   0.679  -0.000   0.000   0.000   0.007   0.364   0.000
  0.000  -0.000   0.725  -0.000  -0.000  -0.000   0.000   0.353
  0.000   0.000  -0.000   0.679   0.027  -0.000  -0.000   0.000
  0.000   0.000  -0.000   0.027   0.700  -0.000  -0.000   0.000
 -0.000  -0.000   0.001  -0.000   0.000  -0.000   0.000  -0.000
  0.000   0.000  -0.000   0.000  -0.000   0.000  -0.000   0.000
 -0.000   0.000   0.000  -0.000   0.002   0.000  -0.000  -0.000
 -0.000  -0.000   0.000  -0.000  -0.000   0.000   0.000  -0.000
  0.002  -0.000   0.000   0.000  -0.000  -0.000   0.000  -0.000
 -0.000  -0.000  -0.000   0.000  -0.001   0.000   0.000   0.000
  0.000   0.000  -0.000   0.000   0.000  -0.000  -0.000   0.000
 -0.001   0.000  -0.000  -0.000   0.000   0.000  -0.000   0.000
 pseudopotential strength for first ion, spin component:           2
 -7.202  -0.184  -0.000   0.000  -0.000   0.235   0.048   0.000
 -0.184  -7.414   0.000   0.000   0.000   0.048   0.291  -0.000
 -0.000   0.000  -7.104   0.000   0.000   0.000  -0.000   0.210
  0.000   0.000   0.000  -7.414   0.184  -0.000  -0.000  -0.000
 -0.000   0.000   0.000   0.184  -7.202   0.000  -0.000  -0.000
  0.235   0.048   0.000  -0.000   0.000   0.486  -0.012  -0.000
  0.048   0.291  -0.000  -0.000  -0.000  -0.012   0.472   0.000
  0.000  -0.000   0.210  -0.000  -0.000  -0.000   0.000   0.492
 -0.000  -0.000  -0.000   0.291  -0.048   0.000   0.000   0.000
  0.000  -0.000  -0.000  -0.048   0.235  -0.000   0.000   0.000
 -0.000  -0.000   0.011  -0.000   0.000  -0.000   0.000  -0.002
  0.000   0.000  -0.002   0.000  -0.000  -0.000  -0.000   0.000
  0.000   0.000   0.000  -0.000   0.000  -0.000  -0.000  -0.000
 -0.000  -0.000   0.000  -0.000   0.000   0.000   0.000  -0.000
  0.000  -0.000   0.000   0.000  -0.000   0.000   0.000  -0.000
 -0.000  -0.000  -0.000   0.000  -0.001   0.000   0.000   0.000
  0.000   0.000  -0.000   0.000  -0.000  -0.000  -0.000   0.000
 -0.001   0.000  -0.000  -0.000   0.000  -0.000  -0.000   0.000
 total augmentation occupancy for first ion, spin component:           1
  0.990  -0.052   0.000   0.000  -0.000   0.032   0.236  -0.000  -0.000   0.000  -0.000  -0.000   0.000   0.000   0.007   0.000
 -0.052   0.924  -0.000  -0.000   0.000   0.234   0.293   0.000   0.000  -0.000  -0.000  -0.000   0.000  -0.000   0.001   0.000
  0.000  -0.000   1.047  -0.000  -0.000  -0.000   0.000  -0.113   0.000   0.000  -0.005  -0.021  -0.000   0.000   0.000   0.000
  0.000  -0.000  -0.000   0.924   0.052  -0.000  -0.000   0.000   0.293  -0.234   0.000  -0.000  -0.001  -0.000   0.000  -0.000
 -0.000   0.000  -0.000   0.052   0.990  -0.000  -0.000   0.000  -0.236   0.032   0.000   0.000   0.007  -0.000  -0.000  -0.000
  0.032   0.234  -0.000  -0.000  -0.000   0.181   0.077   0.000  -0.000  -0.000   0.000  -0.000  -0.000   0.000   0.027   0.000
  0.236   0.293   0.000  -0.000  -0.000   0.077   0.274   0.000  -0.000  -0.000   0.000   0.000   0.000  -0.000  -0.006  -0.000
 -0.000   0.000  -0.113   0.000   0.000   0.000   0.000   0.185   0.000  -0.000   0.076  -0.014  -0.000   0.001   0.000   0.000
 -0.000   0.000   0.000   0.293  -0.236  -0.000  -0.000   0.000   0.274  -0.077  -0.000  -0.000   0.006   0.000   0.000  -0.000
  0.000  -0.000   0.000  -0.234   0.032  -0.000  -0.000  -0.000  -0.077   0.181  -0.000   0.000   0.027  -0.000   0.000  -0.001
 -0.000  -0.000  -0.005  -0.000   0.000   0.000   0.000   0.076  -0.000  -0.000   1.079  -0.174   0.000   0.001   0.000   0.000
 -0.000   0.000  -0.021   0.000   0.000  -0.000   0.000  -0.014   0.000   0.000  -0.174   0.070   0.000  -0.000   0.000   0.000
  0.000   0.000  -0.000  -0.001   0.007  -0.000   0.000  -0.000   0.006   0.027   0.000   0.000   0.226   0.000  -0.000  -0.002
  0.000   0.000   0.000   0.000  -0.000   0.000  -0.000   0.001   0.000  -0.000   0.001  -0.000   0.000   0.251  -0.000   0.000
  0.007   0.001   0.000   0.000  -0.000   0.027  -0.006   0.000   0.000   0.000   0.000   0.000  -0.000  -0.000   0.226  -0.000
  0.000   0.000   0.000  -0.000  -0.000   0.000  -0.000   0.000  -0.000  -0.001   0.000   0.000  -0.002   0.000  -0.000   0.000
  0.000  -0.000   0.000  -0.000  -0.000  -0.000  -0.000  -0.000  -0.000   0.000  -0.000   0.000   0.000  -0.004   0.000  -0.000
 -0.000   0.000  -0.000   0.000  -0.000  -0.001   0.000  -0.000  -0.000  -0.000  -0.000  -0.000   0.000  -0.000  -0.002  -0.000
 total augmentation occupancy for first ion, spin component:           2
  0.727  -0.307   0.000   0.000  -0.000  -0.168   0.064  -0.000  -0.000  -0.000  -0.000  -0.000   0.000  -0.000  -0.007  -0.000
 -0.307   0.403  -0.000  -0.000   0.000   0.059  -0.092   0.000  -0.000  -0.000  -0.000  -0.000  -0.000   0.000   0.008   0.000
  0.000  -0.000   0.908  -0.000  -0.000  -0.000   0.000  -0.241   0.000   0.000  -0.044  -0.007   0.000  -0.000  -0.000  -0.000
  0.000  -0.000  -0.000   0.403   0.307  -0.000   0.000   0.000  -0.092  -0.059   0.000  -0.000  -0.008   0.000  -0.000   0.000
 -0.000   0.000  -0.000   0.307   0.727   0.000  -0.000   0.000  -0.064  -0.168   0.000   0.000  -0.007   0.000  -0.000   0.001
 -0.168   0.059  -0.000  -0.000   0.000   0.009  -0.057   0.000   0.000  -0.000   0.000   0.000  -0.000   0.000  -0.001  -0.000
  0.064  -0.092   0.000   0.000  -0.000  -0.057  -0.052  -0.000   0.000   0.000   0.000   0.000  -0.000  -0.000  -0.002   0.000
 -0.000   0.000  -0.241   0.000   0.000   0.000  -0.000   0.062  -0.000  -0.000   0.018   0.007   0.000   0.000  -0.000  -0.000
 -0.000  -0.000   0.000  -0.092  -0.064   0.000   0.000  -0.000  -0.052   0.057  -0.000   0.000   0.002   0.000  -0.000  -0.000
 -0.000  -0.000   0.000  -0.059  -0.168  -0.000   0.000  -0.000   0.057   0.009  -0.000  -0.000  -0.001  -0.000   0.000   0.000
 -0.000  -0.000  -0.044  -0.000   0.000   0.000   0.000   0.018   0.000  -0.000   0.159   0.066  -0.000   0.000  -0.000   0.000
 -0.000   0.000  -0.007   0.000   0.000   0.000   0.000   0.007   0.000  -0.000   0.066  -0.021   0.000   0.000  -0.000   0.000
  0.000  -0.000   0.000  -0.008  -0.007  -0.000  -0.000   0.000   0.002  -0.001   0.000   0.000   0.026   0.000  -0.000   0.003
 -0.000   0.000  -0.000   0.000   0.000   0.000   0.000   0.000   0.000  -0.000   0.000   0.000   0.000   0.022  -0.000   0.000
 -0.007   0.008  -0.000  -0.000  -0.000  -0.001  -0.002  -0.000  -0.000   0.000  -0.000   0.000  -0.000   0.000   0.026   0.000
 -0.000   0.000  -0.000   0.000   0.001  -0.000   0.000  -0.000  -0.000   0.000   0.000   0.000   0.003   0.000   0.000  -0.000
  0.000   0.000   0.000   0.000  -0.000  -0.000   0.000  -0.000   0.000   0.000   0.000  -0.000   0.000   0.003   0.000   0.000
  0.001  -0.000   0.000   0.000   0.000   0.000   0.000   0.000   0.000   0.000   0.000  -0.000  -0.000   0.000   0.003   0.000


------------------------ aborting loop because EDIFF is reached ----------------------------------------





 total charge     

# of ion       s       p       d       tot
------------------------------------------
    1        0.351   0.473   4.254   5.079
    2        0.351   0.473   4.254   5.079
    3        0.764   0.824   0.000   1.588
    4        0.764   0.824   0.000   1.588
    5        1.479   2.337   0.039   3.855
    6        1.475   2.343   0.039   3.857
    7        1.478   2.336   0.039   3.853
    8        1.479   2.337   0.039   3.855
    9        1.475   2.343   0.039   3.857
   10        1.478   2.336   0.039   3.853
--------------------------------------------------
tot         11.094  16.625   8.744  36.464



 magnetization (x)

# of ion       s       p       d       tot
------------------------------------------
    1        0.036   0.042   2.933   3.011
    2        0.036   0.042   2.933   3.011
    3        0.005   0.028   0.000   0.033
    4        0.005   0.028   0.000   0.033
    5       -0.000  -0.077   0.006  -0.071
    6       -0.002  -0.061   0.007  -0.056
    7       -0.001  -0.072   0.006  -0.066
    8       -0.000  -0.077   0.006  -0.071
    9       -0.002  -0.061   0.007  -0.056
   10       -0.001  -0.072   0.006  -0.066
--------------------------------------------------
tot          0.077  -0.280   5.903   5.700

    CHARGE:  cpu time    1.1440: real time    2.4830
    FORLOC:  cpu time    0.0320: real time    0.0632
    FORNL :  cpu time    3.7240: real time    6.9360
    STRESS:  cpu time   11.4520: real time   20.5731
    FORCOR:  cpu time   41.1720: real time   66.1052
    FORHAR:  cpu time    0.2360: real time    0.3367
    MIXING:  cpu time    0.0520: real time    0.0562
    OFIELD:  cpu time    0.0000: real time    0.0000

  FORCE on cell =-STRESS in cart. coord.  units (eV):
  Direction    XX          YY          ZZ          XY          YZ          ZX
  --------------------------------------------------------------------------------------
  Alpha Z    37.92828    37.92828    37.92828
  Ewald    8723.57379  8723.57175-10299.68823    -0.00112    -0.00039    -0.00070
  Hartree  9053.37736  9053.37774 -8894.26568    -0.00006     0.00004     0.00007
  E(xc)    -215.95941  -215.95940  -215.82079     0.00001     0.00001     0.00001
  Local  -18500.81949-18500.81901 18441.48143     0.00082     0.00017     0.00031
  n-local   307.99275   309.43338   314.00012     0.64059     0.43959     0.32671
  augment    22.96047    22.96053    19.77090     0.00006     0.00009    -0.00002
  Kinetic   573.17305   567.52012   596.72563    -4.11387     0.91400     0.86490
  Fock        0.00000     0.00000     0.00000     0.00000     0.00000     0.00000
  -------------------------------------------------------------------------------------
  Total       0.12009     0.12009     0.13166     0.00000    -0.00000     0.00000
  in kB       0.25904     0.25904     0.28399     0.00000    -0.00000     0.00000
  external pressure =        0.27 kB  Pullay stress =        0.00 kB


 VOLUME and BASIS-vectors are now :
 -----------------------------------------------------------------------------
  energy-cutoff  :      520.00
  volume of cell :      742.75
      direct lattice vectors                 reciprocal lattice vectors
     6.218741647  0.000000048 -0.000000000     0.160804237 -0.092840362 -0.000000000
     3.109370432  5.385588014 -0.000000000    -0.000000001  0.185680747  0.000000000
     0.000000000 -0.000000000 22.177317525     0.000000000  0.000000000  0.045091116

  length of vectors
     6.218741647  6.218741250 22.177317525     0.185680735  0.185680747  0.045091116


 FORCES acting on ions
    electron-ion (+dipol)            ewald-force                    non-local-force                 convergence-correction
 -----------------------------------------------------------------------------------------------
   -.870E-04 -.569E-04 0.722E+00   0.354E-03 0.210E-03 -.727E+00   0.694E-17 -.694E-17 -.101E-02   -.204E-06 -.117E-06 -.303E-04
   0.870E-04 0.569E-04 -.722E+00   -.354E-03 -.210E-03 0.727E+00   -.347E-17 -.109E-22 0.101E-02   0.204E-06 0.117E-06 0.303E-04
   -.385E-04 -.188E-04 0.199E+03   -.176E-03 -.981E-04 -.192E+03   0.173E-16 -.686E-17 -.692E+01   -.346E-07 0.732E-08 -.178E-01
   0.385E-04 0.188E-04 -.199E+03   0.176E-03 0.981E-04 0.192E+03   0.694E-17 -.140E-16 0.692E+01   0.346E-07 -.732E-08 0.178E-01
   -.510E+01 0.194E+00 -.424E+03   0.345E+01 -.194E+00 0.427E+03   0.234E+01 -.110E-01 -.209E+01   0.151E-02 -.197E-04 0.409E-01
   0.272E+01 0.432E+01 -.424E+03   -.190E+01 -.289E+01 0.427E+03   -.118E+01 -.202E+01 -.209E+01   -.774E-03 -.130E-02 0.409E-01
   0.238E+01 -.451E+01 -.424E+03   -.156E+01 0.309E+01 0.427E+03   -.116E+01 0.203E+01 -.209E+01   -.741E-03 0.132E-02 0.409E-01
   0.510E+01 -.194E+00 0.424E+03   -.345E+01 0.194E+00 -.427E+03   -.234E+01 0.110E-01 0.209E+01   -.151E-02 0.197E-04 -.409E-01
   -.272E+01 -.432E+01 0.424E+03   0.190E+01 0.289E+01 -.427E+03   0.118E+01 0.202E+01 0.209E+01   0.774E-03 0.130E-02 -.409E-01
   -.238E+01 0.451E+01 0.424E+03   0.156E+01 -.309E+01 -.427E+03   0.116E+01 -.203E+01 0.209E+01   0.741E-03 -.132E-02 -.409E-01
 -----------------------------------------------------------------------------------------------
   -.192E-10 -.777E-10 0.116E-09   0.444E-14 -.160E-13 0.000E+00   0.444E-15 0.000E+00 0.000E+00   0.166E-15 -.183E-13 0.312E-11


 POSITION                                       TOTAL-FORCE (eV/Angst)
 -----------------------------------------------------------------------------------
      3.10937      1.79519     11.08717        -0.000000     -0.000000     -0.005594
      6.21874      3.59039     11.09015        -0.000000     -0.000000      0.005594
      0.00000     -0.00000      9.94023        -0.000000     -0.000000      0.298188
      0.00000     -0.00000     12.23709        -0.000000     -0.000000     -0.298188
      3.89646      0.00226     12.72428         0.694105     -0.010998      0.069775
      1.16310      2.01003     12.72428        -0.356577     -0.595613      0.069775
      4.26856      3.37330     12.72428        -0.337527      0.606612      0.069775
      5.43165      5.38333      9.45304        -0.694105      0.010998     -0.069775
      8.16501      3.37556      9.45304         0.356577      0.595613     -0.069775
      5.05955      2.01229      9.45304         0.337527     -0.606612     -0.069775
 -----------------------------------------------------------------------------------
    total drift:                               -0.000000     -0.000000      0.000000


--------------------------------------------------------------------------------------------------------



  FREE ENERGIE OF THE ION-ELECTRON SYSTEM (eV)
  ---------------------------------------------------
  free  energy   TOTEN  =       -50.15465355 eV

  energy  without entropy=      -50.15465355  energy(sigma->0) =      -50.15465355

 d Force = 0.2149681E-06[ 0.202E-06, 0.228E-06]  d Energy = 0.4512813E-01-0.451E-01
 d Force = 0.2641908E-04[ 0.263E-04, 0.266E-04]  d Ewald  = 0.1320831E+03-0.132E+03


--------------------------------------------------------------------------------------------------------


    POTLOK:  cpu time   36.6120: real time   66.5669


--------------------------------------------------------------------------------------------------------




--------------------------------------------------------------------------------------------------------


  
 reached required accuracy - stopping structural energy minimisation
     LOOP+:  cpu time  533.5400: real time  900.1464
    4ORBIT:  cpu time    0.0000: real time    0.0000



 total charge     

# of ion       s       p       d       tot
------------------------------------------
    1        0.351   0.473   4.254   5.079
    2        0.351   0.473   4.254   5.079
    3        0.764   0.824   0.000   1.588
    4        0.764   0.824   0.000   1.588
    5        1.479   2.337   0.039   3.855
    6        1.475   2.343   0.039   3.857
    7        1.478   2.336   0.039   3.853
    8        1.479   2.337   0.039   3.855
    9        1.475   2.343   0.039   3.857
   10        1.478   2.336   0.039   3.853
--------------------------------------------------
tot         11.094  16.625   8.744  36.464



 magnetization (x)

# of ion       s       p       d       tot
------------------------------------------
    1        0.036   0.042   2.933   3.011
    2        0.036   0.042   2.933   3.011
    3        0.005   0.028   0.000   0.033
    4        0.005   0.028   0.000   0.033
    5       -0.000  -0.077   0.006  -0.071
    6       -0.002  -0.061   0.007  -0.056
    7       -0.001  -0.072   0.006  -0.066
    8       -0.000  -0.077   0.006  -0.071
    9       -0.002  -0.061   0.007  -0.056
   10       -0.001  -0.072   0.006  -0.066
--------------------------------------------------
tot          0.077  -0.280   5.903   5.700

 BZINTS: Fermi energy: -2.953846; 56.000000 electrons
         Band energy:-440.201239;  BLOECHL correction:  0.000000

 total amount of memory used by VASP MPI-rank0   116003. kBytes
=======================================================================

   base      :      30000. kBytes
   nonlr-proj:       9457. kBytes
   fftplans  :       8558. kBytes
   grid      :      59268. kBytes
   one-center:        311. kBytes
   wavefun   :       8409. kBytes

  
  
 General timing and accounting informations for this job:
 ========================================================
  
                  Total CPU time used (sec):     3668.116
                            User time (sec):     3351.032
                          System time (sec):      317.084
                         Elapsed time (sec):     6292.832
  
                   Maximum memory used (kb):      326552.
                   Average memory used (kb):           0.
  
                          Minor page faults:      2542874
                          Major page faults:            5
                 Voluntary context switches:         1079
