PROCAR lm decomposed
# of k-points:    5         # of bands:   48         # of ions:   10

 k-point     1 :    0.00000000 0.00000000 0.00000000     weight = 0.04000000

band     1 # energy  -16.93117796 # occ.  1.00000000

ion      s     py     pz     px    dxy    dyz    dz2    dxz  x2-y2    tot
    1  0.020  0.000  0.000  0.000  0.000  0.000  0.000  0.000  0.000  0.020
    2  0.020  0.000  0.000  0.000  0.000  0.000  0.000  0.000  0.000  0.020
    3  0.030  0.000  0.000  0.000  0.000  0.000  0.000  0.000  0.000  0.030
    4  0.030  0.000  0.000  0.000  0.000  0.000  0.000  0.000  0.000  0.030
    5  0.092  0.000  0.001  0.000  0.000  0.000  0.000  0.000  0.000  0.094
    6  0.092  0.000  0.001  0.000  0.000  0.000  0.000  0.000  0.000  0.094
    7  0.092  0.000  0.001  0.000  0.000  0.000  0.000  0.000  0.000  0.094
    8  0.092  0.000  0.001  0.000  0.000  0.000  0.000  0.000  0.000  0.094
    9  0.092  0.000  0.001  0.000  0.000  0.000  0.000  0.000  0.000  0.094
   10  0.092  0.000  0.001  0.000  0.000  0.000  0.000  0.000  0.000  0.094
tot    0.654  0.001  0.005  0.001  0.000  0.000  0.000  0.000  0.000  0.662

band     2 # energy  -16.17300635 # occ.  1.00000000

ion      s     py     pz     px    dxy    dyz    dz2    dxz  x2-y2    tot
    1  0.000  0.000  0.009  0.000  0.000  0.000  0.000  0.000  0.000  0.009
    2  0.000  0.000  0.009  0.000  0.000  0.000  0.000  0.000  0.000  0.009
    3  0.019  0.000  0.001  0.000  0.000  0.000  0.000  0.000  0.000  0.020
    4  0.019  0.000  0.001  0.000  0.000  0.000  0.000  0.000  0.000  0.020
    5  0.106  0.000  0.000  0.000  0.000  0.000  0.000  0.000  0.000  0.107
    6  0.106  0.000  0.000  0.000  0.000  0.000  0.000  0.000  0.000  0.107
    7  0.106  0.000  0.000  0.000  0.000  0.000  0.000  0.000  0.000  0.107
    8  0.106  0.000  0.000  0.000  0.000  0.000  0.000  0.000  0.000  0.107
    9  0.106  0.000  0.000  0.000  0.000  0.000  0.000  0.000  0.000  0.107
   10  0.106  0.000  0.000  0.000  0.000  0.000  0.000  0.000  0.000  0.107
tot    0.675  0.001  0.022  0.001  0.000  0.000  0.001  0.000  0.000  0.700

band     3 # energy  -15.12547794 # occ.  1.00000000

ion      s     py     pz     px    dxy    dyz    dz2    dxz  x2-y2    tot
    1  0.000  0.008  0.000  0.000  0.000  0.000  0.000  0.002  0.002  0.012
    2  0.000  0.008  0.000  0.000  0.000  0.000  0.000  0.002  0.002  0.012
    3  0.000  0.000  0.000  0.005  0.000  0.000  0.000  0.000  0.000  0.005
    4  0.000  0.000  0.000  0.005  0.000  0.000  0.000  0.000  0.000  0.005
    5  0.231  0.000  0.001  0.001  0.000  0.000  0.000  0.000  0.000  0.232
    6  0.111  0.000  0.000  0.000  0.000  0.000  0.000  0.000  0.000  0.111
    7  0.022  0.000  0.000  0.000  0.000  0.000  0.000  0.000  0.000  0.022
    8  0.231  0.000  0.001  0.001  0.000  0.000  0.000  0.000  0.000  0.232
    9  0.111  0.000  0.000  0.000  0.000  0.000  0.000  0.000  0.000  0.111
   10  0.022  0.000  0.000  0.000  0.000  0.000  0.000  0.000  0.000  0.022
tot    0.726  0.016  0.003  0.012  0.000  0.000  0.000  0.003  0.004  0.765

band     4 # energy  -15.12544727 # occ.  1.00000000

ion      s     py     pz     px    dxy    dyz    dz2    dxz  x2-y2    tot
    1  0.000  0.000  0.000  0.008  0.002  0.002  0.000  0.000  0.000  0.012
    2  0.000  0.000  0.000  0.008  0.002  0.002  0.000  0.000  0.000  0.012
    3  0.000  0.005  0.000  0.000  0.000  0.000  0.000  0.000  0.000  0.005
    4  0.000  0.005  0.000  0.000  0.000  0.000  0.000  0.000  0.000  0.005
    5  0.011  0.000  0.000  0.000  0.000  0.000  0.000  0.000  0.000  0.011
    6  0.131  0.000  0.001  0.000  0.000  0.000  0.000  0.000  0.000  0.132
    7  0.220  0.000  0.001  0.000  0.000  0.000  0.000  0.000  0.000  0.222
    8  0.011  0.000  0.000  0.000  0.000  0.000  0.000  0.000  0.000  0.011
    9  0.131  0.000  0.001  0.000  0.000  0.000  0.000  0.000  0.000  0.132
   10  0.220  0.000  0.001  0.000  0.000  0.000  0.000  0.000  0.000  0.222
tot    0.726  0.012  0.003  0.016  0.004  0.003  0.000  0.000  0.000  0.765

band     5 # energy  -15.11229711 # occ.  1.00000000

ion      s     py     pz     px    dxy    dyz    dz2    dxz  x2-y2    tot
    1  0.000  0.000  0.000  0.002  0.003  0.008  0.000  0.000  0.000  0.013
    2  0.000  0.000  0.000  0.002  0.003  0.008  0.000  0.000  0.000  0.013
    3  0.000  0.000  0.000  0.007  0.000  0.000  0.000  0.000  0.000  0.007
    4  0.000  0.000  0.000  0.007  0.000  0.000  0.000  0.000  0.000  0.007
    5  0.236  0.000  0.001  0.001  0.000  0.000  0.000  0.000  0.000  0.238
    6  0.086  0.000  0.000  0.000  0.000  0.000  0.000  0.000  0.000  0.087
    7  0.037  0.000  0.000  0.000  0.000  0.000  0.000  0.000  0.000  0.037
    8  0.236  0.000  0.001  0.001  0.000  0.000  0.000  0.000  0.000  0.238
    9  0.086  0.000  0.000  0.000  0.000  0.000  0.000  0.000  0.000  0.087
   10  0.037  0.000  0.000  0.000  0.000  0.000  0.000  0.000  0.000  0.037
tot    0.718  0.001  0.002  0.021  0.005  0.017  0.000  0.000  0.000  0.765

band     6 # energy  -15.11226179 # occ.  1.00000000

ion      s     py     pz     px    dxy    dyz    dz2    dxz  x2-y2    tot
    1  0.000  0.002  0.000  0.000  0.000  0.000  0.000  0.008  0.003  0.013
    2  0.000  0.002  0.000  0.000  0.000  0.000  0.000  0.008  0.003  0.013
    3  0.000  0.007  0.000  0.000  0.000  0.000  0.000  0.000  0.000  0.007
    4  0.000  0.007  0.000  0.000  0.000  0.000  0.000  0.000  0.000  0.007
    5  0.003  0.000  0.000  0.000  0.000  0.000  0.000  0.000  0.000  0.003
    6  0.153  0.001  0.001  0.000  0.000  0.000  0.000  0.000  0.000  0.155
    7  0.202  0.001  0.001  0.000  0.000  0.000  0.000  0.000  0.000  0.204
    8  0.003  0.000  0.000  0.000  0.000  0.000  0.000  0.000  0.000  0.003
    9  0.153  0.001  0.001  0.000  0.000  0.000  0.000  0.000  0.000  0.155
   10  0.202  0.001  0.001  0.000  0.000  0.000  0.000  0.000  0.000  0.204
tot    0.718  0.021  0.002  0.001  0.000  0.000  0.000  0.017  0.005  0.765

band     7 # energy  -11.12503396 # occ.  1.00000000

ion      s     py     pz     px    dxy    dyz    dz2    dxz  x2-y2    tot
    1  0.008  0.000  0.000  0.000  0.000  0.000  0.002  0.000  0.000  0.011
    2  0.008  0.000  0.000  0.000  0.000  0.000  0.002  0.000  0.000  0.011
    3  0.171  0.000  0.009  0.000  0.000  0.000  0.000  0.000  0.000  0.180
    4  0.171  0.000  0.009  0.000  0.000  0.000  0.000  0.000  0.000  0.180
    5  0.015  0.000  0.000  0.015  0.000  0.000  0.000  0.000  0.001  0.031
    6  0.015  0.011  0.000  0.004  0.001  0.000  0.000  0.000  0.000  0.031
    7  0.015  0.011  0.000  0.004  0.001  0.000  0.000  0.000  0.000  0.031
    8  0.015  0.000  0.000  0.015  0.000  0.000  0.000  0.000  0.001  0.031
    9  0.015  0.011  0.000  0.004  0.001  0.000  0.000  0.000  0.000  0.031
   10  0.015  0.011  0.000  0.004  0.001  0.000  0.000  0.000  0.000  0.031
tot    0.445  0.044  0.022  0.044  0.003  0.001  0.005  0.001  0.003  0.566

band     8 # energy   -9.00155297 # occ.  1.00000000

ion      s     py     pz     px    dxy    dyz    dz2    dxz  x2-y2    tot
    1  0.000  0.000  0.008  0.000  0.000  0.000  0.000  0.000  0.000  0.008
    2  0.000  0.000  0.008  0.000  0.000  0.000  0.000  0.000  0.000  0.008
    3  0.146  0.000  0.010  0.000  0.000  0.000  0.000  0.000  0.000  0.156
    4  0.146  0.000  0.010  0.000  0.000  0.000  0.000  0.000  0.000  0.156
    5  0.009  0.000  0.000  0.032  0.000  0.000  0.000  0.000  0.002  0.042
    6  0.009  0.024  0.000  0.008  0.001  0.000  0.000  0.000  0.000  0.042
    7  0.009  0.024  0.000  0.008  0.001  0.000  0.000  0.000  0.000  0.042
    8  0.009  0.000  0.000  0.032  0.000  0.000  0.000  0.000  0.002  0.042
    9  0.009  0.024  0.000  0.008  0.001  0.000  0.000  0.000  0.000  0.042
   10  0.009  0.024  0.000  0.008  0.001  0.000  0.000  0.000  0.000  0.042
tot    0.345  0.095  0.037  0.095  0.005  0.000  0.001  0.000  0.005  0.584

band     9 # energy   -7.82199476 # occ.  1.00000000

ion      s     py     pz     px    dxy    dyz    dz2    dxz  x2-y2    tot
    1  0.000  0.002  0.000  0.003  0.003  0.022  0.000  0.019  0.003  0.052
    2  0.000  0.002  0.000  0.003  0.003  0.022  0.000  0.019  0.003  0.052
    3  0.000  0.019  0.000  0.022  0.000  0.000  0.000  0.000  0.000  0.041
    4  0.000  0.019  0.000  0.022  0.000  0.000  0.000  0.000  0.000  0.041
    5  0.003  0.010  0.001  0.040  0.000  0.000  0.000  0.000  0.000  0.055
    6  0.005  0.061  0.002  0.009  0.000  0.001  0.000  0.000  0.000  0.078
    7  0.000  0.000  0.000  0.024  0.000  0.000  0.000  0.000  0.000  0.026
    8  0.003  0.010  0.001  0.040  0.000  0.000  0.000  0.000  0.000  0.055
    9  0.005  0.061  0.002  0.009  0.000  0.001  0.000  0.000  0.000  0.078
   10  0.000  0.000  0.000  0.024  0.000  0.000  0.000  0.000  0.000  0.026
tot    0.018  0.187  0.007  0.195  0.008  0.044  0.000  0.039  0.007  0.504

band    10 # energy   -7.82197525 # occ.  1.00000000

ion      s     py     pz     px    dxy    dyz    dz2    dxz  x2-y2    tot
    1  0.000  0.003  0.000  0.002  0.003  0.019  0.000  0.022  0.003  0.052
    2  0.000  0.003  0.000  0.002  0.003  0.019  0.000  0.022  0.003  0.052
    3  0.000  0.022  0.000  0.019  0.000  0.000  0.000  0.000  0.000  0.041
    4  0.000  0.022  0.000  0.019  0.000  0.000  0.000  0.000  0.000  0.041
    5  0.003  0.012  0.001  0.035  0.000  0.000  0.000  0.000  0.000  0.051
    6  0.001  0.000  0.000  0.026  0.000  0.000  0.000  0.000  0.000  0.028
    7  0.006  0.061  0.002  0.011  0.000  0.001  0.000  0.000  0.000  0.080
    8  0.003  0.012  0.001  0.035  0.000  0.000  0.000  0.000  0.000  0.051
    9  0.001  0.000  0.000  0.026  0.000  0.000  0.000  0.000  0.000  0.028
   10  0.006  0.061  0.002  0.011  0.000  0.001  0.000  0.000  0.000  0.080
tot    0.018  0.195  0.007  0.187  0.007  0.039  0.000  0.044  0.008  0.504

band    11 # energy   -7.64322044 # occ.  1.00000000

ion      s     py     pz     px    dxy    dyz    dz2    dxz  x2-y2    tot
    1  0.054  0.000  0.000  0.000  0.000  0.000  0.016  0.000  0.000  0.070
    2  0.054  0.000  0.000  0.000  0.000  0.000  0.016  0.000  0.000  0.070
    3  0.002  0.000  0.031  0.000  0.000  0.000  0.000  0.000  0.000  0.033
    4  0.002  0.000  0.031  0.000  0.000  0.000  0.000  0.000  0.000  0.033
    5  0.003  0.000  0.038  0.008  0.000  0.000  0.001  0.000  0.000  0.049
    6  0.003  0.006  0.038  0.002  0.000  0.000  0.001  0.000  0.000  0.049
    7  0.003  0.006  0.038  0.002  0.000  0.000  0.001  0.000  0.000  0.049
    8  0.003  0.000  0.038  0.008  0.000  0.000  0.001  0.000  0.000  0.049
    9  0.003  0.006  0.038  0.002  0.000  0.000  0.001  0.000  0.000  0.049
   10  0.003  0.006  0.038  0.002  0.000  0.000  0.001  0.000  0.000  0.049
tot    0.129  0.023  0.289  0.023  0.001  0.000  0.036  0.000  0.001  0.501

band    12 # energy   -7.54721200 # occ.  1.00000000

ion      s     py     pz     px    dxy    dyz    dz2    dxz  x2-y2    tot
    1  0.078  0.000  0.000  0.000  0.000  0.000  0.033  0.000  0.000  0.112
    2  0.078  0.000  0.000  0.000  0.000  0.000  0.033  0.000  0.000  0.112
    3  0.000  0.000  0.000  0.000  0.000  0.000  0.000  0.000  0.000  0.000
    4  0.000  0.000  0.000  0.000  0.000  0.000  0.000  0.000  0.000  0.000
    5  0.000  0.059  0.000  0.000  0.000  0.000  0.000  0.000  0.000  0.060
    6  0.000  0.015  0.000  0.044  0.000  0.000  0.000  0.000  0.000  0.060
    7  0.000  0.014  0.000  0.044  0.000  0.000  0.000  0.000  0.000  0.060
    8  0.000  0.059  0.000  0.000  0.000  0.000  0.000  0.000  0.000  0.060
    9  0.000  0.015  0.000  0.044  0.000  0.000  0.000  0.000  0.000  0.060
   10  0.000  0.014  0.000  0.044  0.000  0.000  0.000  0.000  0.000  0.060
tot    0.156  0.176  0.000  0.176  0.001  0.001  0.067  0.001  0.001  0.581

band    13 # energy   -7.33808259 # occ.  1.00000000

ion      s     py     pz     px    dxy    dyz    dz2    dxz  x2-y2    tot
    1  0.000  0.017  0.000  0.003  0.002  0.003  0.000  0.016  0.011  0.051
    2  0.000  0.017  0.000  0.003  0.002  0.003  0.000  0.016  0.011  0.051
    3  0.000  0.004  0.000  0.026  0.000  0.000  0.000  0.000  0.000  0.030
    4  0.000  0.004  0.000  0.026  0.000  0.000  0.000  0.000  0.000  0.030
    5  0.000  0.004  0.005  0.074  0.000  0.000  0.000  0.000  0.000  0.083
    6  0.000  0.063  0.003  0.001  0.000  0.000  0.000  0.000  0.000  0.068
    7  0.000  0.013  0.000  0.014  0.000  0.000  0.000  0.000  0.000  0.027
    8  0.000  0.004  0.005  0.074  0.000  0.000  0.000  0.000  0.000  0.083
    9  0.000  0.063  0.003  0.001  0.000  0.000  0.000  0.000  0.000  0.068
   10  0.000  0.013  0.000  0.014  0.000  0.000  0.000  0.000  0.000  0.027
tot    0.001  0.199  0.016  0.234  0.004  0.006  0.002  0.032  0.023  0.517

band    14 # energy   -7.33806326 # occ.  1.00000000

ion      s     py     pz     px    dxy    dyz    dz2    dxz  x2-y2    tot
    1  0.000  0.003  0.000  0.017  0.011  0.016  0.000  0.003  0.002  0.051
    2  0.000  0.003  0.000  0.017  0.011  0.016  0.000  0.003  0.002  0.051
    3  0.000  0.026  0.000  0.004  0.000  0.000  0.000  0.000  0.000  0.030
    4  0.000  0.026  0.000  0.004  0.000  0.000  0.000  0.000  0.000  0.030
    5  0.000  0.021  0.001  0.013  0.000  0.000  0.000  0.000  0.000  0.035
    6  0.000  0.009  0.002  0.039  0.000  0.000  0.000  0.000  0.000  0.051
    7  0.000  0.058  0.005  0.027  0.000  0.000  0.001  0.000  0.000  0.092
    8  0.000  0.021  0.001  0.013  0.000  0.000  0.000  0.000  0.000  0.035
    9  0.000  0.009  0.002  0.039  0.000  0.000  0.000  0.000  0.000  0.051
   10  0.000  0.058  0.005  0.027  0.000  0.000  0.001  0.000  0.000  0.092
tot    0.001  0.234  0.016  0.199  0.023  0.032  0.002  0.006  0.004  0.517

band    15 # energy   -6.32785691 # occ.  1.00000000

ion      s     py     pz     px    dxy    dyz    dz2    dxz  x2-y2    tot
    1  0.000  0.000  0.050  0.000  0.000  0.000  0.000  0.000  0.000  0.050
    2  0.000  0.000  0.050  0.000  0.000  0.000  0.000  0.000  0.000  0.050
    3  0.000  0.000  0.000  0.000  0.000  0.000  0.000  0.000  0.000  0.000
    4  0.000  0.000  0.000  0.000  0.000  0.000  0.000  0.000  0.000  0.000
    5  0.000  0.073  0.000  0.000  0.000  0.000  0.000  0.000  0.000  0.074
    6  0.000  0.018  0.000  0.055  0.000  0.000  0.000  0.000  0.000  0.074
    7  0.000  0.018  0.000  0.055  0.000  0.000  0.000  0.000  0.000  0.074
    8  0.000  0.073  0.000  0.000  0.000  0.000  0.000  0.000  0.000  0.074
    9  0.000  0.018  0.000  0.055  0.000  0.000  0.000  0.000  0.000  0.074
   10  0.000  0.018  0.000  0.055  0.000  0.000  0.000  0.000  0.000  0.074
tot    0.000  0.220  0.101  0.220  0.001  0.000  0.000  0.000  0.001  0.544

band    16 # energy   -5.45964623 # occ.  1.00000000

ion      s     py     pz     px    dxy    dyz    dz2    dxz  x2-y2    tot
    1  0.000  0.003  0.000  0.000  0.007  0.005  0.000  0.090  0.120  0.226
    2  0.000  0.003  0.000  0.000  0.007  0.005  0.000  0.090  0.120  0.226
    3  0.000  0.000  0.000  0.000  0.000  0.000  0.000  0.000  0.000  0.000
    4  0.000  0.000  0.000  0.000  0.000  0.000  0.000  0.000  0.000  0.000
    5  0.002  0.002  0.052  0.002  0.000  0.000  0.000  0.000  0.000  0.060
    6  0.001  0.002  0.026  0.020  0.000  0.000  0.000  0.001  0.000  0.051
    7  0.000  0.007  0.004  0.030  0.000  0.000  0.000  0.001  0.000  0.043
    8  0.002  0.002  0.052  0.002  0.000  0.000  0.000  0.000  0.000  0.060
    9  0.001  0.002  0.026  0.020  0.000  0.000  0.000  0.001  0.000  0.051
   10  0.000  0.007  0.004  0.030  0.000  0.000  0.000  0.001  0.000  0.043
tot    0.008  0.030  0.165  0.105  0.014  0.011  0.001  0.184  0.241  0.758

band    17 # energy   -5.45963288 # occ.  1.00000000

ion      s     py     pz     px    dxy    dyz    dz2    dxz  x2-y2    tot
    1  0.000  0.000  0.000  0.003  0.120  0.090  0.000  0.005  0.007  0.226
    2  0.000  0.000  0.000  0.003  0.120  0.090  0.000  0.005  0.007  0.226
    3  0.000  0.000  0.000  0.000  0.000  0.000  0.000  0.000  0.000  0.000
    4  0.000  0.000  0.000  0.000  0.000  0.000  0.000  0.000  0.000  0.000
    5  0.000  0.038  0.003  0.000  0.000  0.001  0.000  0.000  0.000  0.042
    6  0.001  0.010  0.029  0.011  0.000  0.000  0.000  0.000  0.000  0.051
    7  0.002  0.004  0.051  0.001  0.000  0.000  0.000  0.000  0.000  0.059
    8  0.000  0.038  0.003  0.000  0.000  0.001  0.000  0.000  0.000  0.042
    9  0.001  0.010  0.029  0.011  0.000  0.000  0.000  0.000  0.000  0.051
   10  0.002  0.004  0.051  0.001  0.000  0.000  0.000  0.000  0.000  0.059
tot    0.008  0.105  0.165  0.030  0.241  0.184  0.001  0.011  0.014  0.758

band    18 # energy   -5.25491576 # occ.  1.00000000

ion      s     py     pz     px    dxy    dyz    dz2    dxz  x2-y2    tot
    1  0.000  0.000  0.000  0.002  0.078  0.085  0.000  0.010  0.009  0.183
    2  0.000  0.000  0.000  0.002  0.078  0.085  0.000  0.010  0.009  0.183
    3  0.000  0.000  0.000  0.001  0.000  0.000  0.000  0.000  0.000  0.001
    4  0.000  0.000  0.000  0.001  0.000  0.000  0.000  0.000  0.000  0.001
    5  0.006  0.000  0.089  0.002  0.000  0.000  0.000  0.000  0.000  0.097
    6  0.004  0.003  0.056  0.001  0.000  0.000  0.000  0.000  0.000  0.063
    7  0.000  0.002  0.004  0.003  0.000  0.000  0.000  0.000  0.000  0.009
    8  0.006  0.000  0.089  0.002  0.000  0.000  0.000  0.000  0.000  0.097
    9  0.004  0.003  0.056  0.001  0.000  0.000  0.000  0.000  0.000  0.063
   10  0.000  0.002  0.004  0.003  0.000  0.000  0.000  0.000  0.000  0.009
tot    0.019  0.010  0.298  0.015  0.156  0.170  0.001  0.020  0.018  0.707

band    19 # energy   -5.25489894 # occ.  1.00000000

ion      s     py     pz     px    dxy    dyz    dz2    dxz  x2-y2    tot
    1  0.000  0.002  0.000  0.000  0.009  0.010  0.000  0.085  0.078  0.183
    2  0.000  0.002  0.000  0.000  0.009  0.010  0.000  0.085  0.078  0.183
    3  0.000  0.001  0.000  0.000  0.000  0.000  0.000  0.000  0.000  0.001
    4  0.000  0.001  0.000  0.000  0.000  0.000  0.000  0.000  0.000  0.001
    5  0.001  0.004  0.010  0.000  0.000  0.000  0.000  0.000  0.000  0.016
    6  0.003  0.000  0.043  0.004  0.000  0.000  0.000  0.000  0.000  0.050
    7  0.006  0.001  0.096  0.001  0.000  0.000  0.000  0.000  0.000  0.104
    8  0.001  0.004  0.010  0.000  0.000  0.000  0.000  0.000  0.000  0.016
    9  0.003  0.000  0.043  0.004  0.000  0.000  0.000  0.000  0.000  0.050
   10  0.006  0.001  0.096  0.001  0.000  0.000  0.000  0.000  0.000  0.104
tot    0.019  0.015  0.298  0.010  0.018  0.020  0.001  0.170  0.156  0.707

band    20 # energy   -4.72669515 # occ.  1.00000000

ion      s     py     pz     px    dxy    dyz    dz2    dxz  x2-y2    tot
    1  0.001  0.000  0.000  0.000  0.000  0.000  0.206  0.000  0.000  0.207
    2  0.001  0.000  0.000  0.000  0.000  0.000  0.206  0.000  0.000  0.207
    3  0.006  0.000  0.066  0.000  0.000  0.000  0.000  0.000  0.000  0.073
    4  0.006  0.000  0.066  0.000  0.000  0.000  0.000  0.000  0.000  0.073
    5  0.000  0.000  0.004  0.014  0.000  0.000  0.000  0.000  0.001  0.020
    6  0.000  0.011  0.004  0.003  0.000  0.000  0.000  0.000  0.000  0.020
    7  0.000  0.011  0.004  0.004  0.000  0.000  0.000  0.000  0.000  0.020
    8  0.000  0.000  0.004  0.014  0.000  0.000  0.000  0.000  0.001  0.020
    9  0.000  0.011  0.004  0.003  0.000  0.000  0.000  0.000  0.000  0.020
   10  0.000  0.011  0.004  0.004  0.000  0.000  0.000  0.000  0.000  0.020
tot    0.015  0.043  0.158  0.043  0.002  0.001  0.415  0.001  0.002  0.679

band    21 # energy   -4.62686179 # occ.  1.00000000

ion      s     py     pz     px    dxy    dyz    dz2    dxz  x2-y2    tot
    1  0.000  0.000  0.016  0.000  0.000  0.000  0.000  0.000  0.000  0.016
    2  0.000  0.000  0.016  0.000  0.000  0.000  0.000  0.000  0.000  0.016
    3  0.002  0.000  0.005  0.000  0.000  0.000  0.000  0.000  0.000  0.007
    4  0.002  0.000  0.005  0.000  0.000  0.000  0.000  0.000  0.000  0.007
    5  0.000  0.000  0.076  0.000  0.000  0.000  0.000  0.000  0.000  0.077
    6  0.000  0.000  0.076  0.000  0.000  0.000  0.000  0.000  0.000  0.077
    7  0.000  0.000  0.076  0.000  0.000  0.000  0.000  0.000  0.000  0.077
    8  0.000  0.000  0.076  0.000  0.000  0.000  0.000  0.000  0.000  0.077
    9  0.000  0.000  0.076  0.000  0.000  0.000  0.000  0.000  0.000  0.077
   10  0.000  0.000  0.076  0.000  0.000  0.000  0.000  0.000  0.000  0.077
tot    0.004  0.000  0.500  0.000  0.000  0.000  0.000  0.000  0.000  0.505

band    22 # energy   -4.35054822 # occ.  1.00000000

ion      s     py     pz     px    dxy    dyz    dz2    dxz  x2-y2    tot
    1  0.000  0.016  0.000  0.000  0.000  0.001  0.000  0.060  0.002  0.079
    2  0.000  0.016  0.000  0.000  0.000  0.001  0.000  0.060  0.002  0.079
    3  0.000  0.000  0.000  0.015  0.000  0.000  0.000  0.000  0.000  0.015
    4  0.000  0.000  0.000  0.015  0.000  0.000  0.000  0.000  0.000  0.015
    5  0.005  0.000  0.080  0.036  0.000  0.000  0.000  0.000  0.001  0.122
    6  0.001  0.000  0.013  0.028  0.000  0.000  0.000  0.001  0.000  0.043
    7  0.002  0.001  0.028  0.029  0.000  0.000  0.000  0.001  0.000  0.061
    8  0.005  0.000  0.080  0.036  0.000  0.000  0.000  0.000  0.001  0.122
    9  0.001  0.000  0.013  0.028  0.000  0.000  0.000  0.001  0.000  0.043
   10  0.002  0.001  0.028  0.029  0.000  0.000  0.000  0.001  0.000  0.061
tot    0.015  0.035  0.242  0.216  0.000  0.002  0.000  0.123  0.007  0.640

band    23 # energy   -4.35053604 # occ.  1.00000000

ion      s     py     pz     px    dxy    dyz    dz2    dxz  x2-y2    tot
    1  0.000  0.000  0.000  0.016  0.002  0.060  0.000  0.001  0.000  0.079
    2  0.000  0.000  0.000  0.016  0.002  0.060  0.000  0.001  0.000  0.079
    3  0.000  0.015  0.000  0.000  0.000  0.000  0.000  0.000  0.000  0.015
    4  0.000  0.015  0.000  0.000  0.000  0.000  0.000  0.000  0.000  0.015
    5  0.000  0.026  0.001  0.000  0.000  0.001  0.000  0.000  0.000  0.028
    6  0.004  0.034  0.068  0.001  0.001  0.000  0.000  0.000  0.000  0.108
    7  0.003  0.033  0.052  0.000  0.001  0.000  0.000  0.000  0.000  0.090
    8  0.000  0.026  0.001  0.000  0.000  0.001  0.000  0.000  0.000  0.028
    9  0.004  0.034  0.068  0.001  0.001  0.000  0.000  0.000  0.000  0.108
   10  0.003  0.033  0.052  0.000  0.001  0.000  0.000  0.000  0.000  0.090
tot    0.015  0.216  0.242  0.035  0.007  0.123  0.000  0.002  0.000  0.640

band    24 # energy   -3.74747947 # occ.  1.00000000

ion      s     py     pz     px    dxy    dyz    dz2    dxz  x2-y2    tot
    1  0.000  0.004  0.000  0.002  0.077  0.062  0.000  0.116  0.146  0.406
    2  0.000  0.004  0.000  0.002  0.077  0.062  0.000  0.116  0.146  0.406
    3  0.000  0.001  0.000  0.002  0.000  0.000  0.000  0.000  0.000  0.003
    4  0.000  0.001  0.000  0.002  0.000  0.000  0.000  0.000  0.000  0.003
    5  0.000  0.001  0.007  0.001  0.001  0.000  0.000  0.000  0.000  0.010
    6  0.000  0.002  0.009  0.000  0.000  0.000  0.000  0.000  0.001  0.012
    7  0.000  0.000  0.000  0.002  0.000  0.000  0.000  0.000  0.001  0.004
    8  0.000  0.001  0.007  0.001  0.001  0.000  0.000  0.000  0.000  0.010
    9  0.000  0.002  0.009  0.000  0.000  0.000  0.000  0.000  0.001  0.012
   10  0.000  0.000  0.000  0.002  0.000  0.000  0.000  0.000  0.001  0.004
tot    0.000  0.015  0.034  0.014  0.157  0.124  0.000  0.232  0.296  0.872

band    25 # energy   -3.74747560 # occ.  1.00000000

ion      s     py     pz     px    dxy    dyz    dz2    dxz  x2-y2    tot
    1  0.000  0.002  0.000  0.004  0.146  0.116  0.000  0.062  0.077  0.406
    2  0.000  0.002  0.000  0.004  0.146  0.116  0.000  0.062  0.077  0.406
    3  0.000  0.002  0.000  0.001  0.000  0.000  0.000  0.000  0.000  0.003
    4  0.000  0.002  0.000  0.001  0.000  0.000  0.000  0.000  0.000  0.003
    5  0.000  0.001  0.004  0.001  0.001  0.000  0.000  0.000  0.000  0.007
    6  0.000  0.000  0.002  0.002  0.001  0.000  0.000  0.000  0.001  0.005
    7  0.000  0.001  0.011  0.000  0.000  0.000  0.000  0.000  0.000  0.014
    8  0.000  0.001  0.004  0.001  0.001  0.000  0.000  0.000  0.000  0.007
    9  0.000  0.000  0.002  0.002  0.001  0.000  0.000  0.000  0.001  0.005
   10  0.000  0.001  0.011  0.000  0.000  0.000  0.000  0.000  0.000  0.014
tot    0.000  0.014  0.034  0.015  0.296  0.232  0.000  0.124  0.157  0.872

band    26 # energy   -3.58529215 # occ.  1.00000000

ion      s     py     pz     px    dxy    dyz    dz2    dxz  x2-y2    tot
    1  0.000  0.000  0.000  0.000  0.261  0.112  0.000  0.011  0.027  0.411
    2  0.000  0.000  0.000  0.000  0.261  0.112  0.000  0.011  0.027  0.411
    3  0.000  0.001  0.000  0.010  0.000  0.000  0.000  0.000  0.000  0.011
    4  0.000  0.001  0.000  0.010  0.000  0.000  0.000  0.000  0.000  0.011
    5  0.002  0.000  0.005  0.009  0.000  0.000  0.001  0.000  0.000  0.016
    6  0.000  0.000  0.000  0.000  0.000  0.000  0.000  0.000  0.000  0.001
    7  0.001  0.004  0.003  0.001  0.000  0.000  0.000  0.000  0.000  0.010
    8  0.002  0.000  0.005  0.009  0.000  0.000  0.001  0.000  0.000  0.016
    9  0.000  0.000  0.000  0.000  0.000  0.000  0.000  0.000  0.000  0.001
   10  0.001  0.004  0.003  0.001  0.000  0.000  0.000  0.000  0.000  0.010
tot    0.006  0.011  0.015  0.042  0.523  0.224  0.002  0.023  0.055  0.900

band    27 # energy   -3.58528626 # occ.  1.00000000

ion      s     py     pz     px    dxy    dyz    dz2    dxz  x2-y2    tot
    1  0.000  0.000  0.000  0.000  0.027  0.011  0.000  0.112  0.261  0.411
    2  0.000  0.000  0.000  0.000  0.027  0.011  0.000  0.112  0.261  0.411
    3  0.000  0.010  0.000  0.001  0.000  0.000  0.000  0.000  0.000  0.011
    4  0.000  0.010  0.000  0.001  0.000  0.000  0.000  0.000  0.000  0.011
    5  0.000  0.000  0.000  0.001  0.000  0.000  0.000  0.000  0.000  0.002
    6  0.002  0.007  0.005  0.002  0.000  0.000  0.001  0.000  0.000  0.017
    7  0.001  0.003  0.002  0.001  0.000  0.000  0.000  0.000  0.000  0.008
    8  0.000  0.000  0.000  0.001  0.000  0.000  0.000  0.000  0.000  0.002
    9  0.002  0.007  0.005  0.002  0.000  0.000  0.001  0.000  0.000  0.017
   10  0.001  0.003  0.002  0.001  0.000  0.000  0.000  0.000  0.000  0.008
tot    0.006  0.042  0.015  0.011  0.055  0.023  0.002  0.224  0.523  0.900

band    28 # energy   -3.53873508 # occ.  1.00000000

ion      s     py     pz     px    dxy    dyz    dz2    dxz  x2-y2    tot
    1  0.016  0.000  0.000  0.000  0.000  0.000  0.431  0.000  0.000  0.447
    2  0.016  0.000  0.000  0.000  0.000  0.000  0.431  0.000  0.000  0.447
    3  0.000  0.000  0.000  0.000  0.000  0.000  0.000  0.000  0.000  0.000
    4  0.000  0.000  0.000  0.000  0.000  0.000  0.000  0.000  0.000  0.000
    5  0.000  0.004  0.000  0.000  0.000  0.000  0.000  0.000  0.000  0.004
    6  0.000  0.001  0.000  0.003  0.000  0.000  0.000  0.000  0.000  0.004
    7  0.000  0.001  0.000  0.003  0.000  0.000  0.000  0.000  0.000  0.004
    8  0.000  0.004  0.000  0.000  0.000  0.000  0.000  0.000  0.000  0.004
    9  0.000  0.001  0.000  0.003  0.000  0.000  0.000  0.000  0.000  0.004
   10  0.000  0.001  0.000  0.003  0.000  0.000  0.000  0.000  0.000  0.004
tot    0.032  0.011  0.000  0.011  0.000  0.001  0.863  0.001  0.000  0.920

band    29 # energy   -3.34441076 # occ.  1.00000000

ion      s     py     pz     px    dxy    dyz    dz2    dxz  x2-y2    tot
    1  0.011  0.000  0.000  0.000  0.000  0.000  0.217  0.000  0.000  0.228
    2  0.011  0.000  0.000  0.000  0.000  0.000  0.217  0.000  0.000  0.228
    3  0.000  0.000  0.049  0.000  0.000  0.000  0.000  0.000  0.000  0.049
    4  0.000  0.000  0.049  0.000  0.000  0.000  0.000  0.000  0.000  0.049
    5  0.001  0.000  0.019  0.006  0.000  0.000  0.001  0.000  0.000  0.028
    6  0.001  0.005  0.019  0.002  0.000  0.000  0.001  0.000  0.000  0.028
    7  0.001  0.005  0.019  0.002  0.000  0.000  0.001  0.000  0.000  0.028
    8  0.001  0.000  0.019  0.006  0.000  0.000  0.001  0.000  0.000  0.028
    9  0.001  0.005  0.019  0.002  0.000  0.000  0.001  0.000  0.000  0.028
   10  0.001  0.005  0.019  0.002  0.000  0.000  0.001  0.000  0.000  0.028
tot    0.029  0.019  0.213  0.019  0.000  0.001  0.439  0.001  0.000  0.720

band    30 # energy   -2.98418547 # occ.  1.00000000

ion      s     py     pz     px    dxy    dyz    dz2    dxz  x2-y2    tot
    1  0.000  0.003  0.000  0.019  0.012  0.000  0.000  0.000  0.002  0.037
    2  0.000  0.003  0.000  0.019  0.012  0.000  0.000  0.000  0.002  0.037
    3  0.000  0.001  0.000  0.006  0.000  0.000  0.000  0.000  0.000  0.007
    4  0.000  0.001  0.000  0.006  0.000  0.000  0.000  0.000  0.000  0.007
    5  0.002  0.019  0.007  0.041  0.000  0.000  0.000  0.000  0.001  0.070
    6  0.000  0.025  0.000  0.111  0.000  0.000  0.000  0.000  0.000  0.136
    7  0.001  0.001  0.005  0.080  0.001  0.000  0.000  0.000  0.000  0.089
    8  0.002  0.019  0.007  0.041  0.000  0.000  0.000  0.000  0.001  0.070
    9  0.000  0.025  0.000  0.111  0.000  0.000  0.000  0.000  0.000  0.136
   10  0.001  0.001  0.005  0.080  0.001  0.000  0.000  0.000  0.000  0.089
tot    0.006  0.098  0.026  0.513  0.025  0.001  0.001  0.001  0.006  0.677

band    31 # energy   -2.98416282 # occ.  1.00000000

ion      s     py     pz     px    dxy    dyz    dz2    dxz  x2-y2    tot
    1  0.000  0.019  0.000  0.003  0.002  0.000  0.000  0.000  0.012  0.037
    2  0.000  0.019  0.000  0.003  0.002  0.000  0.000  0.000  0.012  0.037
    3  0.000  0.006  0.000  0.001  0.000  0.000  0.000  0.000  0.000  0.007
    4  0.000  0.006  0.000  0.001  0.000  0.000  0.000  0.000  0.000  0.007
    5  0.000  0.118  0.001  0.007  0.000  0.000  0.000  0.000  0.000  0.126
    6  0.002  0.045  0.008  0.004  0.001  0.000  0.000  0.000  0.000  0.061
    7  0.001  0.069  0.003  0.034  0.000  0.000  0.000  0.000  0.000  0.108
    8  0.000  0.118  0.001  0.007  0.000  0.000  0.000  0.000  0.000  0.126
    9  0.002  0.045  0.008  0.004  0.001  0.000  0.000  0.000  0.000  0.061