<?xml version="1.0" encoding="ISO-8859-1"?>
<modeling>
 <generator>
  <i name="program" type="string">vasp </i>
  <i name="version" type="string">5.4.4.18Apr17-6-g9f103f2a35  </i>
  <i name="subversion" type="string">(build May  1 2020 15:48:39) complex            parallel </i>
  <i name="platform" type="string">LinuxGNU </i>
  <i name="date" type="string">2020 06 14 </i>
  <i name="time" type="string">05:34:20 </i>
 </generator>
 <incar>
  <i type="int" name="ISTART">     1</i>
  <i type="string" name="PREC">accurate</i>
  <i type="string" name="ALGO"> Normal</i>
  <i type="int" name="ISPIN">     2</i>
  <i name="AMIN">      0.01000000</i>
  <i type="int" name="NELM">   400</i>
  <i type="int" name="IBRION">     2</i>
  <i name="EDIFF">      0.00010000</i>
  <i type="int" name="NSW">    99</i>
  <i type="int" name="ISIF">     3</i>
  <i name="ENCUT">    520.00000000</i>
  <v name="MAGMOM">      5.00000000      5.00000000      0.60000000      0.60000000      0.60000000      0.60000000      0.60000000      0.60000000      0.60000000      0.60000000</v>
  <i type="string" name="LREAL"> Auto</i>
  <i type="int" name="ISMEAR">    -5</i>
  <i name="SIGMA">      0.05000000</i>
  <i type="logical" name="LWAVE"> F  </i>
  <i type="int" name="LORBIT">    11</i>
  <v type="int" name="KPOINT_BSE">    -1     0     0     0</v>
  <i type="int" name="NELM">   400</i>
  <i type="string" name="GGA"> Bo</i>
  <i name="PARAM1">      0.18333333</i>
  <i name="PARAM2">      0.22000000</i>
  <i type="logical" name="LUSE_VDW"> T  </i>
  <i name="AGGAC">      0.00000000</i>
 </incar>
 <structure name="primitive_cell" >
  <crystal>
   <varray name="basis" >
    <v>       6.90777700      -0.00000000       0.00000000 </v>
    <v>       3.45388800       5.98231000       0.00000000 </v>
    <v>       0.00000000       0.00000000      23.44458800 </v>
   </varray>
   <i name="volume">    968.83501932 </i>
   <varray name="rec_basis" >
    <v>       0.14476437      -0.08357974       0.00000000 </v>
    <v>       0.00000000       0.16715951      -0.00000000 </v>
    <v>      -0.00000000       0.00000000       0.04265377 </v>
   </varray>
  </crystal>
  <varray name="positions" >
   <v>       0.33333300       0.33333300       0.49992500 </v>
   <v>       0.00042000       0.37322400      -0.42624800 </v>
   <v>      -0.37364300       0.00042000      -0.42624800 </v>
   <v>       0.37322400      -0.37364300      -0.42624800 </v>
   <v>       0.37364300      -0.00042000       0.42624800 </v>
   <v>      -0.37322400       0.37364300       0.42624800 </v>
   <v>      -0.00042000      -0.37322400       0.42624800 </v>
   <v>      -0.33333300      -0.33333300      -0.49992500 </v>
   <v>       0.00000000       0.00000000       0.44821600 </v>
   <v>       0.00000000       0.00000000      -0.44821600 </v>
  </varray>
 </structure>
 <varray name="primitive_index" >
  <v type="int" >        1 </v>
  <v type="int" >        6 </v>
  <v type="int" >        5 </v>
  <v type="int" >        7 </v>
  <v type="int" >        8 </v>
  <v type="int" >       10 </v>
  <v type="int" >        9 </v>
  <v type="int" >        2 </v>
  <v type="int" >        3 </v>
  <v type="int" >        4 </v>
 </varray>
 <kpoints>
  <generation param="Gamma">
   <v type="int" name="divisions">       5        5        1 </v>
   <v name="usershift">      0.00000000       0.00000000       0.00000000 </v>
   <v name="genvec1">      0.20000000       0.00000000       0.00000000 </v>
   <v name="genvec2">      0.00000000       0.20000000       0.00000000 </v>
   <v name="genvec3">      0.00000000       0.00000000       1.00000000 </v>
   <v name="shift">      0.00000000       0.00000000       0.00000000 </v>
  </generation>
  <varray name="kpointlist" >
   <v>       0.00000000       0.00000000       0.00000000 </v>
   <v>       0.20000000       0.00000000       0.00000000 </v>
   <v>       0.40000000       0.00000000       0.00000000 </v>
   <v>       0.40000000       0.20000000       0.00000000 </v>
   <v>      -0.40000000       0.20000000       0.00000000 </v>
  </varray>
  <varray name="weights" >
   <v>       0.04000000 </v>
   <v>       0.24000000 </v>
   <v>       0.24000000 </v>
   <v>       0.24000000 </v>
   <v>       0.24000000 </v>
  </varray>
  <varray name="tetrahedronlist"  type="int" >
   <v type="int" >        6        1        1        2        2 </v>
   <v type="int" >       12        1        2        2        2 </v>
   <v type="int" >       12        2        2        3        4 </v>
   <v type="int" >       12        2        2        2        4 </v>
   <v type="int" >       12        2        3        3        4 </v>
   <v type="int" >       12        2        3        4        4 </v>
   <v type="int" >        6        2        2        4        4 </v>
   <v type="int" >       12        3        3        3        5 </v>
   <v type="int" >       12        3        3        4        5 </v>
   <v type="int" >       12        3        4        4        5 </v>
   <v type="int" >        6        3        3        5        5 </v>
   <v type="int" >       12        3        4        5        5 </v>
   <v type="int" >        6        4        4        5        5 </v>
   <v type="int" >       12        4        5        5        5 </v>
   <v type="int" >        6        5        5        5        5 </v>
  </varray>
  <i name="volumeweight">      0.00666667 </i>
 </kpoints>
 <parameters>
  <separator name="general" >
   <i type="string" name="SYSTEM">unknown system</i>
   <i type="logical" name="LCOMPAT"> F  </i>
  </separator>
  <separator name="electronic" >
   <i type="string" name="PREC">accura</i>
   <i name="ENMAX">    520.00000000</i>
   <i name="ENAUG">    446.84200000</i>
   <i name="EDIFF">      0.00010000</i>
   <i type="int" name="IALGO">    38</i>
   <i type="int" name="IWAVPR">    11</i>
   <i type="int" name="NBANDS">    48</i>
   <i name="NELECT">     56.00000000</i>
   <i type="int" name="TURBO">     0</i>
   <i type="int" name="IRESTART">     0</i>
   <i type="int" name="NREBOOT">     0</i>
   <i type="int" name="NMIN">     0</i>
   <i name="EREF">      0.00000000</i>
   <separator name="electronic smearing" >
    <i type="int" name="ISMEAR">    -5</i>
    <i name="SIGMA">      0.05000000</i>
    <i name="KSPACING">      0.50000000</i>
    <i type="logical" name="KGAMMA"> T  </i>
   </separator>
   <separator name="electronic projectors" >
    <i type="logical" name="LREAL"> T  </i>
    <v name="ROPT">     -0.00025000     -0.00025000     -0.00025000</v>
    <i type="int" name="LMAXPAW">  -100</i>
    <i type="int" name="LMAXMIX">     2</i>
    <i type="logical" name="NLSPLINE"> F  </i>
   </separator>
   <separator name="electronic startup" >
    <i type="int" name="ISTART">     0</i>
    <i type="int" name="ICHARG">     2</i>
    <i type="int" name="INIWAV">     1</i>
   </separator>
   <separator name="electronic spin" >
    <i type="int" name="ISPIN">     2</i>
    <i type="logical" name="LNONCOLLINEAR"> F  </i>
    <v name="MAGMOM">      5.00000000      5.00000000      0.60000000      0.60000000      0.60000000      0.60000000      0.60000000      0.60000000      0.60000000      0.60000000</v>
    <i name="NUPDOWN">     -1.00000000</i>
    <i type="logical" name="LSORBIT"> F  </i>
    <v name="SAXIS">      0.00000000      0.00000000      1.00000000</v>
    <i type="logical" name="LSPIRAL"> F  </i>
    <v name="QSPIRAL">      0.00000000      0.00000000      0.00000000</v>
    <i type="logical" name="LZEROZ"> F  </i>
   </separator>
   <separator name="electronic exchange-correlation" >
    <i type="logical" name="LASPH"> F  </i>
    <i type="logical" name="LMETAGGA"> F  </i>
   </separator>
   <separator name="electronic convergence" >
    <i type="int" name="NELM">   400</i>
    <i type="int" name="NELMDL">     0</i>
    <i type="int" name="NELMIN">     2</i>
    <i name="ENINI">    520.00000000</i>
    <separator name="electronic convergence detail" >
     <i type="logical" name="LDIAG"> T  </i>
     <i type="logical" name="LSUBROT"> F  </i>
     <i name="WEIMIN">      0.00100000</i>
     <i name="EBREAK">      0.00000052</i>
     <i name="DEPER">      0.30000000</i>
     <i type="int" name="NRMM">     4</i>
     <i name="TIME">      0.40000000</i>
    </separator>
   </separator>
   <separator name="electronic mixer" >
    <i name="AMIX">      0.40000000</i>
    <i name="BMIX">      1.00000000</i>
    <i name="AMIN">      0.01000000</i>
    <i name="AMIX_MAG">      1.60000000</i>
    <i name="BMIX_MAG">      1.00000000</i>
    <separator name="electronic mixer details" >
     <i type="int" name="IMIX">     4</i>
     <i type="logical" name="MIXFIRST"> F  </i>
     <i type="int" name="MAXMIX">   -45</i>
     <i name="WC">    100.00000000</i>
     <i type="int" name="INIMIX">     1</i>
     <i type="int" name="MIXPRE">     1</i>
     <i type="int" name="MREMOVE">     5</i>
    </separator>
   </separator>
   <separator name="electronic dipolcorrection" >
    <i type="logical" name="LDIPOL"> F  </i>
    <i type="logical" name="LMONO"> F  </i>
    <i type="int" name="IDIPOL">     0</i>
    <i name="EPSILON">      1.00000000</i>
    <v name="DIPOL">   -100.00000000   -100.00000000   -100.00000000</v>
    <i name="EFIELD">      0.00000000</i>
   </separator>
  </separator>
  <separator name="grids" >
   <i type="int" name="NGX">    54</i>
   <i type="int" name="NGY">    54</i>
   <i type="int" name="NGZ">   180</i>
   <i type="int" name="NGXF">   108</i>
   <i type="int" name="NGYF">   108</i>
   <i type="int" name="NGZF">   360</i>
   <i type="logical" name="ADDGRID"> F  </i>
  </separator>
  <separator name="ionic" >
   <i type="int" name="NSW">    99</i>
   <i type="int" name="IBRION">     2</i>
   <i type="int" name="MDALGO">     0</i>
   <i type="int" name="ISIF">     3</i>
   <i name="PSTRESS">      0.00000000</i>
   <i name="EDIFFG">      0.00100000</i>
   <i type="int" name="NFREE">     1</i>
   <i name="POTIM">      0.50000000</i>
   <i name="SMASS">     -3.00000000</i>
   <i name="SCALEE">      1.00000000</i>
  </separator>
  <separator name="ionic md" >
   <i name="TEBEG">      0.00010000</i>
   <i name="TEEND">      0.00010000</i>
   <i type="int" name="NBLOCK">     1</i>
   <i type="int" name="KBLOCK">    99</i>
   <i type="int" name="NPACO">   256</i>
   <i name="APACO">     16.00000000</i>
  </separator>
  <separator name="symmetry" >
   <i type="int" name="ISYM">     2</i>
   <i name="SYMPREC">      0.00001000</i>
  </separator>
  <separator name="dos" >
   <i type="int" name="LORBIT">    11</i>
   <v name="RWIGS">     -1.00000000     -1.00000000     -1.00000000</v>
   <i type="int" name="NEDOS">   301</i>
   <i name="EMIN">     10.00000000</i>
   <i name="EMAX">    -10.00000000</i>
   <i name="EFERMI">      0.00000000</i>
  </separator>
  <separator name="writing" >
   <i type="int" name="NWRITE">     2</i>
   <i type="logical" name="LWAVE"> F  </i>
   <i type="logical" name="LDOWNSAMPLE"> F  </i>
   <i type="logical" name="LCHARG"> T  </i>
   <i type="logical" name="LPARD"> F  </i>
   <i type="logical" name="LVTOT"> F  </i>
   <i type="logical" name="LVHAR"> F  </i>
   <i type="logical" name="LELF"> F  </i>
   <i type="logical" name="LOPTICS"> F  </i>
   <v name="STM">      0.00000000      0.00000000      0.00000000      0.00000000      0.00000000      0.00000000      0.00000000</v>
  </separator>
  <separator name="performance" >
   <i type="int" name="NPAR">    24</i>
   <i type="int" name="NSIM">     4</i>
   <i type="int" name="NBLK">    -1</i>
   <i type="logical" name="LPLANE"> T  </i>
   <i type="logical" name="LSCALAPACK"> T  </i>
   <i type="logical" name="LSCAAWARE"> F  </i>
   <i type="logical" name="LSCALU"> F  </i>
   <i type="logical" name="LASYNC"> F  </i>
   <i type="logical" name="LORBITALREAL"> F  </i>
  </separator>
  <separator name="miscellaneous" >
   <i type="int" name="IDIOT">     3</i>
   <i type="int" name="ISPECIAL">     0</i>
   <i type="logical" name="LMUSIC"> F  </i>
   <v name="POMASS">     51.99600000     28.08500000     78.96000000</v>
   <v name="DARWINR">      0.00000000      0.00000000      0.00000000</v>
   <v name="DARWINV">      1.00000000      1.00000000      1.00000000</v>
   <i type="logical" name="LCORR"> T  </i>
  </separator>
  <i type="logical" name="GGA_COMPAT"> T  </i>
  <i type="logical" name="LBERRY"> F  </i>
  <i type="int" name="ICORELEVEL">     0</i>
  <i type="logical" name="LDAU"> F  </i>
  <i type="int" name="I_CONSTRAINED_M">     0</i>
  <separator name="electronic exchange-correlation" >
   <i type="string" name="GGA">BO</i>
   <i type="int" name="VOSKOWN">     0</i>
   <i type="logical" name="LHFCALC"> F  </i>
   <i type="string" name="PRECFOCK"></i>
   <i type="logical" name="LSYMGRAD"> F  </i>
   <i type="logical" name="LHFONE"> F  </i>
   <i type="logical" name="LRHFCALC"> F  </i>
   <i type="logical" name="LTHOMAS"> F  </i>
   <i type="logical" name="LMODELHF"> F  </i>
   <i name="ENCUT4O">     -1.00000000</i>
   <i type="int" name="EXXOEP">     0</i>
   <i type="int" name="FOURORBIT">     0</i>
   <i name="AEXX">      0.00000000</i>
   <i name="HFALPHA">      0.00000000</i>
   <i name="MCALPHA">      0.00000000</i>
   <i name="ALDAX">      1.00000000</i>
   <i name="AGGAX">      1.00000000</i>
   <i name="ALDAC">      1.00000000</i>
   <i name="AGGAC">      0.00000000</i>
   <i type="int" name="NKREDX">     1</i>
   <i type="int" name="NKREDY">     1</i>
   <i type="int" name="NKREDZ">     1</i>
   <i type="logical" name="SHIFTRED"> F  </i>
   <i type="logical" name="ODDONLY"> F  </i>
   <i type="logical" name="EVENONLY"> F  </i>
   <i type="int" name="LMAXFOCK">     0</i>
   <i type="int" name="NMAXFOCKAE">     0</i>
   <i type="logical" name="LFOCKAEDFT"> F  </i>
   <i name="HFSCREEN">      0.00000000</i>
   <i name="HFSCREENC">      0.00000000</i>
   <i type="int" name="NBANDSGWLOW">     0</i>
  </separator>
  <separator name="vdW DFT" >
   <i type="logical" name="LUSE_VDW"> T  </i>
   <i name="Zab_VDW">     -0.84910000</i>
   <i name="PARAM1">      0.18333333</i>
   <i name="PARAM2">      0.22000000</i>
   <i name="PARAM3">      0.00000000</i>
  </separator>
  <separator name="model GW" >
   <i type="int" name="MODEL_GW">     0</i>
   <i name="MODEL_EPS0">     58.13010116</i>
   <i name="MODEL_ALPHA">      1.00000000</i>
  </separator>
  <separator name="linear response parameters" >
   <i type="logical" name="LEPSILON"> F  </i>
   <i type="logical" name="LRPA"> F  </i>
   <i type="logical" name="LNABLA"> F  </i>
   <i type="logical" name="LVEL"> F  </i>
   <i type="int" name="KINTER">     0</i>
   <i name="CSHIFT">      0.10000000</i>
   <i name="OMEGAMAX">     -1.00000000</i>
   <i name="DEG_THRESHOLD">      0.00200000</i>
   <i name="RTIME">     -0.10000000</i>
   <i name="WPLASMAI">      0.00000000</i>
   <v name="DFIELD">      0.00000000      0.00000000      0.00000000</v>
   <v name="WPLASMA">      0.00000000      0.00000000      0.00000000      0.00000000      0.00000000      0.00000000      0.00000000      0.00000000      0.00000000</v>
  </separator>
  <separator name="orbital magnetization" >
   <i type="logical" name="NUCIND"> F  </i>
   <v name="MAGPOS">      0.00000000      0.00000000      0.00000000</v>
   <i type="logical" name="LNICSALL"> T  </i>
   <i type="logical" name="ORBITALMAG"> F  </i>
   <i type="logical" name="LMAGBLOCH"> F  </i>
   <i type="logical" name="LCHIMAG"> F  </i>
   <i type="logical" name="LGAUGE"> T  </i>
   <i type="int" name="MAGATOM">     0</i>
   <v name="MAGDIPOL">      0.00000000      0.00000000      0.00000000</v>
   <v name="AVECCONST">      0.00000000      0.00000000      0.00000000</v>
  </separator>
  <separator name="response functions" >
   <i type="logical" name="LADDER"> F  </i>
   <i type="logical" name="LRPAFORCE"> F  </i>
   <i type="logical" name="LFXC"> F  </i>
   <i type="logical" name="LHARTREE"> T  </i>
   <i type="int" name="IBSE">     0</i>
   <v type="int" name="KPOINT">    -1     0     0     0</v>
   <i type="logical" name="LTCTE"> F  </i>
   <i type="logical" name="LTETE"> F  </i>
   <i type="logical" name="LTRIPLET"> F  </i>
   <i type="logical" name="LFXCEPS"> F  </i>
   <i type="logical" name="LFXHEG"> F  </i>
   <i type="int" name="NATURALO">     2</i>
   <i type="logical" name="L2ORDER"> F  </i>
   <i type="logical" name="LMP2LT"> F  </i>
   <i type="logical" name="LUSEW"> F  </i>
   <i name="ENCUTGW">     -2.00000000</i>
   <i name="ENCUTGWSOFT">     -2.00000000</i>
   <i name="ENCUTLF">     -1.00000000</i>
   <i type="int" name="LMAXMP2">    -1</i>
   <i name="SCISSOR">      0.00000000</i>
   <i type="int" name="NOMEGA">     0</i>
   <i type="int" name="NOMEGAR">     0</i>
   <i type="int" name="NBANDSGW">    -1</i>
   <i type="int" name="NBANDSO">    -1</i>
   <i type="int" name="NBANDSV">    -1</i>
   <i type="int" name="NELM">   400</i>
   <i type="int" name="NELMHF">     1</i>
   <i type="int" name="DIM">     3</i>
   <i type="int" name="ANTIRES">     0</i>
   <i name="OMEGAMAX">    -30.00000000</i>
   <i name="OMEGAMIN">    -30.00000000</i>
   <i name="OMEGATL">   -200.00000000</i>
   <i type="int" name="OMEGAGRID">   140</i>
   <i name="CSHIFT">     -0.10000000</i>
   <i type="logical" name="SELFENERGY"> F  </i>
   <i type="logical" name="LSPECTRAL"> F  </i>
   <i type="logical" name="LSPECTRALGW"> F  </i>
   <i type="logical" name="LSINGLES"> F  </i>
   <i type="logical" name="LFERMIGW"> F  </i>
   <i type="logical" name="ODDONLYGW"> F  </i>
   <i type="logical" name="EVENONLYGW"> F  </i>
   <i type="int" name="NKREDLFX">     1</i>
   <i type="int" name="NKREDLFY">     1</i>
   <i type="int" name="NKREDLFZ">     1</i>
   <i type="int" name="MAXMEM">  2800</i>
   <i type="int" name="TELESCOPE">     0</i>
   <i type="int" name="TAUPAR">     1</i>
   <i type="int" name="OMEGAPAR">    -1</i>
   <i name="LAMBDA">      1.00000000</i>
  </separator>
  <separator name="External order field" >
   <i name="OFIELD_KAPPA">      0.00000000</i>
   <v name="OFIELD_K">      0.00000000      0.00000000      0.00000000</v>
   <i name="OFIELD_Q6_NEAR">      0.00000000</i>
   <i name="OFIELD_Q6_FAR">      0.00000000</i>
   <i name="OFIELD_A">      0.00000000</i>
  </separator>
 </parameters>
 <atominfo>
  <atoms>      10 </atoms>
  <types>       3 </types>
  <array name="atoms" >
   <dimension dim="1">ion</dimension>
   <field type="string">element</field>
   <field type="int">atomtype</field>
   <set>
    <rc><c>Cr</c><c>   1</c></rc>
    <rc><c>Cr</c><c>   1</c></rc>
    <rc><c>Si</c><c>   2</c></rc>
    <rc><c>Si</c><c>   2</c></rc>
    <rc><c>Se</c><c>   3</c></rc>
    <rc><c>Se</c><c>   3</c></rc>
    <rc><c>Se</c><c>   3</c></rc>
    <rc><c>Se</c><c>   3</c></rc>
    <rc><c>Se</c><c>   3</c></rc>
    <rc><c>Se</c><c>   3</c></rc>
   </set>
  </array>
  <array name="atomtypes" >
   <dimension dim="1">type</dimension>
   <field type="int">atomspertype</field>
   <field type="string">element</field>
   <field>mass</field>
   <field>valence</field>
   <field type="string">pseudopotential</field>
   <set>
    <rc><c>   2</c><c>Cr</c><c>     51.99600000</c><c>      6.00000000</c><c> PAW_PBE Cr 06Sep2000                   </c></rc>
    <rc><c>   2</c><c>Si</c><c>     28.08500000</c><c>      4.00000000</c><c> PAW_PBE Si 05Jan2001                   </c></rc>
    <rc><c>   6</c><c>Se</c><c>     78.96000000</c><c>      6.00000000</c><c> PAW_PBE Se 06Sep2000                   </c></rc>
   </set>
  </array>
 </atominfo>
 <structure name="initialpos" >
  <crystal>
   <varray name="basis" >
    <v>       6.90777700      -0.00000000       0.00000000 </v>
    <v>       3.45388800       5.98231000       0.00000000 </v>
    <v>       0.00000000       0.00000000      23.44458800 </v>
   </varray>
   <i name="volume">    968.83501932 </i>
   <varray name="rec_basis" >
    <v>       0.14476437      -0.08357974       0.00000000 </v>
    <v>       0.00000000       0.16715951      -0.00000000 </v>
    <v>      -0.00000000       0.00000000       0.04265377 </v>
   </varray>
  </crystal>
  <varray name="positions" >
   <v>       0.33333300       0.33333300       0.49992500 </v>
   <v>       0.66666700       0.66666700       0.50007500 </v>
   <v>       0.00000000       0.00000000       0.44821600 </v>
   <v>       0.00000000       0.00000000       0.55178400 </v>
   <v>       0.62635700       0.00042000       0.57375200 </v>
   <v>       0.00042000       0.37322400       0.57375200 </v>
   <v>       0.37322400       0.62635700       0.57375200 </v>
   <v>       0.37364300       0.99958000       0.42624800 </v>
   <v>       0.99958000       0.62677600       0.42624800 </v>
   <v>       0.62677600       0.37364300       0.42624800 </v>
  </varray>
  <varray name="selective"  type="logical" >
   <v type="logical" >  T  T  T </v>
   <v type="logical" >  T  T  T </v>
   <v type="logical" >  F  F  F </v>
   <v type="logical" >  F  F  F </v>
   <v type="logical" >  F  F  F </v>
   <v type="logical" >  F  F  F </v>
   <v type="logical" >  F  F  F </v>
   <v type="logical" >  F  F  F </v>
   <v type="logical" >  F  F  F </v>
   <v type="logical" >  F  F  F </v>
  </varray>
  <nose>
   <v>      -3.00000000       0.00000000       0.00010000       0.00010000 </v>
  </nose>
 </structure>
 <calculation>
  <scstep>
   <time name="dav">   20.79   32.54</time>
   <time name="total">   57.22   98.91</time>
   <energy>
    <i name="alphaZ">     29.07756033 </i>
    <i name="ewald">   5985.89955237 </i>
    <i name="hartreedc">  -8014.76401249 </i>
    <i name="XCdc">    -66.47697914 </i>
    <i name="pawpsdc">   1150.13217358 </i>
    <i name="pawaedc">   -984.69438568 </i>
    <i name="eentropy">      0.00000000 </i>
    <i name="bandstr">    -40.70202374 </i>
    <i name="atom">   2313.29000814 </i>
    <i name="e_fr_energy">    371.76189338 </i>
    <i name="e_wo_entrp">    371.76189338 </i>
    <i name="e_0_energy">    371.76189338 </i>
   </energy>
  </scstep>
  <scstep>
   <time name="dav">   28.65   44.98</time>
   <time name="total">   28.66   45.00</time>
   <energy>
    <i name="e_fr_energy">     -2.58577911 </i>
    <i name="e_wo_entrp">     -2.58577911 </i>
    <i name="e_0_energy">     -2.58577911 </i>
   </energy>
  </scstep>
  <scstep>
   <time name="dav">   23.03   41.14</time>
   <time name="total">   23.04   41.16</time>
   <energy>
    <i name="e_fr_energy">    -48.55807233 </i>
    <i name="e_wo_entrp">    -48.55807233 </i>
    <i name="e_0_energy">    -48.55807233 </i>
   </energy>
  </scstep>
  <scstep>
   <time name="dav">   21.14   37.67</time>
   <time name="total">   21.15   37.69</time>
   <energy>
    <i name="e_fr_energy">    -50.26347967 </i>
    <i name="e_wo_entrp">    -50.26347967 </i>
    <i name="e_0_energy">    -50.26347967 </i>
   </energy>
  </scstep>
  <scstep>
   <time name="dav">   23.33   41.26</time>
   <time name="total">   25.61   43.62</time>
   <energy>
    <i name="e_fr_energy">    -50.32259693 </i>
    <i name="e_wo_entrp">    -50.32259693 </i>
    <i name="e_0_energy">    -50.32259693 </i>
   </energy>
  </scstep>
  <scstep>
   <time name="dav">   22.78   40.00</time>
   <time name="total">   64.96  108.38</time>
   <energy>
    <i name="e_fr_energy">    -80.04562019 </i>
    <i name="e_wo_entrp">    -80.04562019 </i>
    <i name="e_0_energy">    -80.04562019 </i>
   </energy>
  </scstep>
  <scstep>
   <time name="dav">   20.44   37.48</time>
   <time name="total">   57.31  105.03</time>
   <energy>
    <i name="e_fr_energy">    -43.58478908 </i>
    <i name="e_wo_entrp">    -43.58478908 </i>
    <i name="e_0_energy">    -43.58478908 </i>
   </energy>
  </scstep>
  <scstep>
   <time name="dav">   23.06   39.03</time>
   <time name="total">   60.56  106.75</time>
   <energy>
    <i name="e_fr_energy">    -45.02620309 </i>
    <i name="e_wo_entrp">    -45.02620309 </i>
    <i name="e_0_energy">    -45.02620309 </i>
   </energy>
  </scstep>
  <scstep>
   <time name="dav">   26.54   47.74</time>
   <time name="total">   63.28  115.52</time>
   <energy>
    <i name="e_fr_energy">   -178.14660113 </i>
    <i name="e_wo_entrp">   -178.14660113 </i>
    <i name="e_0_energy">   -178.14660113 </i>
   </energy>
  </scstep>
  <scstep>
   <time name="dav">   23.84   41.04</time>
   <time name="total">   69.31  109.46</time>
   <energy>
    <i name="e_fr_energy">    -43.43420477 </i>
    <i name="e_wo_entrp">    -43.43420477 </i>
    <i name="e_0_energy">    -43.43420477 </i>
   </energy>
  </scstep>
  <scstep>
   <time name="dav">   23.85   41.85</time>
   <time name="total">   60.95  108.97</time>
   <energy>
    <i name="e_fr_energy">    -46.10343037 </i>
    <i name="e_wo_entrp">    -46.10343037 </i>
    <i name="e_0_energy">    -46.10343037 </i>
   </energy>
  </scstep>
  <scstep>
   <time name="dav">   22.90   41.45</time>
   <time name="total">   61.54  109.41</time>
   <energy>
    <i name="e_fr_energy">    -46.60606292 </i>
    <i name="e_wo_entrp">    -46.60606292 </i>
    <i name="e_0_energy">    -46.60606292 </i>
   </energy>
  </scstep>
  <scstep>
   <time name="dav">   23.27   40.44</time>
   <time name="total">   61.01  108.29</time>
   <energy>
    <i name="e_fr_energy">    -46.85651235 </i>
    <i name="e_wo_entrp">    -46.85651235 </i>
    <i name="e_0_energy">    -46.85651235 </i>
   </energy>
  </scstep>
  <scstep>
   <time name="dav">   24.93   40.73</time>
   <time name="total">   69.58  108.40</time>
   <energy>
    <i name="e_fr_energy">    -47.00470450 </i>
    <i name="e_wo_entrp">    -47.00470450 </i>
    <i name="e_0_energy">    -47.00470450 </i>
   </energy>
  </scstep>
  <scstep>
   <time name="dav">   22.04   38.29</time>
   <time name="total">   59.72  106.84</time>
   <energy>
    <i name="e_fr_energy">    -47.02846522 </i>
    <i name="e_wo_entrp">    -47.02846522 </i>
    <i name="e_0_energy">    -47.02846522 </i>
   </energy>
  </scstep>
  <scstep>
   <time name="dav">   22.15   39.93</time>
   <time name="total">   59.26  107.81</time>
   <energy>
    <i name="e_fr_energy">    -47.03218250 </i>
    <i name="e_wo_entrp">    -47.03218250 </i>
    <i name="e_0_energy">    -47.03218250 </i>
   </energy>
  </scstep>
  <scstep>
   <time name="dav">   20.14   34.41</time>
   <time name="total">   57.46  102.81</time>
   <energy>
    <i name="e_fr_energy">    -47.03204159 </i>
    <i name="e_wo_entrp">    -47.03204159 </i>
    <i name="e_0_energy">    -47.03204159 </i>
   </energy>
  </scstep>
  <scstep>
   <time name="dav">   18.08   31.94</time>
   <time name="total">   57.25  100.09</time>
   <energy>
    <i name="e_fr_energy">    -47.03273328 </i>
    <i name="e_wo_entrp">    -47.03273328 </i>
    <i name="e_0_energy">    -47.03273328 </i>
   </energy>
  </scstep>
  <scstep>
   <time name="dav">   18.61   30.35</time>
   <time name="total">   61.86   98.09</time>
   <energy>
    <i name="e_fr_energy">    -47.03327757 </i>
    <i name="e_wo_entrp">    -47.03327757 </i>
    <i name="e_0_energy">    -47.03327757 </i>
   </energy>
  </scstep>
  <scstep>
   <time name="dav">   19.78   33.64</time>
   <time name="total">   57.95  101.04</time>
   <energy>
    <i name="e_fr_energy">    -47.03395326 </i>
    <i name="e_wo_entrp">    -47.03395326 </i>
    <i name="e_0_energy">    -47.03395326 </i>
   </energy>
  </scstep>
  <scstep>
   <time name="dav">   16.95   31.48</time>
   <time name="total">   64.83   99.00</time>
   <energy>
    <i name="e_fr_energy">    -47.03457770 </i>
    <i name="e_wo_entrp">    -47.03457770 </i>
    <i name="e_0_energy">    -47.03457770 </i>
   </energy>
  </scstep>
  <scstep>
   <time name="dav">   18.32   32.96</time>
   <time name="total">   56.35  100.33</time>
   <energy>
    <i name="e_fr_energy">    -47.03577909 </i>
    <i name="e_wo_entrp">    -47.03577909 </i>
    <i name="e_0_energy">    -47.03577909 </i>
   </energy>
  </scstep>
  <scstep>
   <time name="dav">   17.72   31.48</time>
   <time name="total">   56.36   98.56</time>
   <energy>
    <i name="e_fr_energy">    -47.03741435 </i>
    <i name="e_wo_entrp">    -47.03741435 </i>
    <i name="e_0_energy">    -47.03741435 </i>
   </energy>
  </scstep>
  <scstep>
   <time name="dav">   19.70   34.32</time>
   <time name="total">   57.95  102.10</time>
   <energy>
    <i name="e_fr_energy">    -47.03887515 </i>
    <i name="e_wo_entrp">    -47.03887515 </i>
    <i name="e_0_energy">    -47.03887515 </i>
   </energy>
  </scstep>
  <scstep>
   <time name="dav">   19.38   33.72</time>
   <time name="total">   57.84  101.37</time>
   <energy>
    <i name="e_fr_energy">    -47.04061333 </i>
    <i name="e_wo_entrp">    -47.04061333 </i>
    <i name="e_0_energy">    -47.04061333 </i>
   </energy>
  </scstep>
  <scstep>
   <time name="dav">   16.51   30.44</time>
   <time name="total">   54.51   98.17</time>
   <energy>
    <i name="e_fr_energy">    -47.04161217 </i>
    <i name="e_wo_entrp">    -47.04161217 </i>
    <i name="e_0_energy">    -47.04161217 </i>
   </energy>
  </scstep>
  <scstep>
   <time name="dav">   20.35   33.58</time>
   <time name="total">   62.18  100.92</time>
   <energy>
    <i name="e_fr_energy">    -47.04268429 </i>
    <i name="e_wo_entrp">    -47.04268429 </i>
    <i name="e_0_energy">    -47.04268429 </i>
   </energy>
  </scstep>
  <scstep>
   <time name="dav">   17.43   31.42</time>
   <time name="total">   53.72   95.86</time>
   <energy>
    <i name="alphaZ">     29.07756033 </i>
    <i name="ewald">   5985.89955237 </i>
    <i name="hartreedc">  -8019.28428521 </i>
    <i name="XCdc">    -66.55790513 </i>
    <i name="pawpsdc">   1175.01843964 </i>
    <i name="pawaedc">  -1009.99983260 </i>
    <i name="eentropy">      0.00000000 </i>
    <i name="bandstr">   -454.48618205 </i>
    <i name="atom">   2313.29000814 </i>
    <i name="e_fr_energy">    -47.04264451 </i>
    <i name="e_wo_entrp">    -47.04264451 </i>
    <i name="e_0_energy">    -47.04264451 </i>
   </energy>
  </scstep>
  <structure>
   <crystal>
    <varray name="basis" >
     <v>       6.90777700      -0.00000000       0.00000000 </v>
     <v>       3.45388800       5.98231000       0.00000000 </v>
     <v>       0.00000000       0.00000000      23.44458800 </v>
    </varray>
    <i name="volume">    968.83501932 </i>
    <varray name="rec_basis" >
     <v>       0.14476437      -0.08357974       0.00000000 </v>
     <v>       0.00000000       0.16715951      -0.00000000 </v>
     <v>      -0.00000000       0.00000000       0.04265377 </v>
    </varray>
   </crystal>
   <varray name="positions" >
    <v>       0.33333300       0.33333300       0.49992500 </v>
    <v>       0.66666700       0.66666700       0.50007500 </v>
    <v>       0.00000000       0.00000000       0.44821600 </v>
    <v>       0.00000000       0.00000000       0.55178400 </v>
    <v>       0.62635700       0.00042000       0.57375200 </v>
    <v>       0.00042000       0.37322400       0.57375200 </v>
    <v>       0.37322400       0.62635700       0.57375200 </v>
    <v>       0.37364300       0.99958000       0.42624800 </v>
    <v>       0.99958000       0.62677600       0.42624800 </v>
    <v>       0.62677600       0.37364300       0.42624800 </v>
   </varray>
  </structure>
  <varray name="forces" >
   <v>      -0.00000000       0.00000000       0.00422126 </v>
   <v>      -0.00000000      -0.00000000      -0.00422126 </v>
   <v>      -0.00000000       0.00000000       0.44935688 </v>
   <v>      -0.00000000      -0.00000000      -0.44935688 </v>
   <v>       1.08457682      -0.01047451      -1.10770889 </v>
   <v>      -0.55135953      -0.93403377      -1.10770889 </v>
   <v>      -0.53321729       0.94450828      -1.10770889 </v>
   <v>      -1.08457682       0.01047451       1.10770889 </v>
   <v>       0.55135953       0.93403377       1.10770889 </v>
   <v>       0.53321729      -0.94450828       1.10770889 </v>
  </varray>
  <varray name="stress" >
   <v>     -37.50098194       0.00000260      -0.00000000 </v>
   <v>       0.00000367     -37.50097736      -0.00000000 </v>
   <v>       0.00000000      -0.00000000     -20.32198635 </v>
  </varray>
  <energy>
   <i name="e_fr_energy">    -47.04264451 </i>
   <i name="e_wo_entrp">    -47.04264451 </i>
   <i name="e_0_energy">      0.00000000 </i>
  </energy>
  <time name="totalsc"> 1648.96 2851.95</time>
 </calculation>
 <calculation>
  <scstep>
   <time name="dav">   23.71   41.36</time>
   <time name="total">   62.48  109.86</time>
   <energy>
    <i name="alphaZ">     38.97022804 </i>
    <i name="ewald">   7279.54251370 </i>
    <i name="hartreedc">  -9485.77658442 </i>
    <i name="XCdc">    -56.86388139 </i>
    <i name="pawpsdc">   1175.02051960 </i>
    <i name="pawaedc">  -1010.00194535 </i>
    <i name="eentropy">      0.00000000 </i>
    <i name="bandstr">   -318.56834956 </i>
    <i name="atom">   2313.29000814 </i>
    <i name="e_fr_energy">    -64.38749124 </i>
    <i name="e_wo_entrp">    -64.38749124 </i>
    <i name="e_0_energy">    -64.38749124 </i>
   </energy>
  </scstep>
  <scstep>
   <time name="dav">   22.54   41.74</time>
   <time name="total">   64.01  111.05</time>
   <energy>
    <i name="e_fr_energy">    -54.63490711 </i>
    <i name="e_wo_entrp">    -54.63490711 </i>
    <i name="e_0_energy">    -54.63490711 </i>
   </energy>
  </scstep>
  <scstep>
   <time name="dav">   26.37   42.77</time>
   <time name="total">   69.52  112.23</time>
   <energy>
    <i name="e_fr_energy">    -53.38407483 </i>
    <i name="e_wo_entrp">    -53.38407483 </i>
    <i name="e_0_energy">    -53.38407483 </i>
   </energy>
  </scstep>
  <scstep>
   <time name="dav">   26.65   43.84</time>
   <time name="total">   66.24  112.38</time>
   <energy>
    <i name="e_fr_energy">    -50.10821246 </i>
    <i name="e_wo_entrp">    -50.10821246 </i>
    <i name="e_0_energy">    -50.10821246 </i>
   </energy>
  </scstep>
  <scstep>
   <time name="dav">   26.12   44.54</time>
   <time name="total">   64.14  113.32</time>
   <energy>
    <i name="e_fr_energy">    -50.11694465 </i>
    <i name="e_wo_entrp">    -50.11694465 </i>
    <i name="e_0_energy">    -50.11694465 </i>
   </energy>
  </scstep>
  <scstep>
   <time name="dav">   24.10   42.77</time>
   <time name="total">   63.89  111.81</time>
   <energy>
    <i name="e_fr_energy">    -50.10868534 </i>
    <i name="e_wo_entrp">    -50.10868534 </i>
    <i name="e_0_energy">    -50.10868534 </i>
   </energy>
  </scstep>
  <scstep>
   <time name="dav">   21.80   38.25</time>
   <time name="total">   61.06  106.94</time>
   <energy>
    <i name="e_fr_energy">    -50.11213584 </i>
    <i name="e_wo_entrp">    -50.11213584 </i>
    <i name="e_0_energy">    -50.11213584 </i>
   </energy>
  </scstep>
  <scstep>
   <time name="dav">   21.81   38.10</time>
   <time name="total">   61.93  106.42</time>
   <energy>
    <i name="e_fr_energy">    -50.11354645 </i>
    <i name="e_wo_entrp">    -50.11354645 </i>
    <i name="e_0_energy">    -50.11354645 </i>
   </energy>
  </scstep>
  <scstep>
   <time name="dav">   20.44   36.37</time>
   <time name="total">   60.33  105.35</time>
   <energy>
    <i name="e_fr_energy">    -50.11449131 </i>
    <i name="e_wo_entrp">    -50.11449131 </i>
    <i name="e_0_energy">    -50.11449131 </i>
   </energy>
  </scstep>
  <scstep>
   <time name="dav">   21.28   38.27</time>
   <time name="total">   62.50  107.69</time>
   <energy>
    <i name="e_fr_energy">    -50.11472574 </i>
    <i name="e_wo_entrp">    -50.11472574 </i>
    <i name="e_0_energy">    -50.11472574 </i>
   </energy>
  </scstep>
  <scstep>
   <time name="dav">   23.76   36.29</time>
   <time name="total">   65.72  106.28</time>
   <energy>
    <i name="e_fr_energy">    -50.11497984 </i>
    <i name="e_wo_entrp">    -50.11497984 </i>
    <i name="e_0_energy">    -50.11497984 </i>
   </energy>
  </scstep>
  <scstep>
   <time name="dav">   20.10   35.92</time>
   <time name="total">   61.74  105.34</time>
   <energy>
    <i name="e_fr_energy">    -50.11387341 </i>
    <i name="e_wo_entrp">    -50.11387341 </i>
    <i name="e_0_energy">    -50.11387341 </i>
   </energy>
  </scstep>
  <scstep>
   <time name="dav">   18.72   33.18</time>
   <time name="total">   57.56  101.79</time>
   <energy>
    <i name="e_fr_energy">    -50.11220021 </i>
    <i name="e_wo_entrp">    -50.11220021 </i>
    <i name="e_0_energy">    -50.11220021 </i>
   </energy>
  </scstep>
  <scstep>
   <time name="dav">   20.53   36.71</time>
   <time name="total">   61.52  104.26</time>
   <energy>
    <i name="e_fr_energy">    -50.11142311 </i>
    <i name="e_wo_entrp">    -50.11142311 </i>
    <i name="e_0_energy">    -50.11142311 </i>
   </energy>
  </scstep>
  <scstep>
   <time name="dav">   19.26   30.43</time>
   <time name="total">   64.38   98.40</time>
   <energy>
    <i name="e_fr_energy">    -50.11039836 </i>
    <i name="e_wo_entrp">    -50.11039836 </i>
    <i name="e_0_energy">    -50.11039836 </i>
   </energy>
  </scstep>
  <scstep>
   <time name="dav">   16.08   31.67</time>
   <time name="total">   56.30  100.71</time>
   <energy>
    <i name="e_fr_energy">    -50.10934401 </i>
    <i name="e_wo_entrp">    -50.10934401 </i>
    <i name="e_0_energy">    -50.10934401 </i>
   </energy>
  </scstep>
  <scstep>
   <time name="dav">   19.89   35.79</time>
   <time name="total">   57.82  105.21</time>
   <energy>
    <i name="e_fr_energy">    -50.10891392 </i>
    <i name="e_wo_entrp">    -50.10891392 </i>
    <i name="e_0_energy">    -50.10891392 </i>
   </energy>
  </scstep>
  <scstep>
   <time name="dav">   20.66   34.29</time>
   <time name="total">   63.06  103.28</time>
   <energy>
    <i name="e_fr_energy">    -50.10870335 </i>
    <i name="e_wo_entrp">    -50.10870335 </i>
    <i name="e_0_energy">    -50.10870335 </i>
   </energy>
  </scstep>
  <scstep>
   <time name="dav">   21.34   36.81</time>
   <time name="total">   61.12  105.45</time>
   <energy>
    <i name="e_fr_energy">    -50.10890355 </i>
    <i name="e_wo_entrp">    -50.10890355 </i>
    <i name="e_0_energy">    -50.10890355 </i>
   </energy>
  </scstep>
  <scstep>
   <time name="dav">   18.19   30.33</time>
   <time name="total">   57.01   99.58</time>
   <energy>
    <i name="e_fr_energy">    -50.10928096 </i>
    <i name="e_wo_entrp">    -50.10928096 </i>
    <i name="e_0_energy">    -50.10928096 </i>
   </energy>
  </scstep>
  <scstep>
   <time name="dav">   18.12   31.57</time>
   <time name="total">   55.74  100.41</time>
   <energy>
    <i name="e_fr_energy">    -50.10946405 </i>
    <i name="e_wo_entrp">    -50.10946405 </i>
    <i name="e_0_energy">    -50.10946405 </i>
   </energy>
  </scstep>
  <scstep>
   <time name="dav">   18.18   33.65</time>
   <time name="total">   62.50   99.93</time>
   <energy>
    <i name="alphaZ">     38.97022804 </i>
    <i name="ewald">   7279.54251370 </i>
    <i name="hartreedc">  -9347.21705763 </i>
    <i name="XCdc">    -61.69613793 </i>
    <i name="pawpsdc">   1283.14187965 </i>
    <i name="pawaedc">  -1119.73828352 </i>
    <i name="eentropy">      0.00000000 </i>
    <i name="bandstr">   -436.40267587 </i>
    <i name="atom">   2313.29000814 </i>
    <i name="e_fr_energy">    -50.10952542 </i>
    <i name="e_wo_entrp">    -50.10952542 </i>
    <i name="e_0_energy">    -50.10952542 </i>
   </energy>
  </scstep>
  <structure>
   <crystal>
    <varray name="basis" >
     <v>       6.15207358       0.00000005      -0.00000000 </v>
     <v>       3.07603641       5.32785179      -0.00000000 </v>
     <v>       0.00000000      -0.00000000      22.05470194 </v>
    </varray>
    <i name="volume">    722.89437716 </i>
    <varray name="rec_basis" >
     <v>       0.16254682      -0.09384644      -0.00000000 </v>
     <v>      -0.00000000       0.18769291       0.00000000 </v>
     <v>       0.00000000       0.00000000       0.04534181 </v>
    </varray>
   </crystal>
   <varray name="positions" >
    <v>       0.33333300       0.33333300       0.49993369 </v>
    <v>       0.66666700       0.66666700       0.50006631 </v>
    <v>       0.00000000       0.00000000       0.44821600 </v>
    <v>       0.00000000       0.00000000       0.55178400 </v>
    <v>       0.62635700       0.00042000       0.57375200 </v>
    <v>       0.00042000       0.37322400       0.57375200 </v>
    <v>       0.37322400       0.62635700       0.57375200 </v>
    <v>       0.37364300       0.99958000       0.42624800 </v>
    <v>       0.99958000       0.62677600       0.42624800 </v>
    <v>       0.62677600       0.37364300       0.42624800 </v>
   </varray>
  </structure>
  <varray name="forces" >
   <v>      -0.00000000      -0.00000000      -0.00630534 </v>
   <v>       0.00000000      -0.00000000       0.00630534 </v>
   <v>       0.00000000      -0.00000000       0.29505217 </v>
   <v>      -0.00000000      -0.00000000      -0.29505217 </v>
   <v>       0.61294470      -0.01151943       0.27328851 </v>
   <v>      -0.31644843      -0.52506594       0.27328851 </v>
   <v>      -0.29649627       0.53658537       0.27328851 </v>
   <v>      -0.61294470       0.01151943      -0.27328851 </v>
   <v>       0.31644843       0.52506594      -0.27328851 </v>
   <v>       0.29649627      -0.53658537      -0.27328851 </v>
  </varray>
  <varray name="stress" >
   <v>       8.06096767      -0.00000121       0.00000000 </v>
   <v>       0.00000019       8.06096693      -0.00000000 </v>
   <v>       0.00000000      -0.00000000       4.20888517 </v>
  </varray>
  <energy>
   <i name="e_fr_energy">    -50.10952542 </i>
   <i name="e_wo_entrp">    -50.10952542 </i>
   <i name="e_0_energy">      0.00000000 </i>
  </energy>
  <time name="totalsc"> 1458.04 2494.64</time>
 </calculation>
 <calculation>
  <scstep>
   <time name="dav">   19.79   35.75</time>
   <time name="total">   59.02  104.49</time>
   <energy>
    <i name="alphaZ">     37.92827915 </i>
    <i name="ewald">   7147.45936881 </i>
    <i name="hartreedc">  -9200.33495387 </i>
    <i name="XCdc">    -62.57260366 </i>
    <i name="pawpsdc">   1283.14495644 </i>
    <i name="pawaedc">  -1119.74141973 </i>
    <i name="eentropy">      0.00000000 </i>
    <i name="bandstr">   -449.44346894 </i>
    <i name="atom">   2313.29000814 </i>
    <i name="e_fr_energy">    -50.26983366 </i>
    <i name="e_wo_entrp">    -50.26983366 </i>
    <i name="e_0_energy">    -50.26983366 </i>
   </energy>
  </scstep>
  <scstep>
   <time name="dav">   22.13   38.88</time>
   <time name="total">   62.10  108.22</time>
   <energy>
    <i name="e_fr_energy">    -50.19522038 </i>
    <i name="e_wo_entrp">    -50.19522038 </i>
    <i name="e_0_energy">    -50.19522038 </i>
   </energy>
  </scstep>
  <scstep>
   <time name="dav">   25.45   37.71</time>
   <time name="total">   65.50  106.70</time>
   <energy>
    <i name="e_fr_energy">    -50.17049702 </i>
    <i name="e_wo_entrp">    -50.17049702 </i>
    <i name="e_0_energy">    -50.17049702 </i>
   </energy>
  </scstep>
  <scstep>
   <time name="dav">   20.60   37.45</time>
   <time name="total">   62.74  105.67</time>
   <energy>
    <i name="e_fr_energy">    -50.15555394 </i>
    <i name="e_wo_entrp">    -50.15555394 </i>
    <i name="e_0_energy">    -50.15555394 </i>
   </energy>
  </scstep>
  <scstep>
   <time name="dav">   27.24   41.05</time>
   <time name="total">   70.74  110.01</time>
   <energy>
    <i name="e_fr_energy">    -50.15485505 </i>
    <i name="e_wo_entrp">    -50.15485505 </i>
    <i name="e_0_energy">    -50.15485505 </i>
   </energy>
  </scstep>
  <scstep>
   <time name="dav">   20.04   35.34</time>
   <time name="total">   59.48  103.77</time>
   <energy>
    <i name="e_fr_energy">    -50.15468659 </i>
    <i name="e_wo_entrp">    -50.15468659 </i>
    <i name="e_0_energy">    -50.15468659 </i>
   </energy>
  </scstep>
  <scstep>
   <time name="dav">   19.63   31.48</time>
   <time name="total">   59.42   97.89</time>
   <energy>
    <i name="alphaZ">     37.92827915 </i>
    <i name="ewald">   7147.45936881 </i>
    <i name="hartreedc">  -9210.01175988 </i>
    <i name="XCdc">    -62.23288481 </i>
    <i name="pawpsdc">   1270.32051928 </i>
    <i name="pawaedc">  -1106.70694505 </i>
    <i name="eentropy">      0.00000000 </i>
    <i name="bandstr">   -440.20123919 </i>
    <i name="atom">   2313.29000814 </i>
    <i name="e_fr_energy">    -50.15465355 </i>
    <i name="e_wo_entrp">    -50.15465355 </i>
    <i name="e_0_energy">    -50.15465355 </i>
   </energy>
  </scstep>
  <structure>
   <crystal>
    <varray name="basis" >
     <v>       6.21874165       0.00000005      -0.00000000 </v>
     <v>       3.10937043       5.38558801      -0.00000000 </v>
     <v>       0.00000000      -0.00000000      22.17731753 </v>
    </varray>
    <i name="volume">    742.75341137 </i>
    <varray name="rec_basis" >
     <v>       0.16080424      -0.09284036      -0.00000000 </v>
     <v>      -0.00000000       0.18568075       0.00000000 </v>
     <v>       0.00000000       0.00000000       0.04509112 </v>
    </varray>
   </crystal>
   <varray name="positions" >
    <v>       0.33333300       0.33333300       0.49993287 </v>
    <v>       0.66666700       0.66666700       0.50006713 </v>
    <v>       0.00000000       0.00000000       0.44821600 </v>
    <v>       0.00000000       0.00000000       0.55178400 </v>
    <v>       0.62635700       0.00042000       0.57375200 </v>
    <v>       0.00042000       0.37322400       0.57375200 </v>
    <v>       0.37322400       0.62635700       0.57375200 </v>
    <v>       0.37364300       0.99958000       0.42624800 </v>
    <v>       0.99958000       0.62677600       0.42624800 </v>
    <v>       0.62677600       0.37364300       0.42624800 </v>
   </varray>
  </structure>
  <varray name="forces" >
   <v>      -0.00000000      -0.00000000      -0.00559409 </v>
   <v>      -0.00000000      -0.00000000       0.00559409 </v>
   <v>      -0.00000000      -0.00000000       0.29818837 </v>
   <v>      -0.00000000      -0.00000000      -0.29818837 </v>
   <v>       0.69410473      -0.01099849       0.06977515 </v>
   <v>      -0.35657729      -0.59561306       0.06977515 </v>
   <v>      -0.33752744       0.60661154       0.06977515 </v>
   <v>      -0.69410473       0.01099849      -0.06977515 </v>
   <v>       0.35657729       0.59561306      -0.06977515 </v>
   <v>       0.33752744      -0.60661154      -0.06977515 </v>
  </varray>
  <varray name="stress" >
   <v>       0.25904151      -0.00000117       0.00000000 </v>
   <v>       0.00000114       0.25904149       0.00000000 </v>
   <v>       0.00000000      -0.00000000       0.28399295 </v>
  </varray>
  <energy>
   <i name="e_fr_energy">    -50.15465355 </i>
   <i name="e_wo_entrp">    -50.15465355 </i>
   <i name="e_0_energy">      0.00000000 </i>
  </energy>
  <time name="totalsc">  533.54  900.15</time>
  <eigenvalues>
   <array>
    <dimension dim="1">band</dimension>
    <dimension dim="2">kpoint</dimension>
    <dimension dim="3">spin</dimension>
    <field>eigene</field>
    <field>occ</field>
    <set>
     <set comment="spin 1">
      <set comment="kpoint 1">
       <r>  -16.9312    1.0000 </r>
       <r>  -16.1730    1.0000 </r>
       <r>  -15.1255    1.0000 </r>
       <r>  -15.1254    1.0000 </r>
       <r>  -15.1123    1.0000 </r>
       <r>  -15.1123    1.0000 </r>
       <r>  -11.1250    1.0000 </r>
       <r>   -9.0016    1.0000 </r>
       <r>   -7.8220    1.0000 </r>
       <r>   -7.8220    1.0000 </r>
       <r>   -7.6432    1.0000 </r>
       <r>   -7.5472    1.0000 </r>
       <r>   -7.3381    1.0000 </r>
       <r>   -7.3381    1.0000 </r>
       <r>   -6.3279    1.0000 </r>
       <r>   -5.4596    1.0000 </r>
       <r>   -5.4596    1.0000 </r>
       <r>   -5.2549    1.0000 </r>
       <r>   -5.2549    1.0000 </r>
       <r>   -4.7267    1.0000 </r>
       <r>   -4.6269    1.0000 </r>
       <r>   -4.3505    1.0000 </r>
       <r>   -4.3505    1.0000 </r>
       <r>   -3.7475    1.0000 </r>
       <r>   -3.7475    1.0000 </r>
       <r>   -3.5853    1.0000 </r>
       <r>   -3.5853    1.0000 </r>
       <r>   -3.5387    1.0000 </r>
       <r>   -3.3444    1.0000 </r>
       <r>   -2.9842    1.0000 </r>
       <r>   -2.9842    1.0000 </r>
       <r>   -1.4663    0.0000 </r>
       <r>   -1.4662    0.0000 </r>
       <r>   -0.8656    0.0000 </r>
       <r>   -0.8656    0.0000 </r>
       <r>   -0.3663    0.0000 </r>
       <r>   -0.3638    0.0000 </r>
       <r>    1.0718    0.0000 </r>
       <r>    1.0718    0.0000 </r>
       <r>    1.4744    0.0000 </r>
       <r>    1.6576    0.0000 </r>
       <r>    2.3394    0.0000 </r>
       <r>    2.4616    0.0000 </r>
       <r>    2.4727    0.0000 </r>
       <r>    2.7006    0.0000 </r>
       <r>    2.7006    0.0000 </r>
       <r>    3.2979    0.0000 </r>
       <r>    3.7463    0.0000 </r>
      </set>
      <set comment="kpoint 2">
       <r>  -16.7911    1.0000 </r>
       <r>  -16.0708    1.0000 </r>
       <r>  -15.3354    1.0000 </r>
       <r>  -15.2180    1.0000 </r>
       <r>  -15.1767    1.0000 </r>
       <r>  -15.1670    1.0000 </r>
       <r>  -11.0845    1.0000 </r>
       <r>   -9.1764    1.0000 </r>
       <r>   -7.8753    1.0000 </r>
       <r>   -7.7881    1.0000 </r>
       <r>   -7.5926    1.0000 </r>
       <r>   -7.2183    1.0000 </r>
       <r>   -6.8087    1.0000 </r>
       <r>   -6.6059    1.0000 </r>
       <r>   -6.1315    1.0000 </r>
       <r>   -5.6655    1.0000 </r>
       <r>   -5.6465    1.0000 </r>
       <r>   -5.4649    1.0000 </r>
       <r>   -5.0899    1.0000 </r>
       <r>   -4.7551    1.0000 </r>
       <r>   -4.7332    1.0000 </r>
       <r>   -4.6731    1.0000 </r>
       <r>   -4.3756    1.0000 </r>
       <r>   -3.9922    1.0000 </r>
       <r>   -3.9611    1.0000 </r>
       <r>   -3.6847    1.0000 </r>
       <r>   -3.6207    1.0000 </r>
       <r>   -3.5334    1.0000 </r>
       <r>   -3.4347    1.0000 </r>
       <r>   -3.1734    1.0000 </r>
       <r>   -3.0873    1.0000 </r>
       <r>   -1.6523    0.0000 </r>
       <r>   -1.3632    0.0000 </r>
       <r>   -1.3355    0.0000 </r>
       <r>   -1.0650    0.0000 </r>
       <r>    0.1462    0.0000 </r>
       <r>    0.2793    0.0000 </r>
       <r>    0.9987    0.0000 </r>
       <r>    1.0147    0.0000 </r>
       <r>    1.6566    0.0000 </r>
       <r>    1.7867    0.0000 </r>
       <r>    2.0073    0.0000 </r>
       <r>    2.4869    0.0000 </r>
       <r>    2.5531    0.0000 </r>
       <r>    2.6306    0.0000 </r>
       <r>    2.8366    0.0000 </r>
       <r>    3.4200    0.0000 </r>
       <r>    3.5317    0.0000 </r>
      </set>
      <set comment="kpoint 3">
       <r>  -16.4001    1.0000 </r>
       <r>  -15.8371    1.0000 </r>
       <r>  -15.7985    1.0000 </r>
       <r>  -15.4289    1.0000 </r>
       <r>  -15.3063    1.0000 </r>
       <r>  -15.2791    1.0000 </r>
       <r>  -10.9980    1.0000 </r>
       <r>   -9.3223    1.0000 </r>
       <r>   -7.7194    1.0000 </r>
       <r>   -7.5710    1.0000 </r>
       <r>   -7.0627    1.0000 </r>
       <r>   -6.5836    1.0000 </r>
       <r>   -6.2111    1.0000 </r>
       <r>   -6.1899    1.0000 </r>
       <r>   -6.0429    1.0000 </r>
       <r>   -5.9209    1.0000 </r>
       <r>   -5.7590    1.0000 </r>
       <r>   -5.7268    1.0000 </r>
       <r>   -5.2699    1.0000 </r>
       <r>   -5.1399    1.0000 </r>
       <r>   -4.9981    1.0000 </r>
       <r>   -4.6855    1.0000 </r>
       <r>   -4.3510    1.0000 </r>
       <r>   -4.1962    1.0000 </r>
       <r>   -4.0950    1.0000 </r>
       <r>   -3.9374    1.0000 </r>
       <r>   -3.7559    1.0000 </r>
       <r>   -3.4669    1.0000 </r>
       <r>   -3.3609    1.0000 </r>
       <r>   -3.3253    1.0000 </r>
       <r>   -3.2423    1.0000 </r>
       <r>   -1.6820    0.0000 </r>
       <r>   -1.6314    0.0000 </r>
       <r>   -1.3037    0.0000 </r>
       <r>   -1.1593    0.0000 </r>
       <r>   -0.2135    0.0000 </r>
       <r>    0.1838    0.0000 </r>
       <r>    0.8431    0.0000 </r>
       <r>    1.2968    0.0000 </r>
       <r>    1.6935    0.0000 </r>
       <r>    1.9218    0.0000 </r>
       <r>    2.1515    0.0000 </r>
       <r>    2.3700    0.0000 </r>
       <r>    2.4833    0.0000 </r>
       <r>    2.6289    0.0000 </r>
       <r>    3.0890    0.0000 </r>
       <r>    3.1365    0.0000 </r>
       <r>    3.2743    0.0000 </r>
      </set>
      <set comment="kpoint 4">
       <r>  -16.5250    1.0000 </r>
       <r>  -15.8830    1.0000 </r>
       <r>  -15.5429    1.0000 </r>
       <r>  -15.5024    1.0000 </r>
       <r>  -15.2936    1.0000 </r>
       <r>  -15.2561    1.0000 </r>
       <r>  -10.9847    1.0000 </r>
       <r>   -9.2742    1.0000 </r>
       <r>   -7.9365    1.0000 </r>
       <r>   -7.4880    1.0000 </r>
       <r>   -7.3316    1.0000 </r>
       <r>   -6.7419    1.0000 </r>
       <r>   -6.1462    1.0000 </r>
       <r>   -6.0605    1.0000 </r>
       <r>   -6.0278    1.0000 </r>
       <r>   -5.9547    1.0000 </r>
       <r>   -5.8259    1.0000 </r>
       <r>   -5.5730    1.0000 </r>
       <r>   -5.3956    1.0000 </r>
       <r>   -5.1307    1.0000 </r>
       <r>   -5.1225    1.0000 </r>
       <r>   -4.5918    1.0000 </r>
       <r>   -4.2739    1.0000 </r>
       <r>   -4.0631    1.0000 </r>
       <r>   -3.9666    1.0000 </r>
       <r>   -3.9295    1.0000 </r>
       <r>   -3.7226    1.0000 </r>
       <r>   -3.4789    1.0000 </r>
       <r>   -3.4171    1.0000 </r>
       <r>   -3.2276    1.0000 </r>
       <r>   -3.2201    1.0000 </r>
       <r>   -1.9442    0.0000 </r>
       <r>   -1.3114    0.0000 </r>
       <r>   -1.2881    0.0000 </r>
       <r>   -1.0756    0.0000 </r>
       <r>   -0.1263    0.0000 </r>
       <r>    0.2015    0.0000 </r>
       <r>    0.8640    0.0000 </r>
       <r>    0.8928    0.0000 </r>
       <r>    1.7259    0.0000 </r>
       <r>    1.7804    0.0000 </r>
       <r>    2.1378    0.0000 </r>
       <r>    2.2013    0.0000 </r>
       <r>    2.3295    0.0000 </r>
       <r>    2.8694    0.0000 </r>
       <r>    3.0412    0.0000 </r>
       <r>    3.4180    0.0000 </r>
       <r>    3.5180    0.0000 </r>
      </set>
      <set comment="kpoint 5">
       <r>  -16.1048    1.0000 </r>
       <r>  -15.9955    1.0000 </r>
       <r>  -15.6275    1.0000 </r>
       <r>  -15.5955    1.0000 </r>
       <r>  -15.5123    1.0000 </r>
       <r>  -15.3241    1.0000 </r>
       <r>  -10.8946    1.0000 </r>
       <r>   -9.2863    1.0000 </r>
       <r>   -7.6853    1.0000 </r>
       <r>   -7.2545    1.0000 </r>
       <r>   -7.1220    1.0000 </r>
       <r>   -6.7772    1.0000 </r>
       <r>   -6.5283    1.0000 </r>
       <r>   -6.3560    1.0000 </r>
       <r>   -6.0325    1.0000 </r>
       <r>   -5.6146    1.0000 </r>
       <r>   -5.5547    1.0000 </r>
       <r>   -5.4630    1.0000 </r>
       <r>   -5.4202    1.0000 </r>
       <r>   -5.3421    1.0000 </r>
       <r>   -4.9742    1.0000 </r>
       <r>   -4.4925    1.0000 </r>
       <r>   -4.2606    1.0000 </r>
       <r>   -4.2500    1.0000 </r>
       <r>   -4.1075    1.0000 </r>
       <r>   -3.7779    1.0000 </r>
       <r>   -3.7150    1.0000 </r>
       <r>   -3.5442    1.0000 </r>
       <r>   -3.4062    1.0000 </r>
       <r>   -3.3385    1.0000 </r>
       <r>   -3.2775    1.0000 </r>
       <r>   -1.6148    0.0000 </r>
       <r>   -1.5544    0.0000 </r>
       <r>   -1.3446    0.0000 </r>
       <r>   -0.9854    0.0000 </r>
       <r>   -0.7074    0.0000 </r>
       <r>    0.1054    0.0000 </r>
       <r>    0.4996    0.0000 </r>
       <r>    0.8081    0.0000 </r>
       <r>    1.5350    0.0000 </r>
       <r>    1.6458    0.0000 </r>
       <r>    1.7905    0.0000 </r>
       <r>    2.6658    0.0000 </r>
       <r>    2.8407    0.0000 </r>
       <r>    2.9017    0.0000 </r>
       <r>    2.9066    0.0000 </r>
       <r>    3.1912    0.0000 </r>
       <r>    3.6292    0.0000 </r>
      </set>
     </set>
     <set comment="spin 2">
      <set comment="kpoint 1">
       <r>  -16.9318    1.0000 </r>
       <r>  -16.2156    1.0000 </r>
       <r>  -15.1781    1.0000 </r>
       <r>  -15.1781    1.0000 </r>
       <r>  -15.1627    1.0000 </r>
       <r>  -15.1626    1.0000 </r>
       <r>  -11.0819    1.0000 </r>
       <r>   -8.9353    1.0000 </r>
       <r>   -7.6690    1.0000 </r>
       <r>   -7.6690    1.0000 </r>
       <r>   -7.4178    1.0000 </r>
       <r>   -7.2476    1.0000 </r>
       <r>   -7.2067    1.0000 </r>
       <r>   -7.2067    1.0000 </r>
       <r>   -6.2793    1.0000 </r>
       <r>   -4.9203    1.0000 </r>
       <r>   -4.9203    1.0000 </r>
       <r>   -4.8023    1.0000 </r>
       <r>   -4.8022    1.0000 </r>
       <r>   -4.6539    1.0000 </r>
       <r>   -4.2014    1.0000 </r>
       <r>   -4.0880    1.0000 </r>
       <r>   -4.0880    1.0000 </r>
       <r>   -3.0128    1.0000 </r>
       <r>   -3.0127    1.0000 </r>
       <r>   -1.2618    0.0000 </r>
       <r>   -1.1443    0.0000 </r>
       <r>   -1.1443    0.0000 </r>
       <r>   -0.8507    0.0000 </r>
       <r>   -0.8507    0.0000 </r>
       <r>   -0.6568    0.0000 </r>
       <r>   -0.3068    0.0000 </r>
       <r>   -0.2113    0.0000 </r>
       <r>   -0.2113    0.0000 </r>
       <r>   -0.1624    0.0000 </r>
       <r>    0.2549    0.0000 </r>
       <r>    0.2549    0.0000 </r>
       <r>    1.1719    0.0000 </r>
       <r>    1.1719    0.0000 </r>
       <r>    1.5637    0.0000 </r>
       <r>    1.6494    0.0000 </r>
       <r>    2.3931    0.0000 </r>
       <r>    2.4458    0.0000 </r>
       <r>    2.7957    0.0000 </r>
       <r>    2.7958    0.0000 </r>
       <r>    3.0654    0.0000 </r>
       <r>    3.3028    0.0000 </r>
       <r>    3.8301    0.0000 </r>
      </set>
      <set comment="kpoint 2">
       <r>  -16.7948    1.0000 </r>
       <r>  -16.1137    1.0000 </r>
       <r>  -15.3797    1.0000 </r>
       <r>  -15.2699    1.0000 </r>
       <r>  -15.2233    1.0000 </r>
       <r>  -15.2173    1.0000 </r>
       <r>  -11.0429    1.0000 </r>
       <r>   -9.1054    1.0000 </r>
       <r>   -7.6684    1.0000 </r>
       <r>   -7.6670    1.0000 </r>
       <r>   -7.3929    1.0000 </r>
       <r>   -7.0525    1.0000 </r>
       <r>   -6.6544    1.0000 </r>
       <r>   -6.3573    1.0000 </r>
       <r>   -5.9338    1.0000 </r>
       <r>   -5.3320    1.0000 </r>
       <r>   -5.1552    1.0000 </r>
       <r>   -4.9560    1.0000 </r>
       <r>   -4.8617    1.0000 </r>
       <r>   -4.5736    1.0000 </r>
       <r>   -4.3302    1.0000 </r>
       <r>   -4.3147    1.0000 </r>
       <r>   -4.2056    1.0000 </r>
       <r>   -3.6530    1.0000 </r>
       <r>   -3.3574    1.0000 </r>
       <r>   -1.2883    0.0000 </r>
       <r>   -1.1896    0.0000 </r>
       <r>   -1.0838    0.0000 </r>
       <r>   -0.8617    0.0000 </r>
       <r>   -0.8545    0.0000 </r>
       <r>   -0.6928    0.0000 </r>
       <r>   -0.6679    0.0000 </r>
       <r>   -0.1249    0.0000 </r>
       <r>   -0.0633    0.0000 </r>
       <r>    0.0201    0.0000 </r>
       <r>    0.4591    0.0000 </r>
       <r>    0.5625    0.0000 </r>
       <r>    1.0557    0.0000 </r>
       <r>    1.1262    0.0000 </r>
       <r>    1.7392    0.0000 </r>
       <r>    1.8273    0.0000 </r>
       <r>    2.0874    0.0000 </r>
       <r>    2.6153    0.0000 </r>
       <r>    2.7129    0.0000 </r>
       <r>    2.7979    0.0000 </r>
       <r>    3.2230    0.0000 </r>
       <r>    3.4787    0.0000 </r>
       <r>    3.7866    0.0000 </r>
      </set>
      <set comment="kpoint 3">
       <r>  -16.4135    1.0000 </r>
       <r>  -15.8634    1.0000 </r>
       <r>  -15.8416    1.0000 </r>
       <r>  -15.4778    1.0000 </r>
       <r>  -15.3583    1.0000 </r>
       <r>  -15.3204    1.0000 </r>
       <r>  -10.9584    1.0000 </r>
       <r>   -9.2464    1.0000 </r>
       <r>   -7.5364    1.0000 </r>
       <r>   -7.4506    1.0000 </r>
       <r>   -6.8404    1.0000 </r>
       <r>   -6.4529    1.0000 </r>
       <r>   -6.0687    1.0000 </r>
       <r>   -5.9548    1.0000 </r>
       <r>   -5.7045    1.0000 </r>
       <r>   -5.5668    1.0000 </r>
       <r>   -5.3114    1.0000 </r>
       <r>   -5.2952    1.0000 </r>
       <r>   -5.0877    1.0000 </r>
       <r>   -4.9209    1.0000 </r>
       <r>   -4.5159    1.0000 </r>
       <r>   -4.5122    1.0000 </r>
       <r>   -4.1847    1.0000 </r>
       <r>   -4.0129    1.0000 </r>
       <r>   -3.6160    1.0000 </r>
       <r>   -2.0311    0.0000 </r>
       <r>   -1.1784    0.0000 </r>
       <r>   -1.1156    0.0000 </r>
       <r>   -0.9041    0.0000 </r>
       <r>   -0.7812    0.0000 </r>
       <r>   -0.7003    0.0000 </r>
       <r>   -0.6001    0.0000 </r>
       <r>   -0.5421    0.0000 </r>
       <r>   -0.0969    0.0000 </r>
       <r>    0.0956    0.0000 </r>
       <r>    0.2065    0.0000 </r>
       <r>    0.8454    0.0000 </r>
       <r>    0.8769    0.0000 </r>
       <r>    1.4850    0.0000 </r>
       <r>    1.8798    0.0000 </r>
       <r>    2.0763    0.0000 </r>
       <r>    2.3320    0.0000 </r>
       <r>    2.5177    0.0000 </r>
       <r>    2.5472    0.0000 </r>
       <r>    3.0142    0.0000 </r>
       <r>    3.1556    0.0000 </r>
       <r>    3.2548    0.0000 </r>
       <r>    3.2685    0.0000 </r>
      </set>
      <set comment="kpoint 4">
       <r>  -16.5349    1.0000 </r>
       <r>  -15.9264    1.0000 </r>
       <r>  -15.5811    1.0000 </r>
       <r>  -15.5394    1.0000 </r>
       <r>  -15.3417    1.0000 </r>
       <r>  -15.3062    1.0000 </r>
       <r>  -10.9488    1.0000 </r>
       <r>   -9.1956    1.0000 </r>
       <r>   -7.7533    1.0000 </r>
       <r>   -7.3856    1.0000 </r>
       <r>   -7.1335    1.0000 </r>
       <r>   -6.5813    1.0000 </r>
       <r>   -5.9837    1.0000 </r>
       <r>   -5.7473    1.0000 </r>
       <r>   -5.6728    1.0000 </r>
       <r>   -5.5577    1.0000 </r>
       <r>   -5.5090    1.0000 </r>
       <r>   -5.3125    1.0000 </r>
       <r>   -5.1968    1.0000 </r>
       <r>   -4.8441    1.0000 </r>
       <r>   -4.5745    1.0000 </r>
       <r>   -4.3332    1.0000 </r>
       <r>   -4.2595    1.0000 </r>
       <r>   -3.6299    1.0000 </r>
       <r>   -3.5924    1.0000 </r>
       <r>   -1.8090    0.0000 </r>
       <r>   -1.3824    0.0000 </r>
       <r>   -1.1562    0.0000 </r>
       <r>   -0.9079    0.0000 </r>
       <r>   -0.7867    0.0000 </r>
       <r>   -0.6947    0.0000 </r>
       <r>   -0.6371    0.0000 </r>
       <r>   -0.1238    0.0000 </r>
       <r>   -0.0797    0.0000 </r>
       <r>    0.0912    0.0000 </r>
       <r>    0.1221    0.0000 </r>
       <r>    0.7570    0.0000 </r>
       <r>    0.9682    0.0000 </r>
       <r>    1.0529    0.0000 </r>
       <r>    1.9010    0.0000 </r>
       <r>    1.9992    0.0000 </r>
       <r>    2.2575    0.0000 </r>
       <r>    2.4111    0.0000 </r>
       <r>    2.4520    0.0000 </r>
       <r>    3.0305    0.0000 </r>
       <r>    3.2553    0.0000 </r>
       <r>    3.6409    0.0000 </r>
       <r>    3.6486    0.0000 </r>
      </set>
      <set comment="kpoint 5">
       <r>  -16.1308    1.0000 </r>
       <r>  -16.0128    1.0000 </r>
       <r>  -15.6669    1.0000 </r>
       <r>  -15.6309    1.0000 </r>
       <r>  -15.5638    1.0000 </r>
       <r>  -15.3734    1.0000 </r>
       <r>  -10.8639    1.0000 </r>
       <r>   -9.2014    1.0000 </r>
       <r>   -7.5039    1.0000 </r>
       <r>   -7.1452    1.0000 </r>
       <r>   -6.9331    1.0000 </r>
       <r>   -6.6111    1.0000 </r>
       <r>   -6.4107    1.0000 </r>
       <r>   -6.1053    1.0000 </r>
       <r>   -5.6541    1.0000 </r>
       <r>   -5.3414    1.0000 </r>
       <r>   -5.2456    1.0000 </r>
       <r>   -5.0977    1.0000 </r>
       <r>   -4.9819    1.0000 </r>
       <r>   -4.9297    1.0000 </r>
       <r>   -4.5792    1.0000 </r>
       <r>   -4.2884    1.0000 </r>
       <r>   -4.1460    1.0000 </r>
       <r>   -3.7993    1.0000 </r>
       <r>   -3.6880    1.0000 </r>
       <r>   -2.2279    0.0000 </r>
       <r>   -1.4397    0.0000 </r>
       <r>   -1.4035    0.0000 </r>
       <r>   -0.8501    0.0000 </r>
       <r>   -0.7826    0.0000 </r>
       <r>   -0.6583    0.0000 </r>
       <r>   -0.6260    0.0000 </r>
       <r>   -0.3537    0.0000 </r>
       <r>   -0.3121    0.0000 </r>
       <r>    0.0893    0.0000 </r>
       <r>    0.1554    0.0000 </r>
       <r>    0.5758    0.0000 </r>
       <r>    0.9381    0.0000 </r>
       <r>    1.0294    0.0000 </r>
       <r>    1.8767    0.0000 </r>
       <r>    1.9839    0.0000 </r>
       <r>    2.0487    0.0000 </r>
       <r>    2.7359    0.0000 </r>
       <r>    2.9205    0.0000 </r>
       <r>    2.9370    0.0000 </r>
       <r>    3.0418    0.0000 </r>
       <r>    3.3925    0.0000 </r>
       <r>    3.7247    0.0000 </r>
      </set>
     </set>
    </set>
   </array>
  </eigenvalues>
  <separator name="orbital magnetization" >
   <v name="MAGDIPOLOUT">      0.00000000      0.00000000      0.00000000</v>
  </separator>
  <dos>
   <i name="efermi">     -2.95384584 </i>
   <total>
    <array>
     <dimension dim="1">gridpoints</dimension>
     <dimension dim="2">spin</dimension>
     <field>energy</field>
     <field>total</field>
     <field>integrated</field>
     <set>
      <set comment="spin 1">
       <r>   -17.9699     0.0000     0.0000 </r>
       <r>   -17.8938     0.0000     0.0000 </r>
       <r>   -17.8177     0.0000     0.0000 </r>
       <r>   -17.7415     0.0000     0.0000 </r>
       <r>   -17.6654     0.0000     0.0000 </r>
       <r>   -17.5893     0.0000     0.0000 </r>
       <r>   -17.5132     0.0000     0.0000 </r>
       <r>   -17.4370     0.0000     0.0000 </r>
       <r>   -17.3609     0.0000     0.0000 </r>
       <r>   -17.2848     0.0000     0.0000 </r>
       <r>   -17.2087     0.0000     0.0000 </r>
       <r>   -17.1325     0.0000     0.0000 </r>
       <r>   -17.0564     0.0000     0.0000 </r>
       <r>   -16.9803     0.0000     0.0000 </r>
       <r>   -16.9041     0.3307     0.0045 </r>
       <r>   -16.8280     1.2621     0.0651 </r>
       <r>   -16.7519     0.9500     0.1563 </r>
       <r>   -16.6758     1.0432     0.2322 </r>
       <r>   -16.5996     1.1364     0.3152 </r>
       <r>   -16.5235     1.2287     0.4052 </r>
       <r>   -16.4474     1.2800     0.5007 </r>
       <r>   -16.3713     1.9724     0.6211 </r>
       <r>   -16.2951     1.5721     0.7560 </r>
       <r>   -16.2190     1.1718     0.8604 </r>
       <r>   -16.1429     1.4635     0.9448 </r>
       <r>   -16.0667     1.2949     1.1252 </r>
       <r>   -15.9906     3.8285     1.2864 </r>
       <r>   -15.9145     5.4769     1.6406 </r>
       <r>   -15.8384     1.6452     1.9980 </r>
       <r>   -15.7622     1.6515     2.0554 </r>
       <r>   -15.6861     2.1711     2.2009 </r>
       <r>   -15.6100     4.4987     2.4667 </r>
       <r>   -15.5339     4.3539     2.8833 </r>
       <r>   -15.4577     6.2800     3.3512 </r>
       <r>   -15.3816     5.3710     3.7815 </r>
       <r>   -15.3055    12.3028     4.3508 </r>
       <r>   -15.2293     8.0701     5.2704 </r>
       <r>   -15.1532     6.5773     5.8715 </r>
       <r>   -15.0771     0.0000     6.0000 </r>
       <r>   -15.0010     0.0000     6.0000 </r>
       <r>   -14.9248     0.0000     6.0000 </r>
       <r>   -14.8487     0.0000     6.0000 </r>
       <r>   -14.7726     0.0000     6.0000 </r>
       <r>   -14.6965     0.0000     6.0000 </r>
       <r>   -14.6203     0.0000     6.0000 </r>
       <r>   -14.5442     0.0000     6.0000 </r>
       <r>   -14.4681     0.0000     6.0000 </r>
       <r>   -14.3920     0.0000     6.0000 </r>
       <r>   -14.3158     0.0000     6.0000 </r>
       <r>   -14.2397     0.0000     6.0000 </r>
       <r>   -14.1636     0.0000     6.0000 </r>
       <r>   -14.0874     0.0000     6.0000 </r>
       <r>   -14.0113     0.0000     6.0000 </r>
       <r>   -13.9352     0.0000     6.0000 </r>
       <r>   -13.8591     0.0000     6.0000 </r>
       <r>   -13.7829     0.0000     6.0000 </r>
       <r>   -13.7068     0.0000     6.0000 </r>
       <r>   -13.6307     0.0000     6.0000 </r>
       <r>   -13.5546     0.0000     6.0000 </r>
       <r>   -13.4784     0.0000     6.0000 </r>
       <r>   -13.4023     0.0000     6.0000 </r>
       <r>   -13.3262     0.0000     6.0000 </r>
       <r>   -13.2500     0.0000     6.0000 </r>
       <r>   -13.1739     0.0000     6.0000 </r>
       <r>   -13.0978     0.0000     6.0000 </r>
       <r>   -13.0217     0.0000     6.0000 </r>
       <r>   -12.9455     0.0000     6.0000 </r>
       <r>   -12.8694     0.0000     6.0000 </r>
       <r>   -12.7933     0.0000     6.0000 </r>
       <r>   -12.7172     0.0000     6.0000 </r>
       <r>   -12.6410     0.0000     6.0000 </r>
       <r>   -12.5649     0.0000     6.0000 </r>
       <r>   -12.4888     0.0000     6.0000 </r>
       <r>   -12.4126     0.0000     6.0000 </r>
       <r>   -12.3365     0.0000     6.0000 </r>
       <r>   -12.2604     0.0000     6.0000 </r>
       <r>   -12.1843     0.0000     6.0000 </r>
       <r>   -12.1081     0.0000     6.0000 </r>
       <r>   -12.0320     0.0000     6.0000 </r>
       <r>   -11.9559     0.0000     6.0000 </r>
       <r>   -11.8798     0.0000     6.0000 </r>
       <r>   -11.8036     0.0000     6.0000 </r>
       <r>   -11.7275     0.0000     6.0000 </r>
       <r>   -11.6514     0.0000     6.0000 </r>
       <r>   -11.5752     0.0000     6.0000 </r>
       <r>   -11.4991     0.0000     6.0000 </r>
       <r>   -11.4230     0.0000     6.0000 </r>
       <r>   -11.3469     0.0000     6.0000 </r>
       <r>   -11.2707     0.0000     6.0000 </r>
       <r>   -11.1946     0.0000     6.0000 </r>
       <r>   -11.1185     0.9574     6.0031 </r>
       <r>   -11.0424     3.7317     6.2493 </r>
       <r>   -10.9662     5.8480     6.6552 </r>
       <r>   -10.8901     0.0000     7.0000 </r>
       <r>   -10.8140     0.0000     7.0000 </r>
       <r>   -10.7378     0.0000     7.0000 </r>
       <r>   -10.6617     0.0000     7.0000 </r>
       <r>   -10.5856     0.0000     7.0000 </r>
       <r>   -10.5095     0.0000     7.0000 </r>
       <r>   -10.4333     0.0000     7.0000 </r>
       <r>   -10.3572     0.0000     7.0000 </r>
       <r>   -10.2811     0.0000     7.0000 </r>
       <r>   -10.2050     0.0000     7.0000 </r>
       <r>   -10.1288     0.0000     7.0000 </r>
       <r>   -10.0527     0.0000     7.0000 </r>
       <r>    -9.9766     0.0000     7.0000 </r>
       <r>    -9.9004     0.0000     7.0000 </r>
       <r>    -9.8243     0.0000     7.0000 </r>
       <r>    -9.7482     0.0000     7.0000 </r>
       <r>    -9.6721     0.0000     7.0000 </r>
       <r>    -9.5959     0.0000     7.0000 </r>
       <r>    -9.5198     0.0000     7.0000 </r>
       <r>    -9.4437     0.0000     7.0000 </r>
       <r>    -9.3676     0.0000     7.0000 </r>
       <r>    -9.2914    11.6224     7.2822 </r>
       <r>    -9.2153     2.7856     7.7780 </r>
       <r>    -9.1392     1.0807     7.9256 </r>
       <r>    -9.0631     0.4829     7.9852 </r>
       <r>    -8.9869     0.0000     8.0000 </r>
       <r>    -8.9108     0.0000     8.0000 </r>
       <r>    -8.8347     0.0000     8.0000 </r>
       <r>    -8.7585     0.0000     8.0000 </r>
       <r>    -8.6824     0.0000     8.0000 </r>
       <r>    -8.6063     0.0000     8.0000 </r>
       <r>    -8.5302     0.0000     8.0000 </r>
       <r>    -8.4540     0.0000     8.0000 </r>
       <r>    -8.3779     0.0000     8.0000 </r>
       <r>    -8.3018     0.0000     8.0000 </r>
       <r>    -8.2257     0.0000     8.0000 </r>
       <r>    -8.1495     0.0000     8.0000 </r>
       <r>    -8.0734     0.0000     8.0000 </r>
       <r>    -7.9973     0.0000     8.0000 </r>
       <r>    -7.9211     1.7322     8.0133 </r>
       <r>    -7.8450     4.8773     8.3985 </r>
       <r>    -7.7689     3.7049     8.7760 </r>
       <r>    -7.6928     4.1320     9.1633 </r>
       <r>    -7.6166     4.0932     9.3594 </r>
       <r>    -7.5405     3.3261     9.6482 </r>
       <r>    -7.4644     3.0668     9.8905 </r>
       <r>    -7.3883     2.8897    10.1172 </r>
       <r>    -7.3121     2.9542    10.3330 </r>
       <r>    -7.2360     2.7439    10.6075 </r>
       <r>    -7.1599     3.4955    10.8413 </r>
       <r>    -7.0837     4.2193    11.1572 </r>
       <r>    -7.0076     1.0464    11.3091 </r>
       <r>    -6.9315     1.1860    11.3941 </r>
       <r>    -6.8554     1.3256    11.4897 </r>
       <r>    -6.7792     1.3685    11.5931 </r>
       <r>    -6.7031     3.6342    12.0038 </r>
       <r>    -6.6270     2.6502    12.2430 </r>
       <r>    -6.5509     1.0459    12.3818 </r>
       <r>    -6.4747     2.0761    12.5475 </r>
       <r>    -6.3986     2.5844    12.7249 </r>
       <r>    -6.3225     4.4658    13.0171 </r>
       <r>    -6.2463     6.6454    13.4401 </r>
       <r>    -6.1702     4.2810    13.9300 </r>
       <r>    -6.0941     4.2055    14.2147 </r>
       <r>    -6.0180     0.0000    15.0000 </r>
       <r>    -5.9418     1.2320    15.0079 </r>
       <r>    -5.8657     3.5411    15.2634 </r>
       <r>    -5.7896     5.6809    15.5587 </r>
       <r>    -5.7135     8.4793    16.1483 </r>
       <r>    -5.6373     7.5797    16.7563 </r>
       <r>    -5.5612     6.3017    17.3171 </r>
       <r>    -5.4851     4.6513    17.7436 </r>
       <r>    -5.4089     7.7256    18.0689 </r>
       <r>    -5.3328     5.1412    18.4545 </r>
       <r>    -5.2567     3.9583    18.8433 </r>
       <r>    -5.1806     5.0281    19.1844 </r>
       <r>    -5.1044     4.2803    19.5336 </r>
       <r>    -5.0283     5.6426    19.8597 </r>
       <r>    -4.9522     2.2473    20.3940 </r>
       <r>    -4.8761     1.8901    20.5515 </r>
       <r>    -4.7999     1.5330    20.6818 </r>
       <r>    -4.7238     2.0558    20.9004 </r>
       <r>    -4.6477     8.6770    21.2800 </r>
       <r>    -4.5715     3.4916    21.6903 </r>
       <r>    -4.4954     2.7728    21.9287 </r>
       <r>    -4.4193     0.1586    21.9945 </r>
       <r>    -4.3432     8.8101    22.2995 </r>
       <r>    -4.2670    12.1111    22.8631 </r>
       <r>    -4.1909     3.4367    23.3066 </r>
       <r>    -4.1148     2.7910    23.5436 </r>
       <r>    -4.0387     7.0643    24.2023 </r>
       <r>    -3.9625    33.6933    24.7310 </r>
       <r>    -3.8864     6.6511    25.1937 </r>
       <r>    -3.8103     4.2270    25.6078 </r>
       <r>    -3.7341    13.9009    26.0289 </r>
       <r>    -3.6580     4.5611    26.7196 </r>
       <r>    -3.5819     0.0000    27.0000 </r>
       <r>    -3.5058    12.5302    27.5010 </r>
       <r>    -3.4296    14.0745    28.0768 </r>
       <r>    -3.3535     0.2679    28.9988 </r>
       <r>    -3.2774     8.9397    29.5183 </r>
       <r>    -3.2013     6.6908    30.3767 </r>
       <r>    -3.1251     3.1194    30.7382 </r>
       <r>    -3.0490     1.8965    30.9385 </r>
       <r>    -2.9729     0.0000    31.0000 </r>
       <r>    -2.8968     0.0000    31.0000 </r>
       <r>    -2.8206     0.0000    31.0000 </r>
       <r>    -2.7445     0.0000    31.0000 </r>
       <r>    -2.6684     0.0000    31.0000 </r>
       <r>    -2.5922     0.0000    31.0000 </r>
       <r>    -2.5161     0.0000    31.0000 </r>
       <r>    -2.4400     0.0000    31.0000 </r>
       <r>    -2.3639     0.0000    31.0000 </r>
       <r>    -2.2877     0.0000    31.0000 </r>
       <r>    -2.2116     0.0000    31.0000 </r>
       <r>    -2.1355     0.0000    31.0000 </r>
       <r>    -2.0594     0.0000    31.0000 </r>
       <r>    -1.9832     0.0000    31.0000 </r>
       <r>    -1.9071     0.6249    31.0116 </r>
       <r>    -1.8310     1.9088    31.1080 </r>
       <r>    -1.7548     3.1926    31.3022 </r>
       <r>    -1.6787     7.5850    31.6050 </r>
       <r>    -1.6026     3.6187    32.0189 </r>
       <r>    -1.5265     3.2070    32.3014 </r>
       <r>    -1.4503     2.7948    32.5157 </r>
       <r>    -1.3742     4.1602    32.7804 </r>
       <r>    -1.2981    14.2313    33.8294 </r>
       <r>    -1.2220     0.3873    33.9310 </r>
       <r>    -1.1458     2.8384    33.9836 </r>
       <r>    -1.0697    18.4493    34.4721 </r>
       <r>    -0.9936     3.6473    34.8795 </r>
       <r>    -0.9174     0.3695    34.9904 </r>
       <r>    -0.8413     0.0000    35.0000 </r>
       <r>    -0.7652     0.0000    35.0000 </r>
       <r>    -0.6891     0.4487    35.0479 </r>
       <r>    -0.6129     0.5968    35.0877 </r>
       <r>    -0.5368     0.7449    35.1388 </r>
       <r>    -0.4607     0.8930    35.2011 </r>
       <r>    -0.3846     1.0411    35.2748 </r>
       <r>    -0.3084     1.2743    35.3621 </r>
       <r>    -0.2323     1.5361    35.4690 </r>
       <r>    -0.1562     1.4937    35.5733 </r>
       <r>    -0.0800     1.6834    35.6989 </r>
       <r>    -0.0039     1.6705    35.8266 </r>
       <r>     0.0722     1.6575    35.9532 </r>
       <r>     0.1483     6.0924    36.2942 </r>
       <r>     0.2245     4.7929    36.7738 </r>
       <r>     0.3006     0.0000    37.0000 </r>
       <r>     0.3767     0.0000    37.0000 </r>
       <r>     0.4528     0.0000    37.0000 </r>
       <r>     0.5290     0.7779    37.0611 </r>
       <r>     0.6051     1.0869    37.1321 </r>
       <r>     0.6812     1.3959    37.2266 </r>
       <r>     0.7574     1.7050    37.3446 </r>
       <r>     0.8335     4.3191    37.5914 </r>
       <r>     0.9096     4.1231    37.9094 </r>
       <r>     0.9857     5.2489    38.2661 </r>
       <r>     1.0619     2.9952    38.7232 </r>
       <r>     1.1380     1.3864    38.8509 </r>
       <r>     1.2141     0.9572    38.9401 </r>
       <r>     1.2902     0.5280    38.9967 </r>
       <r>     1.3664     0.0000    39.0000 </r>
       <r>     1.4425     0.0000    39.0000 </r>
       <r>     1.5186     0.3198    39.0071 </r>
       <r>     1.5948     3.2524    39.2012 </r>
       <r>     1.6709    11.2889    39.6552 </r>
       <r>     1.7470     3.3552    40.2925 </r>
       <r>     1.8231     5.0621    40.8118 </r>
       <r>     1.8993     2.7343    41.1086 </r>
       <r>     1.9754     1.3717    41.2307 </r>
       <r>     2.0515     4.6235    41.4680 </r>
       <r>     2.1276     5.6077    41.8574 </r>
       <r>     2.2038     0.3452    41.9800 </r>
       <r>     2.2799     1.7126    42.0584 </r>
       <r>     2.3560     3.8002    42.2502 </r>
       <r>     2.4322     5.8279    42.6521 </r>
       <r>     2.5083     6.5435    43.2502 </r>
       <r>     2.5844     2.3225    43.6228 </r>
       <r>     2.6605     7.2534    43.9710 </r>
       <r>     2.7367     4.2986    44.3880 </r>
       <r>     2.8128     4.3678    44.7179 </r>
       <r>     2.8889     6.5944    45.0653 </r>
       <r>     2.9650     4.2039    45.4673 </r>
       <r>     3.0412     5.5038    45.8368 </r>
       <r>     3.1173     0.0000    46.0000 </r>
       <r>     3.1934     3.0790    46.2225 </r>
       <r>     3.2695     2.6092    46.4390 </r>
       <r>     3.3457     4.3915    46.7152 </r>
       <r>     3.4218     2.3429    47.2227 </r>
       <r>     3.4979     3.2031    47.4338 </r>
       <r>     3.5741     2.7616    47.7719 </r>
       <r>     3.6502     0.5008    47.9759 </r>
       <r>     3.7263     0.1040    47.9990 </r>
       <r>     3.8024     0.0000    48.0000 </r>
       <r>     3.8786     0.0000    48.0000 </r>
       <r>     3.9547     0.0000    48.0000 </r>
       <r>     4.0308     0.0000    48.0000 </r>
       <r>     4.1069     0.0000    48.0000 </r>
       <r>     4.1831     0.0000    48.0000 </r>
       <r>     4.2592     0.0000    48.0000 </r>
       <r>     4.3353     0.0000    48.0000 </r>
       <r>     4.4115     0.0000    48.0000 </r>
       <r>     4.4876     0.0000    48.0000 </r>
       <r>     4.5637     0.0000    48.0000 </r>
       <r>     4.6398     0.0000    48.0000 </r>
       <r>     4.7160     0.0000    48.0000 </r>
       <r>     4.7921     0.0000    48.0000 </r>
       <r>     4.8682     0.0000    48.0000 </r>
      </set>
      <set comment="spin 2">
[...]
        <r>  0.0064  0.0005  0.0048  0.0316  0.0003  0.0004  0.0004  0.0003  0.0026 </r>
        <r>  0.0025  0.0221  0.0034  0.0075  0.0020  0.0001  0.0000  0.0000  0.0007 </r>
        <r>  0.0065  0.0206  0.0049  0.0116  0.0022  0.0000  0.0004  0.0006  0.0006 </r>
       </set>
       <set comment="band 30">
        <r>  0.0000  0.0001  0.0000  0.0001  0.1234  0.0090  0.0333  0.0129  0.2530 </r>
        <r>  0.0000  0.0001  0.0000  0.0001  0.1234  0.0090  0.0333  0.0129  0.2530 </r>
        <r>  0.0000  0.0001  0.0000  0.0003  0.0000  0.0000  0.0000  0.0000  0.0000 </r>
        <r>  0.0000  0.0001  0.0000  0.0003  0.0000  0.0000  0.0000  0.0000  0.0000 </r>
        <r>  0.0002  0.0025  0.0014  0.0004  0.0005  0.0001  0.0002  0.0001  0.0002 </r>
        <r>  0.0000  0.0010  0.0000  0.0030  0.0002  0.0002  0.0000  0.0006  0.0007 </r>
        <r>  0.0002  0.0006  0.0014  0.0022  0.0001  0.0001  0.0002  0.0001  0.0007 </r>
        <r>  0.0002  0.0025  0.0014  0.0004  0.0005  0.0001  0.0002  0.0001  0.0002 </r>
        <r>  0.0000  0.0010  0.0000  0.0030  0.0002  0.0002  0.0000  0.0006  0.0007 </r>
        <r>  0.0002  0.0006  0.0014  0.0022  0.0001  0.0001  0.0002  0.0001  0.0007 </r>
       </set>
       <set comment="band 31">
        <r>  0.0009  0.0008  0.0001  0.0006  0.0565  0.0070  0.1731  0.0066  0.0818 </r>
        <r>  0.0009  0.0008  0.0001  0.0006  0.0565  0.0070  0.1731  0.0066  0.0818 </r>
        <r>  0.0199  0.0009  0.0011  0.0003  0.0000  0.0000  0.0000  0.0000  0.0000 </r>
        <r>  0.0199  0.0009  0.0011  0.0003  0.0000  0.0000  0.0000  0.0000  0.0000 </r>
        <r>  0.0009  0.0018  0.0009  0.0171  0.0004  0.0002  0.0001  0.0002  0.0004 </r>
        <r>  0.0011  0.0021  0.0034  0.0007  0.0019  0.0002  0.0013  0.0001  0.0006 </r>
        <r>  0.0009  0.0104  0.0009  0.0084  0.0008  0.0000  0.0001  0.0004  0.0001 </r>
        <r>  0.0009  0.0018  0.0009  0.0171  0.0004  0.0002  0.0001  0.0002  0.0004 </r>
        <r>  0.0011  0.0021  0.0034  0.0007  0.0019  0.0002  0.0013  0.0001  0.0006 </r>
        <r>  0.0009  0.0104  0.0009  0.0084  0.0008  0.0000  0.0001  0.0004  0.0001 </r>
       </set>
       <set comment="band 32">
        <r>  0.0023  0.0001  0.0000  0.0001  0.1912  0.0031  0.1661  0.0028  0.0675 </r>
        <r>  0.0023  0.0001  0.0000  0.0001  0.1912  0.0031  0.1661  0.0028  0.0675 </r>
        <r>  0.0000  0.0010  0.0000  0.0030  0.0000  0.0000  0.0000  0.0000  0.0000 </r>
        <r>  0.0000  0.0010  0.0000  0.0030  0.0000  0.0000  0.0000  0.0000  0.0000 </r>
        <r>  0.0005  0.0026  0.0015  0.0006  0.0001  0.0004  0.0006  0.0001  0.0001 </r>
        <r>  0.0000  0.0006  0.0000  0.0019  0.0001  0.0001  0.0000  0.0004  0.0002 </r>
        <r>  0.0005  0.0023  0.0015  0.0011  0.0002  0.0003  0.0006  0.0002  0.0000 </r>
        <r>  0.0005  0.0026  0.0015  0.0006  0.0001  0.0004  0.0006  0.0001  0.0001 </r>
        <r>  0.0000  0.0006  0.0000  0.0019  0.0001  0.0001  0.0000  0.0004  0.0002 </r>
        <r>  0.0005  0.0023  0.0015  0.0011  0.0002  0.0003  0.0006  0.0002  0.0000 </r>
       </set>
       <set comment="band 33">
        <r>  0.0009  0.0001  0.0016  0.0003  0.0079  0.1721  0.0200  0.0764  0.0086 </r>
        <r>  0.0009  0.0001  0.0016  0.0003  0.0079  0.1721  0.0200  0.0764  0.0086 </r>
        <r>  0.0000  0.0034  0.0000  0.0103  0.0000  0.0000  0.0000  0.0000  0.0000 </r>
        <r>  0.0000  0.0034  0.0000  0.0103  0.0000  0.0000  0.0000  0.0000  0.0000 </r>
        <r>  0.0050  0.0056  0.0061  0.0095  0.0019  0.0011  0.0000  0.0003  0.0002 </r>
        <r>  0.0000  0.0007  0.0000  0.0021  0.0007  0.0005  0.0000  0.0013  0.0021 </r>
        <r>  0.0050  0.0038  0.0062  0.0111  0.0002  0.0001  0.0000  0.0012  0.0019 </r>
        <r>  0.0050  0.0056  0.0061  0.0095  0.0019  0.0011  0.0000  0.0003  0.0002 </r>
        <r>  0.0000  0.0007  0.0000  0.0021  0.0007  0.0005  0.0000  0.0013  0.0021 </r>
        <r>  0.0050  0.0038  0.0062  0.0111  0.0002  0.0001  0.0000  0.0012  0.0019 </r>
       </set>
       <set comment="band 34">
        <r>  0.0006  0.0000  0.0001  0.0000  0.0861  0.0509  0.0070  0.0941  0.0555 </r>
        <r>  0.0006  0.0000  0.0001  0.0000  0.0861  0.0509  0.0070  0.0941  0.0555 </r>
        <r>  0.0093  0.0017  0.0082  0.0005  0.0000  0.0000  0.0000  0.0000  0.0000 </r>
        <r>  0.0093  0.0017  0.0082  0.0005  0.0000  0.0000  0.0000  0.0000  0.0000 </r>
        <r>  0.0025  0.0015  0.0072  0.0018  0.0000  0.0001  0.0004  0.0018  0.0012 </r>
        <r>  0.0071  0.0044  0.0053  0.0015  0.0004  0.0013  0.0001  0.0004  0.0001 </r>
        <r>  0.0025  0.0005  0.0073  0.0029  0.0009  0.0011  0.0004  0.0008  0.0003 </r>
        <r>  0.0025  0.0015  0.0072  0.0018  0.0000  0.0001  0.0004  0.0018  0.0012 </r>
        <r>  0.0071  0.0044  0.0053  0.0015  0.0004  0.0013  0.0001  0.0004  0.0001 </r>
        <r>  0.0025  0.0005  0.0073  0.0029  0.0009  0.0011  0.0004  0.0008  0.0003 </r>
       </set>
       <set comment="band 35">
        <r>  0.0000  0.0004  0.0000  0.0001  0.0414  0.1268  0.0237  0.1137  0.0175 </r>
        <r>  0.0000  0.0004  0.0000  0.0001  0.0414  0.1268  0.0237  0.1137  0.0175 </r>
        <r>  0.0032  0.0000  0.0011  0.0000  0.0000  0.0000  0.0000  0.0000  0.0000 </r>
        <r>  0.0032  0.0000  0.0011  0.0000  0.0000  0.0000  0.0000  0.0000  0.0000 </r>
        <r>  0.0026  0.0103  0.0059  0.0009  0.0001  0.0018  0.0000  0.0003  0.0002 </r>
        <r>  0.0051  0.0170  0.0123  0.0056  0.0007  0.0001  0.0002  0.0000  0.0002 </r>
        <r>  0.0024  0.0017  0.0058  0.0097  0.0002  0.0011  0.0000  0.0010  0.0001 </r>
        <r>  0.0026  0.0103  0.0059  0.0009  0.0001  0.0018  0.0000  0.0003  0.0002 </r>
        <r>  0.0051  0.0170  0.0123  0.0056  0.0007  0.0001  0.0002  0.0000  0.0002 </r>
        <r>  0.0024  0.0017  0.0058  0.0097  0.0002  0.0011  0.0000  0.0010  0.0001 </r>
       </set>
       <set comment="band 36">
        <r>  0.0010  0.0004  0.0001  0.0003  0.0038  0.0818  0.0096  0.2009  0.0111 </r>
        <r>  0.0010  0.0004  0.0001  0.0003  0.0038  0.0818  0.0096  0.2009  0.0111 </r>
        <r>  0.0000  0.0010  0.0000  0.0028  0.0000  0.0000  0.0000  0.0000  0.0000 </r>
        <r>  0.0000  0.0010  0.0000  0.0028  0.0000  0.0000  0.0000  0.0000  0.0000 </r>
        <r>  0.0030  0.0259  0.0016  0.0014  0.0006  0.0007  0.0001  0.0001  0.0002 </r>
        <r>  0.0000  0.0072  0.0000  0.0218  0.0002  0.0009  0.0000  0.0027  0.0008 </r>
        <r>  0.0031  0.0026  0.0018  0.0248  0.0000  0.0000  0.0001  0.0008  0.0008 </r>
        <r>  0.0030  0.0259  0.0016  0.0014  0.0006  0.0007  0.0001  0.0001  0.0002 </r>
        <r>  0.0000  0.0072  0.0000  0.0218  0.0002  0.0009  0.0000  0.0027  0.0008 </r>
        <r>  0.0031  0.0026  0.0018  0.0248  0.0000  0.0000  0.0001  0.0008  0.0008 </r>
       </set>
       <set comment="band 37">
        <r>  0.0100  0.0004  0.0023  0.0013  0.0024  0.0040  0.0085  0.0046  0.0010 </r>
        <r>  0.0100  0.0004  0.0023  0.0013  0.0024  0.0040  0.0085  0.0046  0.0010 </r>
        <r>  0.0023  0.0477  0.0009  0.0161  0.0000  0.0000  0.0000  0.0000  0.0000 </r>
        <r>  0.0023  0.0477  0.0009  0.0161  0.0000  0.0000  0.0000  0.0000  0.0000 </r>
        <r>  0.0013  0.0017  0.0039  0.0040  0.0039  0.0010  0.0000  0.0005  0.0014 </r>
        <r>  0.0124  0.0385  0.0042  0.0128  0.0013  0.0027  0.0003  0.0009  0.0004 </r>
        <r>  0.0013  0.0016  0.0038  0.0041  0.0027  0.0004  0.0000  0.0011  0.0027 </r>
        <r>  0.0013  0.0017  0.0039  0.0040  0.0039  0.0010  0.0000  0.0005  0.0014 </r>
        <r>  0.0124  0.0385  0.0042  0.0128  0.0013  0.0027  0.0003  0.0009  0.0004 </r>
        <r>  0.0013  0.0016  0.0038  0.0041  0.0027  0.0004  0.0000  0.0011  0.0027 </r>
       </set>
       <set comment="band 38">
        <r>  0.0014  0.0003  0.0000  0.0008  0.0390  0.0790  0.0003  0.0424  0.0223 </r>
        <r>  0.0014  0.0003  0.0000  0.0008  0.0390  0.0790  0.0003  0.0424  0.0223 </r>
        <r>  0.0250  0.0017  0.0379  0.0004  0.0000  0.0000  0.0000  0.0000  0.0000 </r>
        <r>  0.0250  0.0017  0.0379  0.0004  0.0000  0.0000  0.0000  0.0000  0.0000 </r>
        <r>  0.0008  0.0007  0.0058  0.0318  0.0003  0.0002  0.0005  0.0001  0.0018 </r>
        <r>  0.0002  0.0193  0.0028  0.0065  0.0012  0.0000  0.0003  0.0000  0.0004 </r>
        <r>  0.0009  0.0197  0.0058  0.0122  0.0018  0.0003  0.0005  0.0001  0.0002 </r>
        <r>  0.0008  0.0007  0.0058  0.0318  0.0003  0.0002  0.0005  0.0001  0.0018 </r>
        <r>  0.0002  0.0193  0.0028  0.0065  0.0012  0.0000  0.0003  0.0000  0.0004 </r>
        <r>  0.0009  0.0197  0.0058  0.0122  0.0018  0.0003  0.0005  0.0001  0.0002 </r>
       </set>
       <set comment="band 39">
        <r>  0.0077  0.0018  0.0017  0.0014  0.0064  0.0349  0.0146  0.0128  0.0028 </r>
        <r>  0.0077  0.0018  0.0017  0.0014  0.0064  0.0349  0.0146  0.0128  0.0028 </r>
        <r>  0.0000  0.0110  0.0000  0.0331  0.0000  0.0000  0.0000  0.0000  0.0000 </r>
        <r>  0.0000  0.0110  0.0000  0.0331  0.0000  0.0000  0.0000  0.0000  0.0000 </r>
        <r>  0.0059  0.0221  0.0024  0.0231  0.0008  0.0012  0.0001  0.0019  0.0014 </r>
        <r>  0.0000  0.0049  0.0000  0.0149  0.0009  0.0001  0.0000  0.0003  0.0027 </r>
        <r>  0.0058  0.0425  0.0024  0.0030  0.0012  0.0025  0.0001  0.0005  0.0010 </r>
        <r>  0.0059  0.0221  0.0024  0.0231  0.0008  0.0012  0.0001  0.0019  0.0014 </r>
        <r>  0.0000  0.0049  0.0000  0.0149  0.0009  0.0001  0.0000  0.0003  0.0027 </r>
        <r>  0.0058  0.0425  0.0024  0.0030  0.0012  0.0025  0.0001  0.0005  0.0010 </r>
       </set>
       <set comment="band 40">
        <r>  0.0201  0.0005  0.0035  0.0012  0.0079  0.0021  0.0171  0.0057  0.0156 </r>
        <r>  0.0201  0.0005  0.0035  0.0012  0.0079  0.0021  0.0171  0.0057  0.0156 </r>
        <r>  0.0013  0.0418  0.0033  0.0137  0.0000  0.0000  0.0000  0.0000  0.0000 </r>
        <r>  0.0013  0.0418  0.0033  0.0137  0.0000  0.0000  0.0000  0.0000  0.0000 </r>
        <r>  0.0010  0.0027  0.0008  0.0001  0.0075  0.0001  0.0005  0.0001  0.0016 </r>
        <r>  0.0175  0.0153  0.0009  0.0053  0.0029  0.0016  0.0005  0.0005  0.0009 </r>
        <r>  0.0010  0.0004  0.0008  0.0023  0.0051  0.0002  0.0006  0.0000  0.0040 </r>
        <r>  0.0010  0.0027  0.0008  0.0001  0.0075  0.0001  0.0005  0.0001  0.0016 </r>
        <r>  0.0175  0.0153  0.0009  0.0053  0.0029  0.0016  0.0005  0.0005  0.0009 </r>
        <r>  0.0010  0.0004  0.0008  0.0023  0.0051  0.0002  0.0006  0.0000  0.0040 </r>
       </set>
       <set comment="band 41">
        <r>  0.0131  0.0004  0.0014  0.0002  0.0121  0.0111  0.0068  0.0161  0.0195 </r>
        <r>  0.0131  0.0004  0.0014  0.0002  0.0121  0.0111  0.0068  0.0161  0.0195 </r>
        <r>  0.0000  0.0135  0.0000  0.0415  0.0000  0.0000  0.0000  0.0000  0.0000 </r>
        <r>  0.0000  0.0135  0.0000  0.0415  0.0000  0.0000  0.0000  0.0000  0.0000 </r>
        <r>  0.0057  0.0070  0.0005  0.0159  0.0024  0.0001  0.0016  0.0003  0.0036 </r>
        <r>  0.0000  0.0044  0.0000  0.0129  0.0025  0.0001  0.0000  0.0002  0.0075 </r>
        <r>  0.0056  0.0223  0.0005  0.0008  0.0013  0.0001  0.0015  0.0003  0.0046 </r>
        <r>  0.0057  0.0070  0.0005  0.0159  0.0024  0.0001  0.0016  0.0003  0.0036 </r>
        <r>  0.0000  0.0044  0.0000  0.0129  0.0025  0.0001  0.0000  0.0002  0.0075 </r>
        <r>  0.0056  0.0223  0.0005  0.0008  0.0013  0.0001  0.0015  0.0003  0.0046 </r>
       </set>
       <set comment="band 42">
        <r>  0.0011  0.0067  0.0006  0.0032  0.0241  0.0075  0.0034  0.0112  0.0192 </r>
        <r>  0.0011  0.0067  0.0006  0.0032  0.0241  0.0075  0.0034  0.0112  0.0192 </r>
        <r>  0.0273  0.0034  0.0268  0.0011  0.0000  0.0000  0.0000  0.0000  0.0000 </r>
        <r>  0.0273  0.0034  0.0268  0.0011  0.0000  0.0000  0.0000  0.0000  0.0000 </r>
        <r>  0.0009  0.0005  0.0109  0.0016  0.0007  0.0007  0.0007  0.0051  0.0002 </r>
        <r>  0.0004  0.0010  0.0256  0.0003  0.0005  0.0022  0.0008  0.0007  0.0002 </r>
        <r>  0.0009  0.0013  0.0109  0.0008  0.0002  0.0056  0.0007  0.0002  0.0007 </r>
        <r>  0.0009  0.0005  0.0109  0.0016  0.0007  0.0007  0.0007  0.0051  0.0002 </r>
        <r>  0.0004  0.0010  0.0256  0.0003  0.0005  0.0022  0.0008  0.0007  0.0002 </r>
        <r>  0.0009  0.0013  0.0109  0.0008  0.0002  0.0056  0.0007  0.0002  0.0007 </r>
       </set>
       <set comment="band 43">
        <r>  0.0000  0.0006  0.0007  0.0017  0.0010  0.0023  0.0065  0.0011  0.0028 </r>
        <r>  0.0000  0.0006  0.0007  0.0017  0.0010  0.0023  0.0065  0.0011  0.0028 </r>
        <r>  0.0025  0.0031  0.0041  0.0011  0.0000  0.0000  0.0000  0.0000  0.0000 </r>
        <r>  0.0025  0.0031  0.0041  0.0011  0.0000  0.0000  0.0000  0.0000  0.0000 </r>
        <r>  0.0004  0.0005  0.0029  0.0017  0.0006  0.0000  0.0005  0.0005  0.0001 </r>
        <r>  0.0006  0.0026  0.0041  0.0009  0.0006  0.0005  0.0033  0.0002  0.0002 </r>
        <r>  0.0004  0.0006  0.0029  0.0016  0.0001  0.0003  0.0005  0.0002  0.0006 </r>
        <r>  0.0004  0.0005  0.0029  0.0017  0.0006  0.0000  0.0005  0.0005  0.0001 </r>
        <r>  0.0006  0.0026  0.0041  0.0009  0.0006  0.0005  0.0033  0.0002  0.0002 </r>
        <r>  0.0004  0.0006  0.0029  0.0016  0.0001  0.0003  0.0005  0.0002  0.0006 </r>
       </set>
       <set comment="band 44">
        <r>  0.0018  0.0014  0.0011  0.0006  0.0037  0.0013  0.0013  0.0011  0.0051 </r>
        <r>  0.0018  0.0014  0.0011  0.0006  0.0037  0.0013  0.0013  0.0011  0.0051 </r>
        <r>  0.0000  0.0004  0.0000  0.0012  0.0000  0.0000  0.0000  0.0000  0.0000 </r>
        <r>  0.0000  0.0004  0.0000  0.0012  0.0000  0.0000  0.0000  0.0000  0.0000 </r>
        <r>  0.0012  0.0011  0.0083  0.0008  0.0001  0.0005  0.0013  0.0008  0.0002 </r>
        <r>  0.0000  0.0007  0.0000  0.0020  0.0001  0.0005  0.0000  0.0014  0.0002 </r>
        <r>  0.0011  0.0015  0.0082  0.0004  0.0001  0.0002  0.0013  0.0012  0.0002 </r>
        <r>  0.0012  0.0011  0.0083  0.0008  0.0001  0.0005  0.0013  0.0008  0.0002 </r>
        <r>  0.0000  0.0007  0.0000  0.0020  0.0001  0.0005  0.0000  0.0014  0.0002 </r>
        <r>  0.0011  0.0015  0.0082  0.0004  0.0001  0.0002  0.0013  0.0012  0.0002 </r>
       </set>
       <set comment="band 45">
        <r>  0.0008  0.0007  0.0006  0.0009  0.0002  0.0000  0.0074  0.0000  0.0005 </r>
        <r>  0.0008  0.0007  0.0006  0.0009  0.0002  0.0000  0.0074  0.0000  0.0005 </r>
        <r>  0.0000  0.0013  0.0000  0.0038  0.0000  0.0000  0.0000  0.0000  0.0000 </r>
        <r>  0.0000  0.0013  0.0000  0.0038  0.0000  0.0000  0.0000  0.0000  0.0000 </r>
        <r>  0.0007  0.0011  0.0031  0.0030  0.0002  0.0000  0.0019  0.0000  0.0006 </r>
        <r>  0.0000  0.0004  0.0000  0.0013  0.0004  0.0001  0.0000  0.0003  0.0011 </r>
        <r>  0.0007  0.0038  0.0031  0.0003  0.0003  0.0000  0.0019  0.0000  0.0006 </r>
        <r>  0.0007  0.0011  0.0031  0.0030  0.0002  0.0000  0.0019  0.0000  0.0006 </r>
        <r>  0.0000  0.0004  0.0000  0.0013  0.0004  0.0001  0.0000  0.0003  0.0011 </r>
        <r>  0.0007  0.0038  0.0031  0.0003  0.0003  0.0000  0.0019  0.0000  0.0006 </r>
       </set>
       <set comment="band 46">
        <r>  0.0026  0.0007  0.0065  0.0004  0.0048  0.0003  0.0034  0.0002  0.0074 </r>
        <r>  0.0026  0.0007  0.0065  0.0004  0.0048  0.0003  0.0034  0.0002  0.0074 </r>
        <r>  0.0004  0.0022  0.0047  0.0007  0.0000  0.0000  0.0000  0.0000  0.0000 </r>
        <r>  0.0004  0.0022  0.0047  0.0007  0.0000  0.0000  0.0000  0.0000  0.0000 </r>
        <r>  0.0002  0.0013  0.0009  0.0004  0.0018  0.0027  0.0002  0.0002  0.0003 </r>
        <r>  0.0005  0.0015  0.0060  0.0005  0.0005  0.0022  0.0037  0.0007  0.0002 </r>
        <r>  0.0002  0.0001  0.0009  0.0016  0.0009  0.0014  0.0002  0.0015  0.0013 </r>
        <r>  0.0002  0.0013  0.0009  0.0004  0.0018  0.0027  0.0002  0.0002  0.0003 </r>
        <r>  0.0005  0.0015  0.0060  0.0005  0.0005  0.0022  0.0037  0.0007  0.0002 </r>
        <r>  0.0002  0.0001  0.0009  0.0016  0.0009  0.0014  0.0002  0.0015  0.0013 </r>
       </set>
       <set comment="band 47">
        <r>  0.0333  0.0018  0.0000  0.0024  0.0005  0.0034  0.0011  0.0013  0.0003 </r>
        <r>  0.0333  0.0018  0.0000  0.0024  0.0005  0.0034  0.0011  0.0013  0.0003 </r>
        <r>  0.0022  0.0042  0.0079  0.0014  0.0000  0.0000  0.0000  0.0000  0.0000 </r>
        <r>  0.0022  0.0042  0.0079  0.0014  0.0000  0.0000  0.0000  0.0000  0.0000 </r>
        <r>  0.0004  0.0019  0.0028  0.0006  0.0005  0.0094  0.0002  0.0011  0.0000 </r>
        <r>  0.0006  0.0020  0.0123  0.0007  0.0006  0.0029  0.0004  0.0010  0.0002 </r>
        <r>  0.0004  0.0000  0.0028  0.0025  0.0003  0.0051  0.0002  0.0054  0.0003 </r>
        <r>  0.0004  0.0019  0.0028  0.0006  0.0005  0.0094  0.0002  0.0011  0.0000 </r>
        <r>  0.0006  0.0020  0.0123  0.0007  0.0006  0.0029  0.0004  0.0010  0.0002 </r>
        <r>  0.0004  0.0000  0.0028  0.0025  0.0003  0.0051  0.0002  0.0054  0.0003 </r>
       </set>
       <set comment="band 48">
        <r>  0.0000  0.0014  0.0103  0.0008  0.0033  0.0001  0.0028  0.0002  0.0057 </r>
        <r>  0.0000  0.0014  0.0103  0.0008  0.0033  0.0001  0.0028  0.0002  0.0057 </r>
        <r>  0.0030  0.0002  0.0038  0.0001  0.0000  0.0000  0.0000  0.0000  0.0000 </r>
        <r>  0.0030  0.0002  0.0038  0.0001  0.0000  0.0000  0.0000  0.0000  0.0000 </r>
        <r>  0.0005  0.0003  0.0019  0.0015  0.0029  0.0015  0.0009  0.0015  0.0002 </r>
        <r>  0.0008  0.0009  0.0012  0.0003  0.0020  0.0025  0.0009  0.0008  0.0007 </r>
        <r>  0.0005  0.0015  0.0018  0.0003  0.0007  0.0005  0.0009  0.0024  0.0024 </r>
        <r>  0.0005  0.0003  0.0019  0.0015  0.0029  0.0015  0.0009  0.0015  0.0002 </r>
        <r>  0.0008  0.0009  0.0012  0.0003  0.0020  0.0025  0.0009  0.0008  0.0007 </r>
        <r>  0.0005  0.0015  0.0018  0.0003  0.0007  0.0005  0.0009  0.0024  0.0024 </r>
       </set>
      </set>
     </set>
    </set>
   </array>
  </projected>
 </calculation>
 <structure name="finalpos" >
  <crystal>
   <varray name="basis" >
    <v>       6.21874165       0.00000005      -0.00000000 </v>
    <v>       3.10937043       5.38558801      -0.00000000 </v>
    <v>       0.00000000      -0.00000000      22.17731753 </v>
   </varray>
   <i name="volume">    742.75341137 </i>
   <varray name="rec_basis" >
    <v>       0.16080424      -0.09284036      -0.00000000 </v>
    <v>      -0.00000000       0.18568075       0.00000000 </v>
    <v>       0.00000000       0.00000000       0.04509112 </v>
   </varray>
  </crystal>
  <varray name="positions" >
   <v>       0.33333300       0.33333300       0.49993287 </v>
   <v>       0.66666700       0.66666700       0.50006713 </v>
   <v>       0.00000000       0.00000000       0.44821600 </v>
   <v>       0.00000000       0.00000000       0.55178400 </v>
   <v>       0.62635700       0.00042000       0.57375200 </v>
   <v>       0.00042000       0.37322400       0.57375200 </v>
   <v>       0.37322400       0.62635700       0.57375200 </v>
   <v>       0.37364300       0.99958000       0.42624800 </v>
   <v>       0.99958000       0.62677600       0.42624800 </v>
   <v>       0.62677600       0.37364300       0.42624800 </v>
  </varray>
  <varray name="selective"  type="logical" >
   <v type="logical" >  T  T  T </v>
   <v type="logical" >  T  T  T </v>
   <v type="logical" >  F  F  F </v>
   <v type="logical" >  F  F  F </v>
   <v type="logical" >  F  F  F </v>
   <v type="logical" >  F  F  F </v>
   <v type="logical" >  F  F  F </v>
   <v type="logical" >  F  F  F </v>
   <v type="logical" >  F  F  F </v>
   <v type="logical" >  F  F  F </v>
  </varray>
  <nose>
   <v>      -3.00000000       0.00000000       0.00010000       0.00010000 </v>
  </nose>
 </structure>
</modeling>
