       N       E                     dE             d eps       ncg     rms          rms(c)
DAV:   1     0.421127091729E+03    0.42113E+03   -0.19957E+04   960   0.965E+02
DAV:   2     0.288596274025E+02   -0.39227E+03   -0.37186E+03  1424   0.198E+02
DAV:   3    -0.352482930820E+02   -0.64108E+02   -0.62210E+02  1184   0.757E+01
DAV:   4    -0.375281974792E+02   -0.22799E+01   -0.22655E+01  1232   0.184E+01
DAV:   5    -0.375803367365E+02   -0.52139E-01   -0.52102E-01  1200   0.281E+00    0.348E+01
DAV:   6    -0.823571422882E+02   -0.44777E+02   -0.51633E+02  1280   0.192E+02    0.539E+01
DAV:   7    -0.442441104827E+02    0.38113E+02   -0.57859E+01  1040   0.779E+01    0.287E+01
DAV:   8    -0.344832380441E+02    0.97609E+01   -0.14158E+01  1184   0.351E+01    0.138E+01
DAV:   9    -0.336551212952E+02    0.82812E+00   -0.26884E+00  1472   0.137E+01    0.741E+00
DAV:  10    -0.337180433645E+02   -0.62922E-01   -0.37834E-01  1088   0.320E+00    0.764E+00
DAV:  11    -0.334999042297E+02    0.21814E+00   -0.43076E-01  1232   0.790E+00    0.378E+00
DAV:  12    -0.336745684459E+02   -0.17466E+00   -0.53996E-01  1488   0.957E+00    0.412E+00
DAV:  13    -0.336303105141E+02    0.44258E-01   -0.57103E-01  1024   0.823E+00    0.167E+00
DAV:  14    -0.336665257737E+02   -0.36215E-01   -0.48221E-01  1152   0.461E+00    0.169E+00
DAV:  15    -0.337294002568E+02   -0.62874E-01   -0.14078E-01  1104   0.218E+00    0.130E+00
DAV:  16    -0.337511077269E+02   -0.21707E-01   -0.34788E-02  1232   0.192E+00    0.593E-01
DAV:  17    -0.337528089514E+02   -0.17012E-02   -0.25246E-02  1248   0.132E+00    0.337E-01
DAV:  18    -0.337543875918E+02   -0.15786E-02   -0.12696E-02  1216   0.135E+00    0.437E-01
DAV:  19    -0.337521792258E+02    0.22084E-02   -0.21845E-03  1168   0.520E-01    0.191E-01
DAV:  20    -0.337520126984E+02    0.16653E-03   -0.32038E-03  1152   0.764E-01    0.224E-01
DAV:  21    -0.337516637773E+02    0.34892E-03   -0.88198E-04  1056   0.273E-01    0.106E-01
DAV:  22    -0.337517258706E+02   -0.62093E-04   -0.20445E-04   800   0.184E-01
   1 F= -.33751726E+02 E0= -.33751726E+02  d E =-.337517E+02  mag=     3.0035
       N       E                     dE             d eps       ncg     rms          rms(c)
DAV:   1    -0.109993516219E+03   -0.76242E+02   -0.74245E+02  1328   0.234E+02    0.982E+01
DAV:   2    -0.341884125341E+03   -0.23189E+03   -0.20618E+03  1488   0.402E+02    0.645E+01
DAV:   3    -0.823085300297E+02    0.25958E+03   -0.60694E+02  1168   0.127E+02    0.387E+01
DAV:   4    -0.375222151908E+02    0.44786E+02   -0.34976E+02  1344   0.192E+02    0.210E+01
DAV:   5    -0.382814983306E+02   -0.75928E+00   -0.37248E+01  1264   0.247E+01    0.115E+01
DAV:   6    -0.373460924522E+02    0.93541E+00   -0.76992E+00  1056   0.347E+01    0.685E+00
DAV:   7    -0.374321722707E+02   -0.86080E-01   -0.22491E+00  1488   0.202E+01    0.734E+00
DAV:   8    -0.370591972579E+02    0.37298E+00   -0.10403E+00  1280   0.178E+01    0.210E+00
DAV:   9    -0.370982427227E+02   -0.39045E-01   -0.39165E-01  1360   0.448E+00    0.255E+00
DAV:  10    -0.371111439908E+02   -0.12901E-01   -0.26779E-01  1024   0.662E+00    0.187E+00
DAV:  11    -0.371145759502E+02   -0.34320E-02   -0.11751E-01  1120   0.421E+00    0.128E+00
DAV:  12    -0.371382751410E+02   -0.23699E-01   -0.84009E-02  1120   0.426E+00    0.139E+00
DAV:  13    -0.371378377299E+02    0.43741E-03   -0.15207E-02  1248   0.635E-01    0.144E+00
DAV:  14    -0.371251322519E+02    0.12705E-01   -0.11859E-02  1120   0.173E+00    0.824E-01
DAV:  15    -0.371252436923E+02   -0.11144E-03   -0.33301E-03  1376   0.419E-01    0.692E-01
DAV:  16    -0.371281552235E+02   -0.29115E-02   -0.11946E-03  1088   0.392E-01    0.849E-01
DAV:  17    -0.371213702278E+02    0.67850E-02   -0.13825E-02  1120   0.182E+00    0.434E-01
DAV:  18    -0.370678573056E+02    0.53513E-01   -0.31980E-03  1392   0.345E-01    0.320E-01
DAV:  19    -0.372156433066E+02   -0.14779E+00   -0.74833E-04  1040   0.319E-01    0.448E-01
DAV:  20    -0.371115433570E+02    0.10410E+00   -0.72672E-04  1232   0.298E-01    0.432E-01
DAV:  21    -0.371111369837E+02    0.40637E-03   -0.78096E-04  1120   0.292E-01    0.415E-01
DAV:  22    -0.371090868204E+02    0.20502E-02   -0.34369E-04   992   0.173E-01    0.372E-01
DAV:  23    -0.371078172896E+02    0.12695E-02   -0.15418E-04   768   0.111E-01    0.363E-01
DAV:  24    -0.371079529876E+02   -0.13570E-03   -0.45833E-05   800   0.480E-02    0.360E-01
DAV:  25    -0.371094721427E+02   -0.15192E-02   -0.15382E-04   768   0.114E-01    0.362E-01
DAV:  26    -0.371136337224E+02   -0.41616E-02   -0.14946E-03  1072   0.341E-01    0.454E-01
DAV:  27    -0.371941505492E+02   -0.80517E-01   -0.11932E-03  1200   0.314E-01    0.554E-01
DAV:  28    -0.371744381903E+02    0.19712E-01   -0.26125E-04  1072   0.117E-01    0.572E-01
DAV:  29    -0.370618173422E+02    0.11262E+00   -0.23879E-05   688   0.368E-02    0.583E-01
DAV:  30    -0.370707211513E+02   -0.89038E-02   -0.65620E-04  1216   0.812E-02    0.574E-01
DAV:  31    -0.371802634236E+02   -0.10954E+00   -0.47576E-05   832   0.340E-02    0.570E-01
DAV:  32    -0.371711857076E+02    0.90777E-02   -0.46523E-04  1184   0.733E-02    0.577E-01
DAV:  33    -0.371620020075E+02    0.91837E-02   -0.12464E-05   704   0.273E-02    0.577E-01
DAV:  34    -0.370579610727E+02    0.10404E+00   -0.11813E-04   784   0.875E-02    0.601E-01
DAV:  35    -0.371577644588E+02   -0.99803E-01   -0.13117E-03  1168   0.149E-01    0.611E-01
DAV:  36    -0.371242242798E+02    0.33540E-01   -0.88782E-04  1168   0.130E-01    0.650E-01
DAV:  37    -0.371262614693E+02   -0.20372E-02   -0.95718E-04   960   0.236E-01    0.732E-01
DAV:  38    -0.371263456961E+02   -0.84227E-04   -0.84838E-05   816   0.813E-02
   2 F= -.37126346E+02 E0= -.37126346E+02  d E =-.337462E+01  mag=     0.7276
       N       E                     dE             d eps       ncg     rms          rms(c)
DAV:   1    -0.374411101184E+02   -0.31485E+00   -0.34381E+00  1216   0.176E+01    0.492E+00
DAV:   2    -0.387956758788E+02   -0.13546E+01   -0.55836E+00  1216   0.428E+01    0.127E+01
DAV:   3    -0.372991367955E+02    0.14965E+01   -0.40111E+00  1120   0.277E+01    0.446E+00
DAV:   4    -0.372442956196E+02    0.54841E-01   -0.78182E-01  1296   0.850E+00    0.306E+00
DAV:   5    -0.371736978898E+02    0.70598E-01   -0.19252E-01  1056   0.505E+00    0.116E+00
DAV:   6    -0.371717908320E+02    0.19071E-02   -0.15108E-02  1184   0.838E-01    0.108E+00
DAV:   7    -0.371655180543E+02    0.62728E-02   -0.20536E-02  1024   0.158E+00    0.116E+00
DAV:   8    -0.371536284437E+02    0.11890E-01   -0.40252E-02  1248   0.183E+00    0.993E-01
DAV:   9    -0.371449605545E+02    0.86679E-02   -0.13643E-02  1280   0.880E-01    0.615E-01
DAV:  10    -0.371469497892E+02   -0.19892E-02   -0.12873E-02  1056   0.101E+00    0.291E-01
DAV:  11    -0.371490387189E+02   -0.20889E-02   -0.18163E-02  1264   0.102E+00    0.425E-01
DAV:  12    -0.371483576434E+02    0.68108E-03   -0.12259E-03   960   0.296E-01    0.439E-01
DAV:  13    -0.371301795960E+02    0.18178E-01   -0.14032E-03   992   0.421E-01    0.449E-01
DAV:  14    -0.371471898665E+02   -0.17010E-01   -0.27980E-03  1216   0.565E-01    0.426E-01
DAV:  15    -0.371494201721E+02   -0.22303E-02   -0.14351E-03   992   0.403E-01    0.428E-01
DAV:  16    -0.371497230113E+02   -0.30284E-03   -0.72443E-05   736   0.729E-02    0.449E-01
DAV:  17    -0.371463247151E+02    0.33983E-02   -0.10700E-03   800   0.316E-01    0.405E-01
DAV:  18    -0.371416367644E+02    0.46880E-02   -0.49301E-03  1296   0.594E-01    0.390E-01
DAV:  19    -0.371426185869E+02   -0.98182E-03   -0.59605E-04   912   0.302E-01    0.388E-01
DAV:  20    -0.371422557227E+02    0.36286E-03   -0.95757E-05   768   0.987E-02    0.397E-01
DAV:  21    -0.371823139264E+02   -0.40058E-01   -0.26924E-04   800   0.196E-01    0.355E-01
DAV:  22    -0.371452684224E+02    0.37046E-01   -0.10380E-03   864   0.273E-01    0.299E-01
DAV:  23    -0.371578299442E+02   -0.12562E-01   -0.62564E-03  1248   0.885E-01    0.402E-01
DAV:  24    -0.371609844924E+02   -0.31545E-02   -0.22366E-03  1312   0.320E-01    0.551E-01
DAV:  25    -0.371601654709E+02    0.81902E-03   -0.19347E-04   832   0.168E-01    0.611E-01
DAV:  26    -0.371578946270E+02    0.22708E-02   -0.19653E-03   992   0.386E-01    0.581E-01
DAV:  27    -0.371577402396E+02    0.15439E-03   -0.42890E-04   768   0.152E-01    0.532E-01
DAV:  28    -0.371583844528E+02   -0.64421E-03   -0.11241E-04   688   0.123E-01    0.519E-01
DAV:  29    -0.371591259556E+02   -0.74150E-03   -0.16869E-04   656   0.111E-01    0.537E-01
DAV:  30    -0.371598019024E+02   -0.67595E-03   -0.18644E-04   704   0.999E-02    0.565E-01
DAV:  31    -0.371602791565E+02   -0.47725E-03   -0.10691E-04   672   0.633E-02    0.596E-01
DAV:  32    -0.371603181329E+02   -0.38976E-04   -0.41870E-05   640   0.363E-02
   3 F= -.37160318E+02 E0= -.37160318E+02  d E =-.340859E+01  mag=     0.6255
       N       E                     dE             d eps       ncg     rms          rms(c)
DAV:   1    -0.372171093197E+02   -0.56830E-01   -0.69521E-01  1264   0.790E+00    0.236E+00
DAV:   2    -0.375588138614E+02   -0.34170E+00   -0.13640E+00  1072   0.200E+01    0.705E+00
DAV:   3    -0.373415948438E+02    0.21722E+00   -0.20013E+00  1056   0.157E+01    0.597E+00
DAV:   4    -0.371911617020E+02    0.15043E+00   -0.71855E-01  1136   0.896E+00    0.167E+00
DAV:   5    -0.371777274355E+02    0.13434E-01   -0.64063E-02  1136   0.197E+00    0.113E+00
DAV:   6    -0.371743077359E+02    0.34197E-02   -0.22152E-02  1280   0.151E+00    0.157E+00
DAV:   7    -0.371970540733E+02   -0.22746E-01   -0.23980E-01  1184   0.439E+00    0.103E+00
DAV:   8    -0.372067150157E+02   -0.96609E-02   -0.38518E-02  1216   0.184E+00    0.413E-01
DAV:   9    -0.372074998083E+02   -0.78479E-03   -0.62948E-03  1296   0.921E-01    0.404E-01
DAV:  10    -0.372090255472E+02   -0.15257E-02   -0.29446E-03  1088   0.623E-01    0.386E-01
DAV:  11    -0.372097592584E+02   -0.73371E-03   -0.55063E-03  1104   0.100E+00    0.681E-01
DAV:  12    -0.372121530032E+02   -0.23937E-02   -0.54692E-03  1072   0.107E+00    0.417E-01
DAV:  13    -0.372111197480E+02    0.10333E-02   -0.12469E-03  1152   0.504E-01    0.255E-01
DAV:  14    -0.372113626686E+02   -0.24292E-03   -0.63300E-04  1056   0.286E-01    0.161E-01
DAV:  15    -0.372113849528E+02   -0.22284E-04   -0.31429E-04   896   0.169E-01
   4 F= -.37211385E+02 E0= -.37211385E+02  d E =-.345966E+01  mag=    -0.0022
       N       E                     dE             d eps       ncg     rms          rms(c)
DAV:   1    -0.372236290847E+02   -0.12266E-01   -0.12071E-01  1024   0.339E+00    0.944E-01
DAV:   2    -0.372636281471E+02   -0.39999E-01   -0.18324E-01  1056   0.775E+00    0.217E+00
DAV:   3    -0.372130372425E+02    0.50591E-01   -0.95221E-02  1024   0.655E+00    0.272E-01
DAV:   4    -0.372162309173E+02   -0.31937E-02   -0.16300E-02  1280   0.163E+00    0.636E-01
DAV:   5    -0.372132717397E+02    0.29592E-02   -0.75723E-03  1104   0.134E+00    0.184E-01
DAV:   6    -0.372135706986E+02   -0.29896E-03   -0.84870E-04  1008   0.381E-01    0.486E-02
DAV:   7    -0.372136379607E+02   -0.67262E-04   -0.85478E-05   640   0.771E-02
   5 F= -.37213638E+02 E0= -.37213638E+02  d E =-.346191E+01  mag=    -0.0023
       N       E                     dE             d eps       ncg     rms          rms(c)
DAV:   1    -0.372756846405E+02   -0.62114E-01   -0.35861E+00   960   0.698E+00    0.880E-01
DAV:   2    -0.373165337513E+02   -0.40849E-01   -0.32623E-01  1088   0.651E+00    0.173E+00
DAV:   3    -0.372865750043E+02    0.29959E-01   -0.85386E-02  1040   0.570E+00    0.342E-01
DAV:   4    -0.372859335621E+02    0.64144E-03   -0.11818E-02  1136   0.598E-01    0.185E-01
DAV:   5    -0.372854039507E+02    0.52961E-03   -0.15096E-03  1232   0.472E-01    0.678E-02
DAV:   6    -0.372856404627E+02   -0.23651E-03   -0.84407E-04   944   0.466E-01    0.162E-01
DAV:   7    -0.372854488276E+02    0.19164E-03   -0.53958E-04   832   0.389E-01    0.298E-02
DAV:   8    -0.372855170861E+02   -0.68258E-04   -0.80742E-05   672   0.729E-02
   6 F= -.37285517E+02 E0= -.37285517E+02  d E =-.718791E-01  mag=    -0.0015
       N       E                     dE             d eps       ncg     rms          rms(c)
DAV:   1    -0.372984125304E+02   -0.12964E-01   -0.25508E+00   960   0.591E+00    0.744E-01
DAV:   2    -0.373282128341E+02   -0.29800E-01   -0.23122E-01   992   0.562E+00    0.147E+00
DAV:   3    -0.373063861475E+02    0.21827E-01   -0.61809E-02   960   0.487E+00    0.288E-01
DAV:   4    -0.373058400730E+02    0.54607E-03   -0.84424E-03  1088   0.541E-01    0.173E-01
DAV:   5    -0.373068959201E+02   -0.10558E-02   -0.47813E-03  1088   0.117E+00    0.457E-01
DAV:   6    -0.373054892725E+02    0.14066E-02   -0.36906E-03  1024   0.103E+00    0.493E-02
DAV:   7    -0.373054945580E+02   -0.52855E-05   -0.27163E-04   864   0.153E-01
   7 F= -.37305495E+02 E0= -.37305495E+02  d E =-.918566E-01  mag=    -0.0017
       N       E                     dE             d eps       ncg     rms          rms(c)
DAV:   1    -0.373135287211E+02   -0.80394E-02   -0.52629E-01   960   0.283E+00    0.490E-01
DAV:   2    -0.373174426571E+02   -0.39139E-02   -0.49095E-02  1104   0.294E+00    0.794E-01
DAV:   3    -0.373114587872E+02    0.59839E-02   -0.18933E-02  1024   0.272E+00    0.260E-01
DAV:   4    -0.373096667777E+02    0.17920E-02   -0.44051E-03  1296   0.609E-01    0.170E-01
DAV:   5    -0.373099106262E+02   -0.24385E-03   -0.29994E-03  1152   0.925E-01    0.278E-01
DAV:   6    -0.373094793504E+02    0.43128E-03   -0.13945E-03   928   0.616E-01    0.326E-02
DAV:   7    -0.373095687299E+02   -0.89379E-04   -0.13949E-04   784   0.890E-02
   8 F= -.37309569E+02 E0= -.37309569E+02  d E =-.407417E-02  mag=    -0.0013
       N       E                     dE             d eps       ncg     rms          rms(c)
DAV:   1    -0.373100900032E+02   -0.61065E-03   -0.21733E-02  1040   0.591E-01    0.103E-01
DAV:   2    -0.373102413950E+02   -0.15139E-03   -0.23056E-03  1136   0.673E-01    0.183E-01
DAV:   3    -0.373100227390E+02    0.21866E-03   -0.98407E-04   960   0.610E-01    0.651E-02
DAV:   4    -0.373102198690E+02   -0.19713E-03   -0.64598E-04   832   0.409E-01    0.156E-01
DAV:   5    -0.373100887078E+02    0.13116E-03   -0.49176E-04   816   0.357E-01    0.188E-02
DAV:   6    -0.373102068133E+02   -0.11811E-03   -0.94576E-05   720   0.660E-02    0.118E-02
DAV:   7    -0.373102910174E+02   -0.84204E-04   -0.39115E-05   768   0.420E-02
   9 F= -.37310291E+02 E0= -.37310291E+02  d E =-.479646E-02  mag=    -0.0012
       N       E                     dE             d eps       ncg     rms          rms(c)
DAV:   1    -0.373117014129E+02   -0.14946E-02   -0.11591E-01   976   0.122E+00    0.885E-02
DAV:   2    -0.373123049399E+02   -0.60353E-03   -0.57278E-03  1056   0.433E-01    0.811E-02
DAV:   3    -0.373123496383E+02   -0.44698E-04   -0.63225E-04   880   0.425E-01
  10 F= -.37312350E+02 E0= -.37312350E+02  d E =-.205862E-02  mag=    -0.0012
       N       E                     dE             d eps       ncg     rms          rms(c)
DAV:   1    -0.373112543475E+02    0.10506E-02   -0.10337E+00   960   0.367E+00    0.298E-01
DAV:   2    -0.373172068363E+02   -0.59525E-02   -0.55289E-02  1056   0.196E+00    0.556E-01
DAV:   3    -0.373161024498E+02    0.11044E-02   -0.13797E-02  1040   0.199E+00    0.423E-01
DAV:   4    -0.373153615243E+02    0.74093E-03   -0.56489E-03  1040   0.123E+00    0.251E-01
DAV:   5    -0.373148222019E+02    0.53932E-03   -0.14792E-03  1056   0.693E-01    0.723E-02
DAV:   6    -0.373148289935E+02   -0.67916E-05   -0.52874E-04  1040   0.139E-01
  11 F= -.37314829E+02 E0= -.37314829E+02  d E =-.453798E-02  mag=    -0.0015
       N       E                     dE             d eps       ncg     rms          rms(c)
DAV:   1    -0.373175312779E+02   -0.27091E-02   -0.41718E-01  1008   0.267E+00    0.341E-01
DAV:   2    -0.373218150859E+02   -0.42838E-02   -0.20774E-02  1072   0.256E+00    0.682E-01
DAV:   3    -0.373165470815E+02    0.52680E-02   -0.11309E-02   992   0.216E+00    0.138E-01
DAV:   4    -0.373165980166E+02   -0.50935E-04   -0.12798E-03  1152   0.268E-01    0.630E-02
DAV:   5    -0.373167610795E+02   -0.16306E-03   -0.28197E-04   928   0.253E-01    0.956E-02
DAV:   6    -0.373167164940E+02    0.44585E-04   -0.24069E-04   704   0.271E-01
  12 F= -.37316716E+02 E0= -.37316716E+02  d E =-.188750E-02  mag=    -0.0013
       N       E                     dE             d eps       ncg     rms          rms(c)
DAV:   1    -0.373281858914E+02   -0.11425E-01   -0.37777E+00   960   0.808E+00    0.101E+00
DAV:   2    -0.373669310973E+02   -0.38745E-01   -0.18606E-01  1120   0.771E+00    0.206E+00
DAV:   3    -0.373216366325E+02    0.45294E-01   -0.10318E-01   976   0.626E+00    0.422E-01
DAV:   4    -0.373209744743E+02    0.66216E-03   -0.12319E-02  1168   0.975E-01    0.281E-01
DAV:   5    -0.373225250840E+02   -0.15506E-02   -0.90768E-03  1120   0.161E+00    0.554E-01
DAV:   6    -0.373206507477E+02    0.18743E-02   -0.55146E-03  1104   0.122E+00    0.533E-02
DAV:   7    -0.373207716629E+02   -0.12092E-03   -0.47566E-04   976   0.153E-01    0.393E-02
DAV:   8    -0.373207866504E+02   -0.14987E-04   -0.49527E-05   864   0.877E-02
  13 F= -.37320787E+02 E0= -.37320787E+02  d E =-.595766E-02  mag=    -0.0002
       N       E                     dE             d eps       ncg     rms          rms(c)
DAV:   1    -0.373527972595E+02   -0.32026E-01   -0.15313E+01   960   0.166E+01    0.201E+00
DAV:   2    -0.375062539908E+02   -0.15346E+00   -0.73603E-01  1184   0.154E+01    0.412E+00
DAV:   3    -0.373303821394E+02    0.17587E+00   -0.41172E-01  1072   0.118E+01    0.879E-01
DAV:   4    -0.373248242456E+02    0.55579E-02   -0.47018E-02  1104   0.185E+00    0.409E-01
DAV:   5    -0.373310319617E+02   -0.62077E-02   -0.26045E-02  1104   0.265E+00    0.104E+00
DAV:   6    -0.373242086835E+02    0.68233E-02   -0.21001E-02  1040   0.240E+00    0.145E-01
DAV:   7    -0.373245617700E+02   -0.35309E-03   -0.16693E-03  1184   0.330E-01    0.729E-02
DAV:   8    -0.373244831417E+02    0.78628E-04   -0.19860E-04   784   0.160E-01
  14 F= -.37324483E+02 E0= -.37324483E+02  d E =-.965415E-02  mag=     0.0039
       N       E                     dE             d eps       ncg     rms          rms(c)
DAV:   1    -0.373252046783E+02   -0.64291E-03   -0.11335E-01  1024   0.129E+00    0.973E-02
DAV:   2    -0.373251922261E+02    0.12452E-04   -0.23818E-03  1104   0.536E-01    0.141E-01
DAV:   3    -0.373249227963E+02    0.26943E-03   -0.80799E-04  1024   0.530E-01    0.818E-02
DAV:   4    -0.373250309549E+02   -0.10816E-03   -0.40466E-04   880   0.330E-01    0.105E-01
DAV:   5    -0.373250101080E+02    0.20847E-04   -0.24462E-04   800   0.263E-01
  15 F= -.37325010E+02 E0= -.37325010E+02  d E =-.526966E-03  mag=     0.0046
       N       E                     dE             d eps       ncg     rms          rms(c)
DAV:   1    -0.373260891746E+02   -0.10582E-02   -0.10191E+00   960   0.385E+00    0.269E-01
DAV:   2    -0.373272044372E+02   -0.11153E-02   -0.18228E-02   992   0.117E+00    0.299E-01
DAV:   3    -0.373262247226E+02    0.97971E-03   -0.45114E-03   992   0.124E+00    0.206E-01
DAV:   4    -0.373262881582E+02   -0.63436E-04   -0.11650E-03   960   0.612E-01    0.140E-01
DAV:   5    -0.373265226185E+02   -0.23446E-03   -0.13679E-03   992   0.621E-01    0.178E-01
DAV:   6    -0.373268209973E+02   -0.29838E-03   -0.67580E-04   896   0.388E-01    0.239E-02
DAV:   7    -0.373269784649E+02   -0.15747E-03   -0.86484E-05   704   0.702E-02    0.150E-02
DAV:   8    -0.373269136744E+02    0.64791E-04   -0.29849E-05   752   0.513E-02
  16 F= -.37326914E+02 E0= -.37326914E+02  d E =-.243053E-02  mag=     0.0064
       N       E                     dE             d eps       ncg     rms          rms(c)
DAV:   1    -0.373246390930E+02    0.23394E-02   -0.40985E+00   960   0.774E+00    0.542E-01
DAV:   2    -0.373315975568E+02   -0.69585E-02   -0.73929E-02   960   0.238E+00    0.609E-01
DAV:   3    -0.373295122745E+02    0.20853E-02   -0.18607E-02   960   0.250E+00    0.418E-01
DAV:   4    -0.373290053375E+02    0.50694E-03   -0.54452E-03  1024   0.131E+00    0.332E-01
DAV:   5    -0.373290560718E+02   -0.50734E-04   -0.55245E-03   976   0.124E+00    0.304E-01
DAV:   6    -0.373291050067E+02   -0.48935E-04   -0.22104E-03  1152   0.651E-01    0.452E-02
DAV:   7    -0.373293319981E+02   -0.22699E-03   -0.22393E-04   752   0.115E-01    0.252E-02
DAV:   8    -0.373293165654E+02    0.15433E-04   -0.40227E-05   704   0.704E-02
  17 F= -.37329317E+02 E0= -.37329317E+02  d E =-.483342E-02  mag=     0.0078
       N       E                     dE             d eps       ncg     rms          rms(c)
DAV:   1    -0.373125120264E+02    0.16820E-01   -0.16497E+01   960   0.157E+01    0.107E+00
DAV:   2    -0.373411780537E+02   -0.28666E-01   -0.29389E-01   960   0.448E+00    0.113E+00
DAV:   3    -0.373357744553E+02    0.54036E-02   -0.66732E-02   960   0.467E+00    0.798E-01
DAV:   4    -0.373307363621E+02    0.50381E-02   -0.12353E-02   960   0.217E+00    0.283E-01
DAV:   5    -0.373365101180E+02   -0.57738E-02   -0.18336E-02  1168   0.214E+00    0.882E-01
DAV:   6    -0.373319499048E+02    0.45602E-02   -0.16370E-02   992   0.208E+00    0.142E-01
DAV:   7    -0.373327159784E+02   -0.76607E-03   -0.13545E-03  1136   0.323E-01    0.503E-02
DAV:   8    -0.373326335691E+02    0.82409E-04   -0.10652E-04   752   0.110E-01
  18 F= -.37332634E+02 E0= -.37332634E+02  d E =-.815043E-02  mag=     0.0114
       N       E                     dE             d eps       ncg     rms          rms(c)
DAV:   1    -0.373393870149E+02   -0.66710E-02   -0.12603E+00   960   0.490E+00    0.733E-01
DAV:   2    -0.373635546943E+02   -0.24168E-01   -0.12371E-01   992   0.606E+00    0.158E+00
DAV:   3    -0.373357118099E+02    0.27843E-01   -0.59225E-02   960   0.477E+00    0.253E-01
DAV:   4    -0.373366863715E+02   -0.97456E-03   -0.76046E-03  1264   0.801E-01    0.302E-01
DAV:   5    -0.373363365259E+02    0.34985E-03   -0.30041E-03  1072   0.890E-01    0.192E-01
DAV:   6    -0.373365093306E+02   -0.17280E-03   -0.80096E-04   960   0.402E-01    0.338E-02
DAV:   7    -0.373367586907E+02   -0.24936E-03   -0.13652E-04   688   0.830E-02    0.201E-02
DAV:   8    -0.373366945065E+02    0.64184E-04   -0.47173E-05   768   0.707E-02
  19 F= -.37336695E+02 E0= -.37336695E+02  d E =-.406094E-02  mag=     0.0132
       N       E                     dE             d eps       ncg     rms          rms(c)
DAV:   1    -0.373654933612E+02   -0.28735E-01   -0.11392E+01   960   0.150E+01    0.215E+00
DAV:   2    -0.375774481221E+02   -0.21195E+00   -0.10616E+00  1088   0.179E+01    0.463E+00
DAV:   3    -0.373490511948E+02    0.22840E+00   -0.51576E-01  1008   0.130E+01    0.818E-01
DAV:   4    -0.373458206845E+02    0.32305E-02   -0.50068E-02  1120   0.160E+00    0.389E-01
DAV:   5    -0.373451752143E+02    0.64547E-03   -0.39007E-03  1216   0.785E-01    0.106E-01
DAV:   6    -0.373463470100E+02   -0.11718E-02   -0.37684E-03  1216   0.944E-01    0.382E-01
DAV:   7    -0.373453781955E+02    0.96881E-03   -0.28296E-03   960   0.864E-01    0.556E-02
DAV:   8    -0.373455792764E+02   -0.20108E-03   -0.24322E-04   800   0.132E-01    0.268E-02
DAV:   9    -0.373454847075E+02    0.94569E-04   -0.40661E-05   640   0.661E-02
  20 F= -.37345485E+02 E0= -.37345485E+02  d E =-.128511E-01  mag=     0.0153
       N       E                     dE             d eps       ncg     rms          rms(c)
DAV:   1    -0.374228276644E+02   -0.77248E-01   -0.46179E+01   960   0.310E+01    0.419E+00
DAV:   2    -0.382536789367E+02   -0.83085E+00   -0.40656E+00  1200   0.354E+01    0.928E+00
DAV:   3    -0.373877365325E+02    0.86594E+00   -0.20565E+00  1104   0.236E+01    0.199E+00
DAV:   4    -0.373572385397E+02    0.30498E-01   -0.19236E-01  1120   0.401E+00    0.970E-01
DAV:   5    -0.373709457047E+02   -0.13707E-01   -0.84124E-02  1024   0.480E+00    0.181E+00
DAV:   6    -0.373502659151E+02    0.20680E-01   -0.64889E-02  1008   0.418E+00    0.328E-01
DAV:   7    -0.373508213291E+02   -0.55541E-03   -0.79058E-03  1216   0.686E-01    0.164E-01
DAV:   8    -0.373507598468E+02    0.61482E-04   -0.11013E-03  1104   0.434E-01    0.566E-02
DAV:   9    -0.373508611166E+02   -0.10127E-03   -0.17794E-04   752   0.126E-01    0.216E-02
DAV:  10    -0.373506046444E+02    0.25647E-03   -0.82010E-05   656   0.486E-02    0.197E-02
DAV:  11    -0.373497497995E+02    0.85484E-03   -0.20427E-04   864   0.838E-02    0.274E-02
DAV:  12    -0.373492545333E+02    0.49527E-03   -0.62785E-04   976   0.790E-02    0.168E-02
DAV:  13    -0.373479016547E+02    0.13529E-02   -0.79667E-04  1088   0.700E-02    0.170E-02
DAV:  14    -0.373472556551E+02    0.64600E-03   -0.12741E-04   880   0.446E-02    0.119E-02
DAV:  15    -0.373472480774E+02    0.75777E-05   -0.48904E-05   784   0.421E-02
  21 F= -.37347248E+02 E0= -.37347248E+02  d E =-.146145E-01  mag=     0.0238
       N       E                     dE             d eps       ncg     rms          rms(c)
DAV:   1    -0.373580387854E+02   -0.10783E-01   -0.44715E+00   960   0.892E+00    0.138E+00
DAV:   2    -0.374412563582E+02   -0.83218E-01   -0.43522E-01  1024   0.109E+01    0.292E+00
DAV:   3    -0.373485684556E+02    0.92688E-01   -0.20369E-01   992   0.951E+00    0.421E-01
DAV:   4    -0.373491666334E+02   -0.59818E-03   -0.26096E-02  1056   0.777E-01    0.288E-01
DAV:   5    -0.373490007349E+02    0.16590E-03   -0.19561E-03  1104   0.649E-01    0.171E-01
DAV:   6    -0.373492307873E+02   -0.23005E-03   -0.22214E-03  1056   0.759E-01    0.209E-01
DAV:   7    -0.373493027494E+02   -0.71962E-04   -0.89809E-04   912   0.453E-01
  22 F= -.37349303E+02 E0= -.37349303E+02  d E =-.166692E-01  mag=     0.0221
       N       E                     dE             d eps       ncg     rms          rms(c)
DAV:   1    -0.373401062465E+02    0.91245E-02   -0.59226E+00   976   0.913E+00    0.618E-01
DAV:   2    -0.373602007663E+02   -0.20095E-01   -0.21883E-01  1008   0.293E+00    0.588E-01
DAV:   3    -0.373595333567E+02    0.66741E-03   -0.23032E-02  1024   0.270E+00    0.528E-01
DAV:   4    -0.373575927622E+02    0.19406E-02   -0.70239E-03  1056   0.154E+00    0.330E-01
DAV:   5    -0.373584230982E+02   -0.83034E-03   -0.75413E-03  1056   0.143E+00    0.410E-01
DAV:   6    -0.373577115226E+02    0.71158E-03   -0.39386E-03  1248   0.899E-01    0.646E-02
DAV:   7    -0.373581080771E+02   -0.39655E-03   -0.43447E-04   960   0.152E-01    0.336E-02
DAV:   8    -0.373582905356E+02   -0.18246E-03   -0.63387E-05   784   0.872E-02    0.145E-02
DAV:   9    -0.373583504098E+02   -0.59874E-04   -0.32751E-05   704   0.320E-02
  23 F= -.37358350E+02 E0= -.37358350E+02  d E =-.904766E-02  mag=     0.0208
       N       E                     dE             d eps       ncg     rms          rms(c)
DAV:   1    -0.373582055247E+02    0.85011E-04   -0.26727E-01  1200   0.193E+00    0.131E-01
DAV:   2    -0.373588203605E+02   -0.61484E-03   -0.99670E-03  1056   0.638E-01    0.127E-01
DAV:   3    -0.373585784400E+02    0.24192E-03   -0.10544E-03   960   0.583E-01    0.111E-01
DAV:   4    -0.373585424669E+02    0.35973E-04   -0.31851E-04   928   0.323E-01
  24 F= -.37358542E+02 E0= -.37358542E+02  d E =-.923972E-02  mag=     0.0207
       N       E                     dE             d eps       ncg     rms          rms(c)
DAV:   1    -0.373641282490E+02   -0.55498E-02   -0.11079E-01  1072   0.229E+00    0.609E-01
DAV:   2    -0.373804875141E+02   -0.16359E-01   -0.74727E-02  1040   0.511E+00    0.141E+00
DAV:   3    -0.373611017361E+02    0.19386E-01   -0.50179E-02   960   0.422E+00    0.539E-01
DAV:   4    -0.373598411094E+02    0.12606E-02   -0.11101E-02  1216   0.150E+00    0.307E-01
DAV:   5    -0.373589678177E+02    0.87329E-03   -0.28865E-03  1152   0.622E-01    0.714E-02
DAV:   6    -0.373590106437E+02   -0.42826E-04   -0.28206E-04   864   0.188E-01
  25 F= -.37359011E+02 E0= -.37359011E+02  d E =-.468177E-03  mag=     0.0192
       N       E                     dE             d eps       ncg     rms          rms(c)
DAV:   1    -0.373590589070E+02   -0.91089E-04   -0.88780E-05   704   0.573E-02    0.228E-02
DAV:   2    -0.373590794712E+02   -0.20564E-04   -0.96741E-05   864   0.184E-01
  26 F= -.37359079E+02 E0= -.37359079E+02  d E =-.537004E-03  mag=     0.0191
