 vasp.5.4.4.18Apr17-6-g9f103f2a35 (build May  1 2020 15:48:39) complex           
 executed on             LinuxGNU date 2020.06.18  23:35:06
 running on   16 total cores
 distrk:  each k-point on   16 cores,    1 groups
 distr:  one band on NCORES_PER_BAND=   1 cores,   16 groups


--------------------------------------------------------------------------------------------------------


 INCAR:
 POTCAR:   PAW_PBE Ni 06Sep2000                   
 POTCAR:    PAW_PBE P 17Jan2003                   
 POTCAR:   PAW_PBE Ge 05Jan2001                   
 POTCAR:   PAW_PBE Se 06Sep2000                   

 ----------------------------------------------------------------------------- 
|                                                                             |
|           W    W    AA    RRRRR   N    N  II  N    N   GGGG   !!!           |
|           W    W   A  A   R    R  NN   N  II  NN   N  G    G  !!!           |
|           W    W  A    A  R    R  N N  N  II  N N  N  G       !!!           |
|           W WW W  AAAAAA  RRRRR   N  N N  II  N  N N  G  GGG   !            |
|           WW  WW  A    A  R   R   N   NN  II  N   NN  G    G                |
|           W    W  A    A  R    R  N    N  II  N    N   GGGG   !!!           |
|                                                                             |
|      For optimal performance we recommend to set                            |
|        NCORE= 4 - approx SQRT( number of cores)                             |
|      NCORE specifies how many cores store one orbital (NPAR=cpu/NCORE).     |
|      This setting can  greatly improve the performance of VASP for DFT.     |
|      The default,   NCORE=1            might be grossly inefficient         |
|      on modern multi-core architectures or massively parallel machines.     |
|      Do your own testing !!!!                                               |
|      Unfortunately you need to use the default for GW and RPA calculations. |
|      (for HF NCORE is supported but not extensively tested yet)             |
|                                                                             |
 ----------------------------------------------------------------------------- 


 ----------------------------------------------------------------------------- 
|                                                                             |
|  ADVICE TO THIS USER RUNNING 'VASP/VAMP'   (HEAR YOUR MASTER'S VOICE ...):  |
|                                                                             |
|      You have switched on vdW-DFT.                                          |
|      This routine was written and supplied by Jiri Klimes.                  |
|      We recommed that you carefully read and cite the following             |
|      publication                                                            |
|      J. Klimes, D.R. Bowler, A. Michelides                                  |
|        J. Phys.: Cond Matt. 22 022201 (2010)                                |
|      J. Klimes, D.R. Bowler, A. Michelides                                  |
|        Phys. Rev. B. 83, 195131 (2011)                                      |
|      and references therein.                                                |
|                                                                             |
 ----------------------------------------------------------------------------- 

 POTCAR:   PAW_PBE Ni 06Sep2000                   
   VRHFIN =Ni:                                                                  
   LEXCH  = PE                                                                  
   EATOM  =  1077.9025 eV,   79.2236 Ry                                         
                                                                                
   TITEL  = PAW_PBE Ni 06Sep2000                                                
   LULTRA =        F    use ultrasoft PP ?                                      
   IUNSCR =        1    unscreen: 0-lin 1-nonlin 2-no                           
   RPACOR =    2.000    partial core radius                                     
   POMASS =   58.690; ZVAL   =   10.000    mass and valenz                      
   RCORE  =    2.300    outmost cutoff radius                                   
   RWIGS  =    2.430; RWIGS  =    1.286    wigner-seitz radius (au A)           
   ENMAX  =  269.533; ENMIN  =  202.150 eV                                      
   RCLOC  =    1.681    cutoff for local pot                                    
   LCOR   =        T    correct aug charges                                     
   LPAW   =        T    paw PP                                                  
   EAUG   =  544.565                                                            
   DEXC   =    -.009                                                            
   RMAX   =    2.808    core radius for proj-oper                               
   RAUG   =    1.300    factor for augmentation sphere                          
   RDEP   =    2.390    radius for radial grids                                 
   QCUT   =   -4.451; QGAM   =    8.902    optimization parameters              
                                                                                
   Description                                                                  
     l     E      TYP  RCUT    TYP  RCUT                                        
     2   .000     23  2.300                                                     
     2   .000     23  2.300                                                     
     0   .000     23  2.300                                                     
     0   .000     23  2.300                                                     
     1  -.200     23  2.300                                                     
     1   .000     23  2.300                                                     
     3   .000      7   .000                                                     
  local pseudopotential read in
  partial core-charges read in
  atomic valenz-charges read in
  non local Contribution for L=           2  read in
    real space projection operators read in
  non local Contribution for L=           2  read in
    real space projection operators read in
  non local Contribution for L=           0  read in
    real space projection operators read in
  non local Contribution for L=           0  read in
    real space projection operators read in
  non local Contribution for L=           1  read in
    real space projection operators read in
  non local Contribution for L=           1  read in
    real space projection operators read in
    PAW grid and wavefunctions read in

   number of l-projection  operators is LMAX  =           6
   number of lm-projection operators is LMMAX =          18

 POTCAR:    PAW_PBE P 17Jan2003                   
   VRHFIN =P : s2p3                                                             
   LEXCH  = PE                                                                  
   EATOM  =   176.0430 eV,   12.9388 Ry                                         
                                                                                
   TITEL  = PAW_PBE P 17Jan2003                                                 
   LULTRA =        F    use ultrasoft PP ?                                      
   IUNSCR =        1    unscreen: 0-lin 1-nonlin 2-no                           
   RPACOR =    1.500    partial core radius                                     
   POMASS =   30.974; ZVAL   =    5.000    mass and valenz                      
   RCORE  =    1.900    outmost cutoff radius                                   
   RWIGS  =    2.330; RWIGS  =    1.233    wigner-seitz radius (au A)           
   ENMAX  =  270.000; ENMIN  =  191.280 eV                                      
   ICORE  =        2    local potential                                         
   LCOR   =        T    correct aug charges                                     
   LPAW   =        T    paw PP                                                  
   EAUG   =  342.924                                                            
   DEXC   =    -.002                                                            
   RMAX   =    2.887    core radius for proj-oper                               
   RAUG   =    1.300    factor for augmentation sphere                          
   RDEP   =    1.931    radius for radial grids                                 
   QCUT   =   -4.330; QGAM   =    8.659    optimization parameters              
                                                                                
   Description                                                                  
     l     E      TYP  RCUT    TYP  RCUT                                        
     0   .000     23  1.900                                                     
     0   .000     23  1.900                                                     
     1   .000     23  1.900                                                     
     1   .000     23  1.900                                                     
     2   .000     23  1.900                                                     
  local pseudopotential read in
  partial core-charges read in
  atomic valenz-charges read in
  non local Contribution for L=           0  read in
    real space projection operators read in
  non local Contribution for L=           0  read in
    real space projection operators read in
  non local Contribution for L=           1  read in
    real space projection operators read in
  non local Contribution for L=           1  read in
    real space projection operators read in
    PAW grid and wavefunctions read in

   number of l-projection  operators is LMAX  =           4
   number of lm-projection operators is LMMAX =           8

 POTCAR:   PAW_PBE Ge 05Jan2001                   
   VRHFIN =Ge: s2p2                                                             
   LEXCH  = PE                                                                  
   EATOM  =   104.9960 eV,    7.7170 Ry                                         
                                                                                
   TITEL  = PAW_PBE Ge 05Jan2001                                                
   LULTRA =        F    use ultrasoft PP ?                                      
   IUNSCR =        1    unscreen: 0-lin 1-nonlin 2-no                           
   RPACOR =    2.170    partial core radius                                     
   POMASS =   72.610; ZVAL   =    4.000    mass and valenz                      
   RCORE  =    2.300    outmost cutoff radius                                   
   RWIGS  =    2.300; RWIGS  =    1.217    wigner-seitz radius (au A)           
   ENMAX  =  173.807; ENMIN  =  130.355 eV                                      
   ICORE  =        3    local potential                                         
   LCOR   =        T    correct aug charges                                     
   LPAW   =        T    paw PP                                                  
   EAUG   =  385.843                                                            
   DEXC   =    -.138                                                            
   RMAX   =    3.497    core radius for proj-oper                               
   RAUG   =    1.300    factor for augmentation sphere                          
   RDEP   =    2.318    radius for radial grids                                 
   QCUT   =   -3.574; QGAM   =    7.148    optimization parameters              
                                                                                
   Description                                                                  
     l     E      TYP  RCUT    TYP  RCUT                                        
     0   .000     23  2.300                                                     
     0   .000     23  2.300                                                     
     1   .000     23  2.300                                                     
     1   .000     23  2.300                                                     
     2   .000     23  2.300                                                     
     3  -.100      7  2.300                                                     
  local pseudopotential read in
  partial core-charges read in
  atomic valenz-charges read in
  non local Contribution for L=           0  read in
    real space projection operators read in
  non local Contribution for L=           0  read in
    real space projection operators read in
  non local Contribution for L=           1  read in
    real space projection operators read in
  non local Contribution for L=           1  read in
    real space projection operators read in
  non local Contribution for L=           2  read in
    real space projection operators read in
    PAW grid and wavefunctions read in

   number of l-projection  operators is LMAX  =           5
   number of lm-projection operators is LMMAX =          13

 POTCAR:   PAW_PBE Se 06Sep2000                   
   VRHFIN =Se: s2p4                                                             
   LEXCH  = PE                                                                  
   EATOM  =   256.9644 eV,   18.8864 Ry                                         
                                                                                
   TITEL  = PAW_PBE Se 06Sep2000                                                
   LULTRA =        F    use ultrasoft PP ?                                      
   IUNSCR =        1    unscreen: 0-lin 1-nonlin 2-no                           
   RPACOR =    1.900    partial core radius                                     
   POMASS =   78.960; ZVAL   =    6.000    mass and valenz                      
   RCORE  =    2.100    outmost cutoff radius                                   
   RWIGS  =    2.200; RWIGS  =    1.164    wigner-seitz radius (au A)           
   ENMAX  =  211.534; ENMIN  =  158.651 eV                                      
   ICORE  =        3    local potential                                         
   LCOR   =        T    correct aug charges                                     
   LPAW   =        T    paw PP                                                  
   EAUG   =  446.842                                                            
   DEXC   =    -.031                                                            
   RMAX   =    3.170    core radius for proj-oper                               
   RAUG   =    1.300    factor for augmentation sphere                          
   RDEP   =    2.177    radius for radial grids                                 
   QCUT   =   -3.943; QGAM   =    7.886    optimization parameters              
                                                                                
   Description                                                                  
     l     E      TYP  RCUT    TYP  RCUT                                        
     0   .000     23  2.100                                                     
     0   .000     23  2.100                                                     
     1   .000     23  2.100                                                     
     1   .000     23  2.100                                                     
     2   .000     23  2.100                                                     
     3  -.100      7  2.100                                                     
  local pseudopotential read in
  partial core-charges read in
  atomic valenz-charges read in
  non local Contribution for L=           0  read in
    real space projection operators read in
  non local Contribution for L=           0  read in
    real space projection operators read in
  non local Contribution for L=           1  read in
    real space projection operators read in
  non local Contribution for L=           1  read in
    real space projection operators read in
  non local Contribution for L=           2  read in
    real space projection operators read in
    PAW grid and wavefunctions read in

   number of l-projection  operators is LMAX  =           5
   number of lm-projection operators is LMMAX =          13

 Optimization of the real space projectors (new method)

 maximal supplied QI-value         = 16.25
 optimisation between [QCUT,QGAM] = [ 11.54, 23.24] = [ 37.28,151.24] Ry 
 Optimized for a Real-space Cutoff    1.49 Angstroem

   l    n(q)    QCUT    max X(q) W(low)/X(q) W(high)/X(q)  e(spline) 
   2      9    11.539     4.811    0.20E-04    0.14E-04    0.45E-07
   2      9    11.539    15.146    0.24E-03    0.12E-03    0.20E-06
   0     10    11.539    14.357    0.18E-04    0.12E-05    0.14E-07
   0     10    11.539    43.282    0.39E-04    0.17E-04    0.23E-06
   1     10    11.539     5.514    0.99E-05    0.13E-04    0.19E-07
   1     10    11.539     7.697    0.38E-04    0.79E-04    0.91E-07
 Optimization of the real space projectors (new method)

 maximal supplied QI-value         = 19.84
 optimisation between [QCUT,QGAM] = [ 11.51, 23.22] = [ 37.09,150.92] Ry 
 Optimized for a Real-space Cutoff    1.21 Angstroem

   l    n(q)    QCUT    max X(q) W(low)/X(q) W(high)/X(q)  e(spline) 
   0      8    11.508     6.651    0.19E-04    0.31E-05    0.49E-08
   0      8    11.508    90.285    0.95E-04    0.17E-03    0.51E-07
   1      8    11.508     4.328    0.14E-04    0.32E-04    0.22E-07
   1      8    11.508    54.583    0.16E-03    0.71E-04    0.89E-07
 Optimization of the real space projectors (new method)

 maximal supplied QI-value         = 16.25
 optimisation between [QCUT,QGAM] = [ 11.54, 23.24] = [ 37.28,151.24] Ry 
 Optimized for a Real-space Cutoff    1.28 Angstroem

   l    n(q)    QCUT    max X(q) W(low)/X(q) W(high)/X(q)  e(spline) 
   0      9    11.539     8.651    0.22E-04    0.16E-04    0.10E-07
   0      9    11.539    33.192    0.11E-03    0.16E-03    0.65E-07
   1      8    11.539     5.899    0.37E-04    0.28E-04    0.43E-07
   1      8    11.539    27.289    0.22E-03    0.28E-04    0.14E-06
   2      8    11.539     4.673    0.11E-03    0.18E-03    0.58E-07
 Optimization of the real space projectors (new method)

 maximal supplied QI-value         = 17.95
 optimisation between [QCUT,QGAM] = [ 11.67, 23.34] = [ 38.13,152.52] Ry 
 Optimized for a Real-space Cutoff    1.25 Angstroem

   l    n(q)    QCUT    max X(q) W(low)/X(q) W(high)/X(q)  e(spline) 
   0      9    11.669     6.499    0.13E-04    0.81E-05    0.11E-07
   0      9    11.669    52.623    0.18E-03    0.46E-04    0.72E-07
   1      8    11.669     4.229    0.40E-04    0.45E-04    0.31E-07
   1      8    11.669    29.991    0.22E-03    0.36E-03    0.10E-06
   2      8    11.669     3.719    0.19E-03    0.46E-04    0.50E-07

 ----------------------------------------------------------------------------- 
|                                                                             |
|  ADVICE TO THIS USER RUNNING 'VASP/VAMP'   (HEAR YOUR MASTER'S VOICE ...):  |
|                                                                             |
|      You enforced a specific xc-type in the INCAR file,                     |
|      a different type was found on the POTCAR file                          |
|          I HOPE YOU KNOW, WHAT YOU ARE  DOING                               |
|                                                                             |
 ----------------------------------------------------------------------------- 

 PAW_PBE Ni 06Sep2000                   :
 energy of atom  1       EATOM=-1077.9025
 kinetic energy error for atom=    0.0030 (will be added to EATOM!!)
  PAW_PBE P 17Jan2003                   :
 energy of atom  2       EATOM= -176.0430
 kinetic energy error for atom=    0.0011 (will be added to EATOM!!)
 PAW_PBE Ge 05Jan2001                   :
 energy of atom  3       EATOM= -104.9960
 kinetic energy error for atom=    0.0002 (will be added to EATOM!!)
 PAW_PBE Se 06Sep2000                   :
 energy of atom  4       EATOM= -256.9644
 kinetic energy error for atom=    0.0007 (will be added to EATOM!!)


 POSCAR: Ni2 P Ge Se6                            
  positions in direct lattice
  velocities in cartesian coordinates
  No initial velocities read in
 exchange correlation table for  LEXCH =       42
   RHO(1)=    0.500       N(1)  =     2000
   RHO(2)=  100.500       N(2)  =     4000



--------------------------------------------------------------------------------------------------------


 ion  position               nearest neighbor table
   1  0.333  0.333  0.500-   6 2.78   5 2.78   7 2.78   8 2.78  10 2.78   9 2.78
   2  0.667  0.667  0.500-   9 2.78   8 2.78  10 2.78   5 2.78   7 2.78   6 2.78
   3  0.000  0.000  0.448-   4 2.43   8 2.63  10 2.63   9 2.63
   4  0.000  0.000  0.552-   3 2.43   5 2.63   7 2.63   6 2.63
   5  0.626  0.000  0.574-   4 2.63   1 2.78   2 2.78
   6  0.000  0.373  0.574-   4 2.63   1 2.78   2 2.78
   7  0.373  0.626  0.574-   4 2.63   1 2.78   2 2.78
   8  0.374  1.000  0.426-   3 2.63   2 2.78   1 2.78
   9  1.000  0.627  0.426-   3 2.63   2 2.78   1 2.78
  10  0.627  0.374  0.426-   3 2.63   2 2.78   1 2.78

  LATTYP: Found a hexagonal cell.
 ALAT       =     6.9077769333
 C/A-ratio  =     3.3939410937
  
  Lattice vectors:
  
 A1 = (   3.4538890000,  -5.9823100000,   0.0000000000)
 A2 = (  -6.9077770000,   0.0000000000,   0.0000000000)
 A3 = (   0.0000000000,   0.0000000000, -23.4445880000)


Analysis of symmetry for initial positions (statically):
=====================================================================
 Subroutine PRICEL returns:
 Original cell was already a primitive cell.
 

 Routine SETGRP: Setting up the symmetry group for a 
 hexagonal supercell.


 Subroutine GETGRP returns: Found  3 space group operations
 (whereof  3 operations were pure point group operations)
 out of a pool of 24 trial point group operations.


The static configuration has the point symmetry C_3 .


Analysis of symmetry for dynamics (positions and initial velocities):
=====================================================================
 Subroutine PRICEL returns:
 Original cell was already a primitive cell.
 

 Routine SETGRP: Setting up the symmetry group for a 
 hexagonal supercell.


 Subroutine GETGRP returns: Found  3 space group operations
 (whereof  3 operations were pure point group operations)
 out of a pool of 24 trial point group operations.


The dynamic configuration has the point symmetry C_3 .


Analysis of constrained symmetry for selective dynamics:
=====================================================================
 Subroutine PRICEL returns:
 Original cell was already a primitive cell.
 

 Routine SETGRP: Setting up the symmetry group for a 
 hexagonal supercell.


 Subroutine GETGRP returns: Found  3 space group operations
 (whereof  3 operations were pure point group operations)
 out of a pool of 24 trial point group operations.


The constrained configuration has the point symmetry C_3 .


Analysis of structural, dynamic, and magnetic symmetry:
=====================================================================
 Subroutine PRICEL returns:
 Original cell was already a primitive cell.
 

 Routine SETGRP: Setting up the symmetry group for a 
 hexagonal supercell.


 Subroutine GETGRP returns: Found  3 space group operations
 (whereof  3 operations were pure point group operations)
 out of a pool of 24 trial point group operations.


The magnetic configuration has the point symmetry C_3 .


 Subroutine INISYM returns: Found  3 space group operations
 (whereof  3 operations are pure point group operations),
 and found     1 'primitive' translations



 KPOINTS: Kpoints from vasprun.xml                

Automatic generation of k-mesh.
Space group operators:
 irot       det(A)        alpha          n_x          n_y          n_z        tau_x        tau_y        tau_z
    1     1.000000     0.000000     1.000000     0.000000     0.000000     0.000000     0.000000     0.000000
    2     1.000000   120.000000     0.000000     0.000000     1.000000     0.000000     0.000000     0.000000
    3     1.000000   120.000000     0.000000     0.000000    -1.000000     0.000000     0.000000     0.000000
 
 Subroutine IBZKPT returns following result:
 ===========================================
 
 Found      5 irreducible k-points:
 
 Following reciprocal coordinates:
            Coordinates               Weight
  0.000000  0.000000  0.000000      1.000000
  0.200000  0.000000  0.000000      6.000000
  0.400000  0.000000  0.000000      6.000000
  0.400000  0.200000  0.000000      6.000000
 -0.400000  0.200000  0.000000      6.000000
 
 Following cartesian coordinates:
            Coordinates               Weight
  0.000000  0.000000  0.000000      1.000000
  0.028953 -0.016716  0.000000      6.000000
  0.057906 -0.033432  0.000000      6.000000
  0.057906  0.000000  0.000000      6.000000
 -0.057906  0.066864  0.000000      6.000000
 
 TETIRR: Found     15 inequivalent tetrahedra from      150


--------------------------------------------------------------------------------------------------------




 Dimension of arrays:
   k-points           NKPTS =      5   k-points in BZ     NKDIM =      5   number of bands    NBANDS=     48
   number of dos      NEDOS =    301   number of ions     NIONS =     10
   non local maximal  LDIM  =      6   non local SUM 2l+1 LMDIM =     18
   total plane-waves  NPLWV = 524880
   max r-space proj   IRMAX =   7543   max aug-charges    IRDMAX=  29641
   dimension x,y,z NGX =    54 NGY =   54 NGZ =  180
   dimension x,y,z NGXF=   108 NGYF=  108 NGZF=  360
   support grid    NGXF=   108 NGYF=  108 NGZF=  360
   ions per type =               2   1   1   6
   NGX,Y,Z   is equivalent  to a cutoff of  13.00, 13.00, 12.76 a.u.
   NGXF,Y,Z  is equivalent  to a cutoff of  25.99, 25.99, 25.53 a.u.

 SYSTEM =  unknown system                          
 POSCAR =  Ni2 P Ge Se6                            

 Startparameter for this run:
   NWRITE =      2    write-flag & timer
   PREC   = accura    normal or accurate (medium, high low for compatibility)
   ISTART =      0    job   : 0-new  1-cont  2-samecut
   ICHARG =      2    charge: 1-file 2-atom 10-const
   ISPIN  =      2    spin polarized calculation?
   LNONCOLLINEAR =      F non collinear calculations
   LSORBIT =      F    spin-orbit coupling
   INIWAV =      1    electr: 0-lowe 1-rand  2-diag
   LASPH  =      F    aspherical Exc in radial PAW
   METAGGA=      F    non-selfconsistent MetaGGA calc.

 Electronic Relaxation 1
   ENCUT  =  520.0 eV  38.22 Ry    6.18 a.u.  12.84 12.84 43.59*2*pi/ulx,y,z
   ENINI  =  520.0     initial cutoff
   ENAUG  =  544.6 eV  augmentation charge cutoff
   NELM   =    400;   NELMIN=  2; NELMDL=  0     # of ELM steps 
   EDIFF  = 0.1E-03   stopping-criterion for ELM
   LREAL  =      T    real-space projection
   NLSPLINE    = F    spline interpolate recip. space projectors
   LCOMPAT=      F    compatible to vasp.4.4
   GGA_COMPAT  = T    GGA compatible to vasp.4.4-vasp.4.6
   LMAXPAW     = -100 max onsite density
   LMAXMIX     =    2 max onsite mixed and CHGCAR
   VOSKOWN=      0    Vosko Wilk Nusair interpolation
   ROPT   =   -0.00025  -0.00025  -0.00025  -0.00025
 Ionic relaxation
   EDIFFG = 0.1E-02   stopping-criterion for IOM
   NSW    =     99    number of steps for IOM
   NBLOCK =      1;   KBLOCK =     99    inner block; outer block 
   IBRION =      2    ionic relax: 0-MD 1-quasi-New 2-CG
   NFREE  =      1    steps in history (QN), initial steepest desc. (CG)
   ISIF   =      3    stress and relaxation
   IWAVPR =     11    prediction:  0-non 1-charg 2-wave 3-comb
   ISYM   =      2    0-nonsym 1-usesym 2-fastsym
   LCORR  =      T    Harris-Foulkes like correction to forces

   POTIM  = 0.5000    time-step for ionic-motion
   TEIN   =    0.0    initial temperature
   TEBEG  =    0.0;   TEEND  =   0.0 temperature during run
   SMASS  =  -3.00    Nose mass-parameter (am)
   estimated Nose-frequenzy (Omega)   =  0.10E-29 period in steps =****** mass=  -0.109E-26a.u.
   SCALEE = 1.0000    scale energy and forces
   NPACO  =    256;   APACO  = 16.0  distance and # of slots for P.C.
   PSTRESS=    0.0 pullay stress

  Mass of Ions in am
   POMASS =  58.69 30.97 72.61 78.96
  Ionic Valenz
   ZVAL   =  10.00  5.00  4.00  6.00
  Atomic Wigner-Seitz radii
   RWIGS  =  -1.00 -1.00 -1.00 -1.00
  virtual crystal weights 
   VCA    =   1.00  1.00  1.00  1.00
   NELECT =      65.0000    total number of electrons
   NUPDOWN=      -1.0000    fix difference up-down

 DOS related values:
   EMIN   =  10.00;   EMAX   =-10.00  energy-range for DOS
   EFERMI =   0.00
   ISMEAR =    -5;   SIGMA  =   0.05  broadening in eV -4-tet -1-fermi 0-gaus

 Electronic relaxation 2 (details)
   IALGO  =     38    algorithm
   LDIAG  =      T    sub-space diagonalisation (order eigenvalues)
   LSUBROT=      F    optimize rotation matrix (better conditioning)
   TURBO    =      0    0=normal 1=particle mesh
   IRESTART =      0    0=no restart 2=restart with 2 vectors
   NREBOOT  =      0    no. of reboots
   NMIN     =      0    reboot dimension
   EREF     =   0.00    reference energy to select bands
   IMIX   =      4    mixing-type and parameters
     AMIX     =   0.40;   BMIX     =  1.00
     AMIX_MAG =   1.60;   BMIX_MAG =  1.00
     AMIN     =   0.01
     WC   =   100.;   INIMIX=   1;  MIXPRE=   1;  MAXMIX= -45

 Intra band minimization:
   WEIMIN = 0.0010     energy-eigenvalue tresh-hold
   EBREAK =  0.52E-06  absolut break condition
   DEPER  =   0.30     relativ break condition  

   TIME   =   0.40     timestep for ELM

  volume/ion in A,a.u.               =      96.88       653.80
  Fermi-wavevector in a.u.,A,eV,Ry     =   0.665216  1.257076  6.020745  0.442512
  Thomas-Fermi vector in A             =   1.739143

 Write flags
   LWAVE        =      F    write WAVECAR
   LDOWNSAMPLE  =      F    k-point downsampling of WAVECAR
   LCHARG       =      T    write CHGCAR
   LVTOT        =      F    write LOCPOT, total local potential
   LVHAR        =      F    write LOCPOT, Hartree potential only
   LELF         =      F    write electronic localiz. function (ELF)
   LORBIT       =     11    0 simple, 1 ext, 2 COOP (PROOUT), +10 PAW based schemes


 Dipole corrections
   LMONO  =      F    monopole corrections only (constant potential shift)
   LDIPOL =      F    correct potential (dipole corrections)
   IDIPOL =      0    1-x, 2-y, 3-z, 4-all directions 
   EPSILON=  1.0000000 bulk dielectric constant

 Exchange correlation treatment:
   GGA     =    BO    GGA type
   LEXCH   =    42    internal setting for exchange type
   VOSKOWN=      0    Vosko Wilk Nusair interpolation
   LHFCALC =     F    Hartree Fock is set to
   LHFONE  =     F    Hartree Fock one center treatment
   AEXX    =    0.0000 exact exchange contribution

 vdW DFT:
   LUSE_VDW   =     T    switch on vdW DFT
   Zab_VDW    =-.8491    correlation parameter
   PARAM1     =0.1833
   PARAM2     =0.2200
   PARAM3     =0.0000
   -- rVV10 --
   BPARAM     = 6.3000
   CPARAM     = 0.0093

 Linear response parameters
   LEPSILON=     F    determine dielectric tensor
   LRPA    =     F    only Hartree local field effects (RPA)
   LNABLA  =     F    use nabla operator in PAW spheres
   LVEL    =     F    velocity operator in full k-point grid
   LINTERFAST=   F  fast interpolation
   KINTER  =     0    interpolate to denser k-point grid
   CSHIFT  =0.1000    complex shift for real part using Kramers Kronig
   OMEGAMAX=  -1.0    maximum frequency
   DEG_THRESHOLD= 0.2000000E-02 threshold for treating states as degnerate
   RTIME   =   -0.100 relaxation time in fs
  (WPLASMAI=    0.000 imaginary part of plasma frequency in eV, 0.658/RTIME)
   DFIELD  = 0.0000000 0.0000000 0.0000000 field for delta impulse in time

 Orbital magnetization related:
   ORBITALMAG=     F  switch on orbital magnetization
   LCHIMAG   =     F  perturbation theory with respect to B field
   DQ        =  0.001000  dq finite difference perturbation B field
   LLRAUG    =     F  two centre corrections for induced B field



--------------------------------------------------------------------------------------------------------


 conjugate gradient relaxation of ions
   using selective dynamics as specified on POSCAR
 charge density and potential will be updated during run
 spin polarized calculation
 Variant of blocked Davidson
 Davidson routine will perform the subspace rotation
 perform sub-space diagonalisation
    after iterative eigenvector-optimisation
 modified Broyden-mixing scheme, WC =      100.0
 initial mixing is a Kerker type mixing with AMIX =  0.4000 and BMIX =      1.0000
 Hartree-type preconditioning will be used
 using additional bands           15
 real space projection scheme for non local part
 use partial core corrections
 calculate Harris-corrections to forces   (improved forces if not selfconsistent)
 use gradient corrections 
 use of overlap-Matrix (Vanderbilt PP)
 Fermi weights with tetrahedron method with Bloechl corrections


--------------------------------------------------------------------------------------------------------


  energy-cutoff  :      520.00
  volume of cell :      968.84
      direct lattice vectors                 reciprocal lattice vectors
     6.907777000 -0.000000000  0.000000000     0.144764372 -0.083579742  0.000000000
     3.453888000  5.982310000  0.000000000     0.000000000  0.167159509 -0.000000000
     0.000000000  0.000000000 23.444588000    -0.000000000  0.000000000  0.042653767

  length of vectors
     6.907777000  6.907776433 23.444588000     0.167159495  0.167159509  0.042653767



 k-points in units of 2pi/SCALE and weight: Kpoints from vasprun.xml                
   0.00000000  0.00000000  0.00000000       0.040
   0.02895287 -0.01671595  0.00000000       0.240
   0.05790575 -0.03343190  0.00000000       0.240
   0.05790575  0.00000000  0.00000000       0.240
  -0.05790575  0.06686380  0.00000000       0.240

 k-points in reciprocal lattice and weights: Kpoints from vasprun.xml                
   0.00000000  0.00000000  0.00000000       0.040
   0.20000000  0.00000000  0.00000000       0.240
   0.40000000  0.00000000  0.00000000       0.240
   0.40000000  0.20000000  0.00000000       0.240
  -0.40000000  0.20000000  0.00000000       0.240

 position of ions in fractional coordinates (direct lattice) 
   0.33333300  0.33333300  0.49992500
   0.66666700  0.66666700  0.50007500
   0.00000000  0.00000000  0.44821600
   0.00000000  0.00000000  0.55178400
   0.62635700  0.00042000  0.57375200
   0.00042000  0.37322400  0.57375200
   0.37322400  0.62635700  0.57375200
   0.37364300  0.99958000  0.42624800
   0.99958000  0.62677600  0.42624800
   0.62677600  0.37364300  0.42624800

 position of ions in cartesian coordinates  (Angst):
   3.45388488  1.99410134 11.72053566
   6.90778012  3.98820866 11.72405234
   0.00000000  0.00000000 10.50823946
   0.00000000  0.00000000 12.93634854
   4.32818511  0.00251257 13.45137925
   1.29197516  2.23274167 13.45137925
   4.74151509  3.74706174 13.45137925
   6.03347989  5.97979743  9.99320875
   9.06968984  3.74956833  9.99320875
   5.62014991  2.23524826  9.99320875



--------------------------------------------------------------------------------------------------------


 k-point  1 :   0.0000 0.0000 0.0000  plane waves:   26073
 k-point  2 :   0.2000 0.0000 0.0000  plane waves:   26070
 k-point  3 :   0.4000 0.0000 0.0000  plane waves:   26086
 k-point  4 :   0.4000 0.2000 0.0000  plane waves:   26085
 k-point  5 :  -0.4000 0.2000 0.0000  plane waves:   26115

 maximum and minimum number of plane-waves per node :     26115    26070

 maximum number of plane-waves:     26115
 maximum index in each direction: 
   IXMAX=   13   IYMAX=   12   IZMAX=   43
   IXMIN=  -13   IYMIN=  -13   IZMIN=  -43


 serial   3D FFT for wavefunctions
 parallel 3D FFT for charge:
    minimum data exchange during FFTs selected (reduces bandwidth)


 total amount of memory used by VASP MPI-rank0   129818. kBytes
=======================================================================

   base      :      30000. kBytes
   nonlr-proj:       7318. kBytes
   fftplans  :      11247. kBytes
   grid      :      68332. kBytes
   one-center:        311. kBytes
   wavefun   :      12610. kBytes

     INWAV:  cpu time    0.0000: real time    0.0000
 Broyden mixing: mesh for mixing (old mesh)
   NGX = 25   NGY = 25   NGZ = 87
  (NGX  =108   NGY  =108   NGZ  =360)
  gives a total of  54375 points

 initial charge density was supplied:
 charge density of overlapping atoms calculated
 number of electron      65.0000000 magnetization       7.3200000
 keeping initial charge density in first step


--------------------------------------------------------------------------------------------------------


 Maximum index for non-local projection operator         7247
 Maximum index for augmentation-charges         2133 (set IRDMAX)


--------------------------------------------------------------------------------------------------------


 First call to EWALD:  gamma=   0.179
 Maximum number of real-space cells 4x 4x 1
 Maximum number of reciprocal cells 2x 2x 6

    FEWALD:  cpu time    0.0000: real time    0.0014


--------------------------------------- Iteration      1(   1)  ---------------------------------------


vdW kernel read from vdw_kernel.bindat
  0.0000  0.2424  0.5071  0.7962  1.1119  1.4567  1.8333  2.2446  2.6937  3.1842
  3.7199  4.3049  4.9438  5.6415  6.4036  7.2358  8.1446  9.1372 10.2212 11.4050
 12.6979 14.1099 15.6519 17.3360 19.1751 21.1837 23.3773 25.7729 28.3892 31.2465
 34.3669 37.7748 41.4965 45.5611 50.0000

    POTLOK:  cpu time   52.9000: real time   53.1685
    SETDIJ:  cpu time    0.0440: real time    0.0471
     EDDAV:  cpu time   22.8040: real time   22.8370
 BZINTS: Fermi energy:  4.519690; 65.000000 electrons
         Band energy: -45.544009;  BLOECHL correction: -0.044832
       DOS:  cpu time    0.0040: real time    0.0047
    --------------------------------------------
      LOOP:  cpu time   75.7520: real time   76.0573

 eigenvalue-minimisations  :   960
 total energy-change (2. order) : 0.4211271E+03  (-0.1995682E+04)
 number of electron      65.0000000 magnetization       7.3200000
 augmentation part       65.0000000 magnetization       7.3200000

 Free energy of the ion-electron system (eV)
  ---------------------------------------------------
  alpha Z        PSCENC =        41.46198644
  Ewald energy   TEWEN  =      8338.88239735
  -Hartree energ DENC   =    -11933.50764714
  -exchange      EXHF   =         0.00000000
  -V(xc)+E(xc)   XCENC  =        45.02433890
  PAW double counting   =      2465.35493070    -2487.19307449
  entropy T*S    EENTRO =         0.00000000
  eigenvalues    EBANDS =       -45.54400903
  atomic energy  EATOM  =      3996.64816900
  Solvation  Ediel_sol  =         0.00000000
  ---------------------------------------------------
  free energy    TOTEN  =       421.12709173 eV

  energy without entropy =      421.12709173  energy(sigma->0) =      421.12709173


--------------------------------------------------------------------------------------------------------




--------------------------------------- Iteration      1(   2)  ---------------------------------------


     EDDAV:  cpu time   32.4520: real time   32.5609
 BZINTS: Fermi energy: -2.115172; 65.000000 electrons
         Band energy:-437.811473;  BLOECHL correction:  0.000000
       DOS:  cpu time    0.0000: real time    0.0033
    --------------------------------------------
      LOOP:  cpu time   32.4520: real time   32.5642

 eigenvalue-minimisations  :  1424
 total energy-change (2. order) :-0.3922675E+03  (-0.3718639E+03)
 number of electron      65.0000000 magnetization       7.3200000
 augmentation part       65.0000000 magnetization       7.3200000

 Free energy of the ion-electron system (eV)
  ---------------------------------------------------
  alpha Z        PSCENC =        41.46198644
  Ewald energy   TEWEN  =      8338.88239735
  -Hartree energ DENC   =    -11933.50764714
  -exchange      EXHF   =         0.00000000
  -V(xc)+E(xc)   XCENC  =        45.02433890
  PAW double counting   =      2465.35493070    -2487.19307449
  entropy T*S    EENTRO =         0.00000000
  eigenvalues    EBANDS =      -437.81147336
  atomic energy  EATOM  =      3996.64816900
  Solvation  Ediel_sol  =         0.00000000
  ---------------------------------------------------
  free energy    TOTEN  =        28.85962740 eV

  energy without entropy =       28.85962740  energy(sigma->0) =       28.85962740


--------------------------------------------------------------------------------------------------------




--------------------------------------- Iteration      1(   3)  ---------------------------------------


     EDDAV:  cpu time   27.4040: real time   27.4373
 BZINTS: Fermi energy: -2.861813; 65.000000 electrons
         Band energy:-501.919394;  BLOECHL correction: -0.000940
       DOS:  cpu time    0.0040: real time    0.0053
    --------------------------------------------
      LOOP:  cpu time   27.4080: real time   27.4426

 eigenvalue-minimisations  :  1184
 total energy-change (2. order) :-0.6410792E+02  (-0.6221027E+02)
 number of electron      65.0000000 magnetization       7.3200000
 augmentation part       65.0000000 magnetization       7.3200000

 Free energy of the ion-electron system (eV)
  ---------------------------------------------------
  alpha Z        PSCENC =        41.46198644
  Ewald energy   TEWEN  =      8338.88239735
  -Hartree energ DENC   =    -11933.50764714
  -exchange      EXHF   =         0.00000000
  -V(xc)+E(xc)   XCENC  =        45.02433890
  PAW double counting   =      2465.35493070    -2487.19307449
  entropy T*S    EENTRO =         0.00000000
  eigenvalues    EBANDS =      -501.91939384
  atomic energy  EATOM  =      3996.64816900
  Solvation  Ediel_sol  =         0.00000000
  ---------------------------------------------------
  free energy    TOTEN  =       -35.24829308 eV

  energy without entropy =      -35.24829308  energy(sigma->0) =      -35.24829308


--------------------------------------------------------------------------------------------------------




--------------------------------------- Iteration      1(   4)  ---------------------------------------


     EDDAV:  cpu time   28.5880: real time   28.6313
 BZINTS: Fermi energy: -2.873117; 65.000000 electrons
         Band energy:-504.199298;  BLOECHL correction: -0.000972
       DOS:  cpu time    0.0040: real time    0.0054
    --------------------------------------------
      LOOP:  cpu time   28.5920: real time   28.6366

 eigenvalue-minimisations  :  1232
 total energy-change (2. order) :-0.2279904E+01  (-0.2265453E+01)
 number of electron      65.0000000 magnetization       7.3200000
 augmentation part       65.0000000 magnetization       7.3200000

 Free energy of the ion-electron system (eV)
  ---------------------------------------------------
  alpha Z        PSCENC =        41.46198644
  Ewald energy   TEWEN  =      8338.88239735
  -Hartree energ DENC   =    -11933.50764714
  -exchange      EXHF   =         0.00000000
  -V(xc)+E(xc)   XCENC  =        45.02433890
  PAW double counting   =      2465.35493070    -2487.19307449
  entropy T*S    EENTRO =         0.00000000
  eigenvalues    EBANDS =      -504.19929824
  atomic energy  EATOM  =      3996.64816900
  Solvation  Ediel_sol  =         0.00000000
  ---------------------------------------------------
  free energy    TOTEN  =       -37.52819748 eV

  energy without entropy =      -37.52819748  energy(sigma->0) =      -37.52819748


--------------------------------------------------------------------------------------------------------




--------------------------------------- Iteration      1(   5)  ---------------------------------------


     EDDAV:  cpu time   27.6760: real time   27.7748
 BZINTS: Fermi energy: -2.873499; 65.000000 electrons
         Band energy:-504.251437;  BLOECHL correction: -0.000994
       DOS:  cpu time    0.0040: real time    0.0060
    CHARGE:  cpu time    2.1080: real time    2.1575
    MIXING:  cpu time    0.0400: real time    0.0405
    --------------------------------------------
      LOOP:  cpu time   29.8280: real time   29.9787

 eigenvalue-minimisations  :  1200
 total energy-change (2. order) :-0.5213926E-01  (-0.5210242E-01)
 number of electron      64.9999992 magnetization       7.2831282
 augmentation part        0.4437994 magnetization       4.7319046

 Broyden mixing:
  rms(total) = 0.34826E+01    rms(broyden)= 0.34826E+01
  rms(prec ) = 0.37062E+01
  weight for this iteration     100.00

 Free energy of the ion-electron system (eV)
  ---------------------------------------------------
  alpha Z        PSCENC =        41.46198644
  Ewald energy   TEWEN  =      8338.88239735
  -Hartree energ DENC   =    -11933.50764714
  -exchange      EXHF   =         0.00000000
  -V(xc)+E(xc)   XCENC  =        45.02433890
  PAW double counting   =      2465.35493070    -2487.19307449
  entropy T*S    EENTRO =         0.00000000
  eigenvalues    EBANDS =      -504.25143750
  atomic energy  EATOM  =      3996.64816900
  Solvation  Ediel_sol  =         0.00000000
  ---------------------------------------------------
  free energy    TOTEN  =       -37.58033674 eV

  energy without entropy =      -37.58033674  energy(sigma->0) =      -37.58033674


--------------------------------------------------------------------------------------------------------




--------------------------------------- Iteration      1(   6)  ---------------------------------------


    POTLOK:  cpu time   52.0280: real time   52.0869
    SETDIJ:  cpu time    0.0600: real time    0.0622
     EDDAV:  cpu time   28.6720: real time   29.5555
 BZINTS: Fermi energy: -4.174765; 65.000000 electrons
         Band energy:-755.874416;  BLOECHL correction: -0.024659
       DOS:  cpu time    0.0040: real time    0.0072
    CHARGE:  cpu time    2.1960: real time    2.1981
    MIXING:  cpu time    0.0400: real time    0.0416
    --------------------------------------------
      LOOP:  cpu time   83.0000: real time   83.9516

 eigenvalue-minimisations  :  1280
 total energy-change (2. order) :-0.4477681E+02  (-0.5163282E+02)
 number of electron      64.9999991 magnetization       6.9904542
 augmentation part        8.6805441 magnetization       6.7300393

 Broyden mixing:
  rms(total) = 0.53864E+01    rms(broyden)= 0.53863E+01
  rms(prec ) = 0.56174E+01
  weight for this iteration     100.00

 eigenvalues of (default mixing * dielectric matrix)
  average eigenvalue GAMMA=   0.3632
  0.3632

 Free energy of the ion-electron system (eV)
  ---------------------------------------------------
  alpha Z        PSCENC =        41.46198644
  Ewald energy   TEWEN  =      8338.88239735
  -Hartree energ DENC   =    -11755.46258259
  -exchange      EXHF   =         0.00000000
  -V(xc)+E(xc)   XCENC  =        43.68503712
  PAW double counting   =      2182.00646551    -2173.70419923
  entropy T*S    EENTRO =         0.00000000
  eigenvalues    EBANDS =      -755.87441588
  atomic energy  EATOM  =      3996.64816900
  Solvation  Ediel_sol  =         0.00000000
  ---------------------------------------------------
  free energy    TOTEN  =       -82.35714229 eV

  energy without entropy =      -82.35714229  energy(sigma->0) =      -82.35714229


--------------------------------------------------------------------------------------------------------




--------------------------------------- Iteration      1(   7)  ---------------------------------------


    POTLOK:  cpu time   51.7360: real time   51.9112
    SETDIJ:  cpu time    0.0520: real time    0.0505
     EDDAV:  cpu time   24.1960: real time   24.3594
 BZINTS: Fermi energy: -4.290791; 65.000000 electrons
         Band energy:-603.705958;  BLOECHL correction: -0.032408
       DOS:  cpu time    0.0040: real time    0.0069
    CHARGE:  cpu time    2.1880: real time    2.1903
    MIXING:  cpu time    0.0440: real time    0.0447
    --------------------------------------------
      LOOP:  cpu time   78.2200: real time   78.5631

 eigenvalue-minimisations  :  1040
 total energy-change (2. order) : 0.3811303E+02  (-0.5785931E+01)
 number of electron      64.9999991 magnetization       6.8272416
 augmentation part        7.5998976 magnetization       4.7398507

 Broyden mixing:
  rms(total) = 0.28685E+01    rms(broyden)= 0.28685E+01
  rms(prec ) = 0.30523E+01
  weight for this iteration     100.00

 eigenvalues of (default mixing * dielectric matrix)
  average eigenvalue GAMMA=   0.4704
  0.4704  0.4704

 Free energy of the ion-electron system (eV)
  ---------------------------------------------------
  alpha Z        PSCENC =        41.46198644
  Ewald energy   TEWEN  =      8338.88239735
  -Hartree energ DENC   =    -11843.87109052
  -exchange      EXHF   =         0.00000000
  -V(xc)+E(xc)   XCENC  =        43.12034536
  PAW double counting   =      2338.64415311    -2355.42411279
  entropy T*S    EENTRO =         0.00000000
  eigenvalues    EBANDS =      -603.70595842
  atomic energy  EATOM  =      3996.64816900
  Solvation  Ediel_sol  =         0.00000000
  ---------------------------------------------------
  free energy    TOTEN  =       -44.24411048 eV

  energy without entropy =      -44.24411048  energy(sigma->0) =      -44.24411048


--------------------------------------------------------------------------------------------------------




--------------------------------------- Iteration      1(   8)  ---------------------------------------


    POTLOK:  cpu time   51.6680: real time   51.7014
    SETDIJ:  cpu time    0.0480: real time    0.0462
     EDDAV:  cpu time   27.3520: real time   27.4301
 BZINTS: Fermi energy: -4.137194; 65.000000 electrons
         Band energy:-545.559229;  BLOECHL correction: -0.017137
       DOS:  cpu time    0.0040: real time    0.0066
    CHARGE:  cpu time    2.1600: real time    2.1646
    MIXING:  cpu time    0.0800: real time    0.0790
    --------------------------------------------
      LOOP:  cpu time   81.3120: real time   81.4280

 eigenvalue-minimisations  :  1184
 total energy-change (2. order) : 0.9760872E+01  (-0.1415786E+01)
 number of electron      64.9999991 magnetization       6.7150823
 augmentation part        6.0108952 magnetization       4.4476892

 Broyden mixing:
  rms(total) = 0.13811E+01    rms(broyden)= 0.13810E+01
  rms(prec ) = 0.14651E+01
  weight for this iteration     100.00

 eigenvalues of (default mixing * dielectric matrix)
  average eigenvalue GAMMA=   0.4583
  0.5166  0.5166  0.3416

 Free energy of the ion-electron system (eV)
  ---------------------------------------------------
  alpha Z        PSCENC =        41.46198644
  Ewald energy   TEWEN  =      8338.88239735
  -Hartree energ DENC   =    -11886.52175764
  -exchange      EXHF   =         0.00000000
  -V(xc)+E(xc)   XCENC  =        44.05882963
  PAW double counting   =      2412.74723093    -2436.20086498
  entropy T*S    EENTRO =         0.00000000
  eigenvalues    EBANDS =      -545.55922878
  atomic energy  EATOM  =      3996.64816900
  Solvation  Ediel_sol  =         0.00000000
  ---------------------------------------------------
  free energy    TOTEN  =       -34.48323804 eV

  energy without entropy =      -34.48323804  energy(sigma->0) =      -34.48323804


--------------------------------------------------------------------------------------------------------




--------------------------------------- Iteration      1(   9)  ---------------------------------------


    POTLOK:  cpu time   51.4360: real time   52.0057
    SETDIJ:  cpu time    0.0440: real time    0.0459
     EDDAV:  cpu time   32.7360: real time   33.1056
 BZINTS: Fermi energy: -4.047490; 65.000000 electrons
         Band energy:-533.530972;  BLOECHL correction: -0.014492
       DOS:  cpu time    0.0040: real time    0.0048
    CHARGE:  cpu time    2.1560: real time    2.1717
    MIXING:  cpu time    0.0440: real time    0.0427
    --------------------------------------------
      LOOP:  cpu time   86.4200: real time   87.3764

 eigenvalue-minimisations  :  1472
 total energy-change (2. order) : 0.8281167E+00  (-0.2688402E+00)
 number of electron      64.9999991 magnetization       6.6656123
 augmentation part        5.2159737 magnetization       4.7909765

 Broyden mixing:
  rms(total) = 0.74139E+00    rms(broyden)= 0.74121E+00
  rms(prec ) = 0.77997E+00
  weight for this iteration     100.00

 eigenvalues of (default mixing * dielectric matrix)
  average eigenvalue GAMMA=   0.4940
  0.4857  0.4857  0.5022  0.5022

 Free energy of the ion-electron system (eV)
  ---------------------------------------------------
  alpha Z        PSCENC =        41.46198644
  Ewald energy   TEWEN  =      8338.88239735
  -Hartree energ DENC   =    -11897.47579943
  -exchange      EXHF   =         0.00000000
  -V(xc)+E(xc)   XCENC  =        44.27240637
  PAW double counting   =      2434.07626915    -2457.98957810
  entropy T*S    EENTRO =         0.00000000
  eigenvalues    EBANDS =      -533.53097207
  atomic energy  EATOM  =      3996.64816900
  Solvation  Ediel_sol  =         0.00000000
  ---------------------------------------------------
  free energy    TOTEN  =       -33.65512130 eV

  energy without entropy =      -33.65512130  energy(sigma->0) =      -33.65512130


--------------------------------------------------------------------------------------------------------




--------------------------------------- Iteration      1(  10)  ---------------------------------------


    POTLOK:  cpu time   50.8720: real time   51.0729
    SETDIJ:  cpu time    0.0440: real time    0.0453
     EDDAV:  cpu time   24.8480: real time   24.9957
 BZINTS: Fermi energy: -4.058572; 65.000000 electrons
         Band energy:-534.249041;  BLOECHL correction: -0.014396
       DOS:  cpu time    0.0080: real time    0.0061
    CHARGE:  cpu time    2.1440: real time    2.1536
    MIXING:  cpu time    0.0400: real time    0.0426
    --------------------------------------------
      LOOP:  cpu time   77.9560: real time   78.3162

 eigenvalue-minimisations  :  1088
 total energy-change (2. order) :-0.6292207E-01  (-0.3783391E-01)
 number of electron      64.9999991 magnetization       6.1657765
 augmentation part        5.2567818 magnetization       4.2638379

 Broyden mixing:
  rms(total) = 0.76403E+00    rms(broyden)= 0.76403E+00
  rms(prec ) = 0.80616E+00
  weight for this iteration     100.00

 eigenvalues of (default mixing * dielectric matrix)
  average eigenvalue GAMMA=   0.7152
  0.9041  0.9041  0.6261  0.6261  0.5158

 Free energy of the ion-electron system (eV)
  ---------------------------------------------------
  alpha Z        PSCENC =        41.46198644
  Ewald energy   TEWEN  =      8338.88239735
  -Hartree energ DENC   =    -11896.89221214
  -exchange      EXHF   =         0.00000000
  -V(xc)+E(xc)   XCENC  =        44.24679570
  PAW double counting   =      2433.53920306    -2457.35534146
  entropy T*S    EENTRO =         0.00000000
  eigenvalues    EBANDS =      -534.24904132
  atomic energy  EATOM  =      3996.64816900
  Solvation  Ediel_sol  =         0.00000000
  ---------------------------------------------------
  free energy    TOTEN  =       -33.71804336 eV

  energy without entropy =      -33.71804336  energy(sigma->0) =      -33.71804336


--------------------------------------------------------------------------------------------------------




--------------------------------------- Iteration      1(  11)  ---------------------------------------


    POTLOK:  cpu time   50.5120: real time   50.8731
    SETDIJ:  cpu time    0.0440: real time    0.0465
     EDDAV:  cpu time   27.7600: real time   27.9113
 BZINTS: Fermi energy: -3.889784; 65.000000 electrons
         Band energy:-523.629902;  BLOECHL correction: -0.011632
       DOS:  cpu time    0.0080: real time    0.0060
    CHARGE:  cpu time    2.1600: real time    2.1607
    MIXING:  cpu time    0.0440: real time    0.0435
    --------------------------------------------
      LOOP:  cpu time   80.5280: real time   81.0411

 eigenvalue-minimisations  :  1232
 total energy-change (2. order) : 0.2181391E+00  (-0.4307576E-01)
 number of electron      64.9999990 magnetization       5.4439911
 augmentation part        4.8302468 magnetization       3.7734214

 Broyden mixing:
  rms(total) = 0.37831E+00    rms(broyden)= 0.37823E+00
  rms(prec ) = 0.39375E+00
  weight for this iteration     100.00

 eigenvalues of (default mixing * dielectric matrix)
  average eigenvalue GAMMA=   0.8701
  1.4304  1.4304  0.6057  0.6057  0.5742  0.5742

 Free energy of the ion-electron system (eV)
  ---------------------------------------------------
  alpha Z        PSCENC =        41.46198644
  Ewald energy   TEWEN  =      8338.88239735
  -Hartree energ DENC   =    -11907.49726764
  -exchange      EXHF   =         0.00000000
  -V(xc)+E(xc)   XCENC  =        44.47333374
  PAW double counting   =      2455.80155160    -2479.64017229
  entropy T*S    EENTRO =         0.00000000
  eigenvalues    EBANDS =      -523.62990243
  atomic energy  EATOM  =      3996.64816900
  Solvation  Ediel_sol  =         0.00000000
  ---------------------------------------------------
  free energy    TOTEN  =       -33.49990423 eV

  energy without entropy =      -33.49990423  energy(sigma->0) =      -33.49990423


--------------------------------------------------------------------------------------------------------




--------------------------------------- Iteration      1(  12)  ---------------------------------------


    POTLOK:  cpu time   50.6800: real time   50.8068
    SETDIJ:  cpu time    0.0480: real time    0.0453
     EDDAV:  cpu time   32.8800: real time   33.0344
 BZINTS: Fermi energy: -3.777913; 65.000000 electrons
         Band energy:-518.396388;  BLOECHL correction: -0.006297
       DOS:  cpu time    0.0080: real time    0.0070
    CHARGE:  cpu time    2.1320: real time    2.1339
    MIXING:  cpu time    0.0440: real time    0.0438
    --------------------------------------------
      LOOP:  cpu time   85.7920: real time   86.0713

 eigenvalue-minimisations  :  1488
 total energy-change (2. order) :-0.1746642E+00  (-0.5399551E-01)
 number of electron      64.9999990 magnetization       5.2503030
 augmentation part        4.6363433 magnetization       3.6447662

 Broyden mixing:
  rms(total) = 0.41209E+00    rms(broyden)= 0.41202E+00
  rms(prec ) = 0.44314E+00
  weight for this iteration     100.00

 eigenvalues of (default mixing * dielectric matrix)
  average eigenvalue GAMMA=   0.8059
  1.5365  1.5365  0.6082  0.6082  0.5900  0.5900  0.1720

 Free energy of the ion-electron system (eV)
  ---------------------------------------------------
  alpha Z        PSCENC =        41.46198644
  Ewald energy   TEWEN  =      8338.88239735
  -Hartree energ DENC   =    -11913.45951767
  -exchange      EXHF   =         0.00000000
  -V(xc)+E(xc)   XCENC  =        44.57097274
  PAW double counting   =      2467.98025565    -2491.36244404
  entropy T*S    EENTRO =         0.00000000
  eigenvalues    EBANDS =      -518.39638792
  atomic energy  EATOM  =      3996.64816900
  Solvation  Ediel_sol  =         0.00000000
  ---------------------------------------------------
  free energy    TOTEN  =       -33.67456845 eV

  energy without entropy =      -33.67456845  energy(sigma->0) =      -33.67456845


--------------------------------------------------------------------------------------------------------




--------------------------------------- Iteration      1(  13)  ---------------------------------------


    POTLOK:  cpu time   50.7680: real time   50.9024
    SETDIJ:  cpu time    0.0440: real time    0.0448
     EDDAV:  cpu time   23.6800: real time   23.7455
 BZINTS: Fermi energy: -3.781598; 65.000000 electrons
         Band energy:-517.296714;  BLOECHL correction: -0.008119
       DOS:  cpu time    0.0040: real time    0.0067
    CHARGE:  cpu time    2.1280: real time    2.1294
    MIXING:  cpu time    0.0440: real time    0.0446
    --------------------------------------------
      LOOP:  cpu time   76.6680: real time   76.8733

 eigenvalue-minimisations  :  1024
 total energy-change (2. order) : 0.4425793E-01  (-0.5710314E-01)
 number of electron      64.9999990 magnetization       4.8045778
 augmentation part        4.6258904 magnetization       3.2365400

 Broyden mixing:
  rms(total) = 0.16702E+00    rms(broyden)= 0.16689E+00
  rms(prec ) = 0.17185E+00
  weight for this iteration     100.00

 eigenvalues of (default mixing * dielectric matrix)
  average eigenvalue GAMMA=   0.8621
  2.3176  1.0835  0.6165  0.6165  0.7652  0.7652  0.5836  0.1486

 Free energy of the ion-electron system (eV)
  ---------------------------------------------------
  alpha Z        PSCENC =        41.46198644
  Ewald energy   TEWEN  =      8338.88239735
  -Hartree energ DENC   =    -11914.62908216
  -exchange      EXHF   =         0.00000000
  -V(xc)+E(xc)   XCENC  =        44.59309529
  PAW double counting   =      2470.19208097    -2493.48224323
  entropy T*S    EENTRO =         0.00000000
  eigenvalues    EBANDS =      -517.29671418
  atomic energy  EATOM  =      3996.64816900
  Solvation  Ediel_sol  =         0.00000000
  ---------------------------------------------------
  free energy    TOTEN  =       -33.63031051 eV

  energy without entropy =      -33.63031051  energy(sigma->0) =      -33.63031051


--------------------------------------------------------------------------------------------------------




--------------------------------------- Iteration      1(  14)  ---------------------------------------


    POTLOK:  cpu time   51.0920: real time   51.2492
    SETDIJ:  cpu time    0.0480: real time    0.0468
     EDDAV:  cpu time   26.1920: real time   26.2771
 BZINTS: Fermi energy: -3.771945; 65.000000 electrons
         Band energy:-516.590794;  BLOECHL correction: -0.006022
       DOS:  cpu time    0.0080: real time    0.0069
    CHARGE:  cpu time    2.1240: real time    2.1318
    MIXING:  cpu time    0.0440: real time    0.0535
    --------------------------------------------
      LOOP:  cpu time   79.5080: real time   79.7652

 eigenvalue-minimisations  :  1152
 total energy-change (2. order) :-0.3621526E-01  (-0.4822051E-01)
 number of electron      64.9999990 magnetization       4.0582807
 augmentation part        4.4147189 magnetization       2.5806782

 Broyden mixing:
  rms(total) = 0.16941E+00    rms(broyden)= 0.16937E+00
  rms(prec ) = 0.17834E+00
  weight for this iteration     100.00

 eigenvalues of (default mixing * dielectric matrix)
  average eigenvalue GAMMA=   1.0037
  2.7884  1.8502  0.6155  0.6155  0.8896  0.8896  0.6604  0.5767  0.1471

 Free energy of the ion-electron system (eV)
  ---------------------------------------------------
  alpha Z        PSCENC =        41.46198644
  Ewald energy   TEWEN  =      8338.88239735
  -Hartree energ DENC   =    -11915.54872568
  -exchange      EXHF   =         0.00000000
  -V(xc)+E(xc)   XCENC  =        44.56184607
  PAW double counting   =      2470.84678501    -2493.92818956
  entropy T*S    EENTRO =         0.00000000
  eigenvalues    EBANDS =      -516.59079440
  atomic energy  EATOM  =      3996.64816900
  Solvation  Ediel_sol  =         0.00000000
  ---------------------------------------------------
  free energy    TOTEN  =       -33.66652577 eV

  energy without entropy =      -33.66652577  energy(sigma->0) =      -33.66652577


--------------------------------------------------------------------------------------------------------




--------------------------------------- Iteration      1(  15)  ---------------------------------------


    POTLOK:  cpu time   50.5600: real time   50.8784
    SETDIJ:  cpu time    0.0480: real time    0.0465
     EDDAV:  cpu time   25.1200: real time   25.3954
 BZINTS: Fermi energy: -3.819906; 65.000000 electrons
         Band energy:-520.406464;  BLOECHL correction: -0.006613
       DOS:  cpu time    0.0040: real time    0.0069
    CHARGE:  cpu time    2.1640: real time    2.1698
    MIXING:  cpu time    0.0480: real time    0.0464
    --------------------------------------------
      LOOP:  cpu time   77.9440: real time   78.5435

 eigenvalue-minimisations  :  1104
 total energy-change (2. order) :-0.6287448E-01  (-0.1407792E-01)
 number of electron      64.9999990 magnetization       3.5083230
 augmentation part        4.4096281 magnetization       2.0151832

 Broyden mixing:
  rms(total) = 0.12965E+00    rms(broyden)= 0.12964E+00
  rms(prec ) = 0.13678E+00
  weight for this iteration     100.00

 eigenvalues of (default mixing * dielectric matrix)
  average eigenvalue GAMMA=   1.1916
  4.6027  2.0140  0.6159  0.6159  1.0481  0.8352  0.8352  0.6011  0.6011  0.1470

 Free energy of the ion-electron system (eV)
  ---------------------------------------------------
  alpha Z        PSCENC =        41.46198644
  Ewald energy   TEWEN  =      8338.88239735
  -Hartree energ DENC   =    -11911.76963116
  -exchange      EXHF   =         0.00000000
  -V(xc)+E(xc)   XCENC  =        44.41344192
  PAW double counting   =      2462.17670959    -2485.13600951
  entropy T*S    EENTRO =         0.00000000
  eigenvalues    EBANDS =      -520.40646389
  atomic energy  EATOM  =      3996.64816900
  Solvation  Ediel_sol  =         0.00000000
  ---------------------------------------------------
  free energy    TOTEN  =       -33.72940026 eV

  energy without entropy =      -33.72940026  energy(sigma->0) =      -33.72940026


--------------------------------------------------------------------------------------------------------




--------------------------------------- Iteration      1(  16)  ---------------------------------------


    POTLOK:  cpu time   50.8400: real time   51.0000
    SETDIJ:  cpu time    0.0440: real time    0.0467
     EDDAV:  cpu time   27.8920: real time   28.0166
 BZINTS: Fermi energy: -3.832253; 65.000000 electrons
         Band energy:-522.234218;  BLOECHL correction: -0.008128
       DOS:  cpu time    0.0040: real time    0.0071
    CHARGE:  cpu time    2.1760: real time    2.1791
    MIXING:  cpu time    0.0480: real time    0.0484
    --------------------------------------------
      LOOP:  cpu time   81.0040: real time   81.2979

 eigenvalue-minimisations  :  1232
 total energy-change (2. order) :-0.2170747E-01  (-0.3478834E-02)
 number of electron      64.9999990 magnetization       3.2706957
 augmentation part        4.5033033 magnetization       1.7523778

 Broyden mixing:
  rms(total) = 0.59338E-01    rms(broyden)= 0.59325E-01
  rms(prec ) = 0.61049E-01
  weight for this iteration     100.00

 eigenvalues of (default mixing * dielectric matrix)
  average eigenvalue GAMMA=   1.2721
  5.4003  1.7080  1.7080  0.6159  0.6159  0.9380  0.9380  0.5751  0.6734  0.6734
  0.1470

 Free energy of the ion-electron system (eV)
  ---------------------------------------------------
  alpha Z        PSCENC =        41.46198644
  Ewald energy   TEWEN  =      8338.88239735
  -Hartree energ DENC   =    -11909.90383656
  -exchange      EXHF   =         0.00000000
  -V(xc)+E(xc)   XCENC  =        44.36489851
  PAW double counting   =      2459.39199214    -2482.36249673
  entropy T*S    EENTRO =         0.00000000
  eigenvalues    EBANDS =      -522.23421787
  atomic energy  EATOM  =      3996.64816900
  Solvation  Ediel_sol  =         0.00000000
  ---------------------------------------------------
  free energy    TOTEN  =       -33.75110773 eV

  energy without entropy =      -33.75110773  energy(sigma->0) =      -33.75110773


--------------------------------------------------------------------------------------------------------




--------------------------------------- Iteration      1(  17)  ---------------------------------------


    POTLOK:  cpu time   50.7720: real time   50.8455
    SETDIJ:  cpu time    0.0480: real time    0.0460
     EDDAV:  cpu time   28.1240: real time   28.2041
 BZINTS: Fermi energy: -3.820008; 65.000000 electrons
         Band energy:-521.950302;  BLOECHL correction: -0.008842
       DOS:  cpu time    0.0040: real time    0.0067
    CHARGE:  cpu time    2.1440: real time    2.1482
    MIXING:  cpu time    0.0480: real time    0.0482
    --------------------------------------------
      LOOP:  cpu time   81.1400: real time   81.2986

 eigenvalue-minimisations  :  1248
 total energy-change (2. order) :-0.1701224E-02  (-0.2524627E-02)
 number of electron      64.9999990 magnetization       3.0942540
 augmentation part        4.5681173 magnetization       1.5773064

 Broyden mixing:
  rms(total) = 0.33659E-01    rms(broyden)= 0.33647E-01
  rms(prec ) = 0.35711E-01
  weight for this iteration     100.00

 eigenvalues of (default mixing * dielectric matrix)
  average eigenvalue GAMMA=   1.5027
  7.6114  2.5745  1.4539  1.4539  0.6160  0.6160  0.8398  0.8398  0.6526  0.6526
  0.5745  0.1470

 Free energy of the ion-electron system (eV)
  ---------------------------------------------------
  alpha Z        PSCENC =        41.46198644
  Ewald energy   TEWEN  =      8338.88239735
  -Hartree energ DENC   =    -11910.25241193
  -exchange      EXHF   =         0.00000000
  -V(xc)+E(xc)   XCENC  =        44.38756322
  PAW double counting   =      2461.52205451    -2484.45226573
  entropy T*S    EENTRO =         0.00000000
  eigenvalues    EBANDS =      -521.95030182
  atomic energy  EATOM  =      3996.64816900
  Solvation  Ediel_sol  =         0.00000000
  ---------------------------------------------------
  free energy    TOTEN  =       -33.75280895 eV

  energy without entropy =      -33.75280895  energy(sigma->0) =      -33.75280895


--------------------------------------------------------------------------------------------------------




--------------------------------------- Iteration      1(  18)  ---------------------------------------


    POTLOK:  cpu time   50.7480: real time   50.9469
    SETDIJ:  cpu time    0.0480: real time    0.0474
     EDDAV:  cpu time   27.4160: real time   27.7079
 BZINTS: Fermi energy: -3.803833; 65.000000 electrons
         Band energy:-520.846782;  BLOECHL correction: -0.008138
       DOS:  cpu time    0.0080: real time    0.0068
    CHARGE:  cpu time    2.1320: real time    2.1377
    MIXING:  cpu time    0.0480: real time    0.0495
    --------------------------------------------
      LOOP:  cpu time   80.4000: real time   80.8964

 eigenvalue-minimisations  :  1216
 total energy-change (2. order) :-0.1578640E-02  (-0.1269560E-02)
 number of electron      64.9999990 magnetization       3.0470349
 augmentation part        4.4832235 magnetization       1.5764270

 Broyden mixing:
  rms(total) = 0.43655E-01    rms(broyden)= 0.43640E-01
  rms(prec ) = 0.47356E-01
  weight for this iteration     100.00

 eigenvalues of (default mixing * dielectric matrix)
  average eigenvalue GAMMA=   1.5137
  8.2967  2.6519  1.5060  1.5060  0.6161  0.6161  0.8845  0.8845  0.6941  0.6941
  0.5905  0.5905  0.1470

 Free energy of the ion-electron system (eV)
  ---------------------------------------------------
  alpha Z        PSCENC =        41.46198644
  Ewald energy   TEWEN  =      8338.88239735
  -Hartree energ DENC   =    -11911.32304548
  -exchange      EXHF   =         0.00000000
  -V(xc)+E(xc)   XCENC  =        44.40546183
  PAW double counting   =      2463.72830390    -2486.71087817
  entropy T*S    EENTRO =         0.00000000
  eigenvalues    EBANDS =      -520.84678247
  atomic energy  EATOM  =      3996.64816900
  Solvation  Ediel_sol  =         0.00000000
  ---------------------------------------------------
  free energy    TOTEN  =       -33.75438759 eV

  energy without entropy =      -33.75438759  energy(sigma->0) =      -33.75438759


--------------------------------------------------------------------------------------------------------




--------------------------------------- Iteration      1(  19)  ---------------------------------------


    POTLOK:  cpu time   50.9080: real time   50.9823
    SETDIJ:  cpu time    0.0440: real time    0.0452
     EDDAV:  cpu time   26.2880: real time   26.5619
 BZINTS: Fermi energy: -3.803389; 65.000000 electrons
         Band energy:-520.964910;  BLOECHL correction: -0.008478
       DOS:  cpu time    0.0040: real time    0.0068
    CHARGE:  cpu time    2.0240: real time    2.1390
    MIXING:  cpu time    0.0520: real time    0.0510
    --------------------------------------------
      LOOP:  cpu time   79.3200: real time   79.7863

 eigenvalue-minimisations  :  1168
 total energy-change (2. order) : 0.2208366E-02  (-0.2184452E-03)
 number of electron      64.9999990 magnetization       2.9978912
 augmentation part        4.5176185 magnetization       1.5087864

 Broyden mixing:
  rms(total) = 0.19062E-01    rms(broyden)= 0.19059E-01
  rms(prec ) = 0.20476E-01
  weight for this iteration     100.00

 eigenvalues of (default mixing * dielectric matrix)
  average eigenvalue GAMMA=   1.5392
  9.0496  2.5791  1.7323  0.6161  0.6161  1.1072  1.1072  0.9966  0.9966  0.7024
  0.7024  0.6242  0.5724  0.1470

 Free energy of the ion-electron system (eV)
  ---------------------------------------------------
  alpha Z        PSCENC =        41.46198644
  Ewald energy   TEWEN  =      8338.88239735
  -Hartree energ DENC   =    -11911.10963939
  -exchange      EXHF   =         0.00000000
  -V(xc)+E(xc)   XCENC  =        44.39172963
  PAW double counting   =      2463.35945614    -2486.42136826
  entropy T*S    EENTRO =         0.00000000
  eigenvalues    EBANDS =      -520.96491013
  atomic energy  EATOM  =      3996.64816900
  Solvation  Ediel_sol  =         0.00000000
  ---------------------------------------------------
  free energy    TOTEN  =       -33.75217923 eV

  energy without entropy =      -33.75217923  energy(sigma->0) =      -33.75217923


--------------------------------------------------------------------------------------------------------




--------------------------------------- Iteration      1(  20)  ---------------------------------------


    POTLOK:  cpu time   50.7080: real time   50.9885
    SETDIJ:  cpu time    0.0720: real time    0.0713
     EDDAV:  cpu time   26.0680: real time   26.3092
 BZINTS: Fermi energy: -3.806688; 65.000000 electrons
         Band energy:-521.418694;  BLOECHL correction: -0.008868
       DOS:  cpu time    0.0040: real time    0.0060
    CHARGE:  cpu time    2.1720: real time    2.1716
    MIXING:  cpu time    0.0520: real time    0.0519
    --------------------------------------------
      LOOP:  cpu time   79.0760: real time   79.5985

 eigenvalue-minimisations  :  1152
 total energy-change (2. order) : 0.1665274E-03  (-0.3203819E-03)
 number of electron      64.9999990 magnetization       3.0000444
 augmentation part        4.5704923 magnetization       1.4872440

 Broyden mixing:
  rms(total) = 0.22414E-01    rms(broyden)= 0.22401E-01
  rms(prec ) = 0.24395E-01
  weight for this iteration     100.00

 eigenvalues of (default mixing * dielectric matrix)
  average eigenvalue GAMMA=   1.5158
  9.2472  2.6002  1.5506  1.5506  1.2279  0.6161  0.6161  0.8377  0.8377  0.7988
  0.7548  0.7548  0.5829  0.6145  0.1470

 Free energy of the ion-electron system (eV)
  ---------------------------------------------------
  alpha Z        PSCENC =        41.46198644
  Ewald energy   TEWEN  =      8338.88239735
  -Hartree energ DENC   =    -11910.67195523
  -exchange      EXHF   =         0.00000000
  -V(xc)+E(xc)   XCENC  =        44.37439723
  PAW double counting   =      2462.57299570    -2485.60130942
  entropy T*S    EENTRO =         0.00000000
  eigenvalues    EBANDS =      -521.41869377
  atomic energy  EATOM  =      3996.64816900
  Solvation  Ediel_sol  =         0.00000000
  ---------------------------------------------------
  free energy    TOTEN  =       -33.75201270 eV

  energy without entropy =      -33.75201270  energy(sigma->0) =      -33.75201270


--------------------------------------------------------------------------------------------------------




--------------------------------------- Iteration      1(  21)  ---------------------------------------


    POTLOK:  cpu time   50.8880: real time   50.9126
    SETDIJ:  cpu time    0.0440: real time    0.0466
     EDDAV:  cpu time   24.2360: real time   24.2772
 BZINTS: Fermi energy: -3.804534; 65.000000 electrons
         Band energy:-521.226045;  BLOECHL correction: -0.008676
       DOS:  cpu time    0.0040: real time    0.0069
    CHARGE:  cpu time    2.1760: real time    2.1794
    MIXING:  cpu time    0.0520: real time    0.0529
    --------------------------------------------
      LOOP:  cpu time   77.4000: real time   77.4755

 eigenvalue-minimisations  :  1056
 total energy-change (2. order) : 0.3489211E-03  (-0.8819753E-04)
 number of electron      64.9999990 magnetization       3.0048342
 augmentation part        4.5564732 magnetization       1.5000783

 Broyden mixing:
  rms(total) = 0.10640E-01    rms(broyden)= 0.10640E-01
  rms(prec ) = 0.11556E-01
  weight for this iteration     100.00

 eigenvalues of (default mixing * dielectric matrix)
  average eigenvalue GAMMA=   1.5136
  9.2784  2.7609  1.8202  1.8202  0.6161  0.6161  1.0650  1.0650  0.8719  0.8719
  0.7195  0.7195  0.5783  0.6336  0.6336  0.1470

 Free energy of the ion-electron system (eV)
  ---------------------------------------------------
  alpha Z        PSCENC =        41.46198644
  Ewald energy   TEWEN  =      8338.88239735
  -Hartree energ DENC   =    -11910.90706653
  -exchange      EXHF   =         0.00000000
  -V(xc)+E(xc)   XCENC  =        44.37841986
  PAW double counting   =      2462.92920245    -2485.91872725
  entropy T*S    EENTRO =         0.00000000
  eigenvalues    EBANDS =      -521.22604510
  atomic energy  EATOM  =      3996.64816900
  Solvation  Ediel_sol  =         0.00000000
  ---------------------------------------------------
  free energy    TOTEN  =       -33.75166378 eV

  energy without entropy =      -33.75166378  energy(sigma->0) =      -33.75166378


--------------------------------------------------------------------------------------------------------




--------------------------------------- Iteration      1(  22)  ---------------------------------------


    POTLOK:  cpu time   50.6160: real time   50.9101
    SETDIJ:  cpu time    0.0440: real time    0.0465
     EDDAV:  cpu time   19.8040: real time   19.8717
 BZINTS: Fermi energy: -3.803695; 65.000000 electrons
         Band energy:-521.097035;  BLOECHL correction: -0.008568
       DOS:  cpu time    0.0040: real time    0.0048
    --------------------------------------------
      LOOP:  cpu time   70.4680: real time   70.8330

 eigenvalue-minimisations  :   800
 total energy-change (2. order) :-0.6209324E-04  (-0.2044511E-04)
 number of electron      64.9999990 magnetization       3.0048342
 augmentation part        4.5564732 magnetization       1.5000783

 Free energy of the ion-electron system (eV)
  ---------------------------------------------------
  alpha Z        PSCENC =        41.46198644
  Ewald energy   TEWEN  =      8338.88239735
  -Hartree energ DENC   =    -11911.04941425
  -exchange      EXHF   =         0.00000000
  -V(xc)+E(xc)   XCENC  =        44.38138674
  PAW double counting   =      2463.10857010    -2486.08778602
  entropy T*S    EENTRO =         0.00000000
  eigenvalues    EBANDS =      -521.09703524
  atomic energy  EATOM  =      3996.64816900
  Solvation  Ediel_sol  =         0.00000000
  ---------------------------------------------------
  free energy    TOTEN  =       -33.75172587 eV

  energy without entropy =      -33.75172587  energy(sigma->0) =      -33.75172587


[...]
     34      -2.4038      0.00000
     35      -2.0537      0.00000
     36      -1.2699      0.00000
     37      -1.0329      0.00000
     38       0.1814      0.00000
     39       0.2892      0.00000
     40       0.7311      0.00000
     41       1.1016      0.00000
     42       1.4892      0.00000
     43       1.7754      0.00000
     44       2.0055      0.00000
     45       2.1907      0.00000
     46       2.6916      0.00000
     47       2.9333      0.00000
     48       3.0937      0.00000

 k-point     5 :      -0.4000    0.2000    0.0000
  band No.  band energies     occupation 
      1     -17.5094      1.00000
      2     -16.5546      1.00000
      3     -16.2695      1.00000
      4     -16.0645      1.00000
      5     -15.9521      1.00000
      6     -15.7465      1.00000
      7     -12.5960      1.00000
      8     -10.7598      1.00000
      9      -8.4650      1.00000
     10      -7.9993      1.00000
     11      -7.8172      1.00000
     12      -7.2544      1.00000
     13      -7.2107      1.00000
     14      -6.6677      1.00000
     15      -6.4128      1.00000
     16      -6.2346      1.00000
     17      -6.1293      1.00000
     18      -6.0354      1.00000
     19      -5.8694      1.00000
     20      -5.6499      1.00000
     21      -5.5109      1.00000
     22      -5.0141      1.00000
     23      -4.8122      1.00000
     24      -4.6805      1.00000
     25      -4.5328      1.00000
     26      -4.4481      1.00000
     27      -4.3284      1.00000
     28      -4.2262      1.00000
     29      -4.0906      1.00000
     30      -4.0357      1.00000
     31      -3.9551      1.00000
     32      -2.9534      1.00000
     33      -2.7895      1.02541
     34      -2.4215      0.00000
     35      -2.0308      0.00000
     36      -1.8204      0.00000
     37      -1.1255      0.00000
     38      -0.2056      0.00000
     39       0.1751      0.00000
     40       0.7090      0.00000
     41       0.9140      0.00000
     42       0.9335      0.00000
     43       2.3211      0.00000
     44       2.4024      0.00000
     45       2.4766      0.00000
     46       2.6256      0.00000
     47       2.7145      0.00000
     48       3.2938      0.00000


--------------------------------------------------------------------------------------------------------


 soft charge-density along one line, spin component           1
         0         1         2         3         4         5         6         7         8         9
 total charge-density along one line

 soft charge-density along one line, spin component           2
         0         1         2         3         4         5         6         7         8         9
 total charge-density along one line

 pseudopotential strength for first ion, spin component:           1
-10.395   0.031  -0.000   0.003  -0.000   1.312  -0.011   0.000
  0.031 -10.386   0.000  -0.000   0.003  -0.011   1.310  -0.000
 -0.000   0.000 -10.432   0.000   0.000   0.000  -0.000   1.325
  0.003  -0.000   0.000 -10.386  -0.031  -0.001   0.000  -0.000
 -0.000   0.003   0.000  -0.031 -10.395   0.000  -0.001  -0.000
  1.312  -0.011   0.000  -0.001   0.000   0.773   0.003  -0.000
 -0.011   1.310  -0.000   0.000  -0.001   0.003   0.773   0.000
  0.000  -0.000   1.325  -0.000  -0.000  -0.000   0.000   0.769
 -0.001   0.000  -0.000   1.310   0.011   0.000  -0.000   0.000
  0.000  -0.001  -0.000   0.011   1.312  -0.000   0.000   0.000
  0.000  -0.000   0.001  -0.000   0.000  -0.000  -0.000  -0.000
 -0.000   0.000  -0.000   0.000  -0.000   0.000  -0.000   0.000
  0.000   0.001   0.000  -0.000   0.000  -0.000  -0.000  -0.000
 -0.000  -0.000   0.001  -0.000  -0.000  -0.000   0.000   0.000
  0.000  -0.000   0.000   0.001  -0.000   0.000  -0.000  -0.000
 -0.000   0.000  -0.000   0.000  -0.001   0.000  -0.000   0.000
  0.000   0.000   0.001   0.000   0.000  -0.000  -0.000  -0.000
 -0.001   0.000  -0.000   0.000   0.000   0.000  -0.000   0.000
 pseudopotential strength for first ion, spin component:           2
-10.820  -0.134  -0.000  -0.021  -0.000   1.493   0.056   0.000
 -0.134 -10.964   0.000  -0.000  -0.021   0.056   1.553  -0.000
 -0.000   0.000 -10.737   0.000   0.000   0.000  -0.000   1.459
 -0.021  -0.000   0.000 -10.964   0.134   0.009   0.000  -0.000
 -0.000  -0.021   0.000   0.134 -10.820   0.000   0.009  -0.000
  1.493   0.056   0.000   0.009   0.000   0.695  -0.023  -0.000
  0.056   1.553  -0.000   0.000   0.009  -0.023   0.670   0.000
  0.000  -0.000   1.459  -0.000  -0.000  -0.000   0.000   0.710
  0.009   0.000  -0.000   1.553  -0.056  -0.004  -0.000   0.000
  0.000   0.009  -0.000  -0.056   1.493  -0.000  -0.004   0.000
  0.000  -0.000   0.004  -0.000   0.000   0.000  -0.000  -0.001
 -0.000   0.000  -0.000   0.000  -0.000   0.000  -0.000   0.000
  0.001   0.002   0.000  -0.000   0.001  -0.000  -0.001  -0.000
 -0.000  -0.000   0.001  -0.000  -0.000  -0.000   0.000   0.000
  0.001  -0.000   0.000   0.002  -0.001   0.000  -0.000  -0.000
 -0.000  -0.000  -0.000   0.000  -0.001   0.000  -0.000   0.000
  0.000   0.000   0.001   0.000   0.000  -0.000  -0.000  -0.000
 -0.001   0.000  -0.000  -0.000   0.000   0.000  -0.000   0.000
 total augmentation occupancy for first ion, spin component:           1
  1.812  -0.166   0.000  -0.027  -0.000   0.017   0.077  -0.000   0.014   0.000  -0.000  -0.000   0.009  -0.000   0.008  -0.000
 -0.166   1.656  -0.000  -0.000  -0.027   0.076   0.098   0.000   0.000   0.014   0.000   0.000   0.014  -0.000   0.005  -0.002
  0.000  -0.000   1.948  -0.000  -0.000  -0.000   0.000  -0.051   0.000   0.000  -0.009  -0.006   0.000  -0.001   0.000   0.000
 -0.027  -0.000  -0.000   1.656   0.166   0.014  -0.000   0.000   0.098  -0.076   0.000   0.000  -0.005  -0.000   0.014   0.000
 -0.000  -0.027  -0.000   0.166   1.812  -0.000   0.014   0.000  -0.077   0.017   0.000   0.000   0.008   0.000  -0.009  -0.001
  0.017   0.076  -0.000   0.014  -0.000   0.077   0.058   0.000   0.009  -0.000   0.000  -0.000  -0.001   0.000   0.011   0.000
  0.077   0.098   0.000  -0.000   0.014   0.058   0.138   0.000  -0.000   0.009  -0.000   0.000   0.008  -0.000  -0.002  -0.001
 -0.000   0.000  -0.051   0.000   0.000   0.000   0.000   0.059   0.000  -0.000   0.026  -0.013  -0.000   0.008   0.000   0.000
  0.014   0.000   0.000   0.098  -0.077   0.009  -0.000   0.000   0.138  -0.058  -0.000   0.000   0.002  -0.000   0.008  -0.000
  0.000   0.014   0.000  -0.076   0.017  -0.000   0.009  -0.000  -0.058   0.077  -0.000   0.000   0.011  -0.000   0.001  -0.002
 -0.000   0.000  -0.009   0.000   0.000   0.000  -0.000   0.026  -0.000  -0.000   0.997  -0.284  -0.000   0.023  -0.000   0.000
 -0.000   0.000  -0.006   0.000   0.000  -0.000   0.000  -0.013   0.000   0.000  -0.284   0.140   0.000  -0.008   0.000  -0.000
  0.009   0.014   0.000  -0.005   0.008  -0.001   0.008  -0.000   0.002   0.011   0.000   0.000   0.181  -0.000  -0.000  -0.014
 -0.000  -0.000  -0.001  -0.000   0.000   0.000  -0.000   0.008  -0.000  -0.000   0.023  -0.008  -0.000   0.191  -0.000   0.000
  0.008   0.005   0.000   0.014  -0.009   0.011  -0.002   0.000   0.008   0.001  -0.000   0.000  -0.000  -0.000   0.181  -0.000
 -0.000  -0.002   0.000   0.000  -0.001   0.000  -0.001   0.000  -0.000  -0.002   0.000  -0.000  -0.014   0.000  -0.000   0.002
 -0.000   0.000  -0.001   0.000   0.000  -0.000   0.000  -0.001   0.000   0.000  -0.003   0.002   0.000  -0.016   0.000  -0.000
 -0.001  -0.000  -0.000  -0.002   0.000  -0.002   0.000  -0.000  -0.001  -0.000   0.000  -0.000   0.000   0.000  -0.014  -0.000
 total augmentation occupancy for first ion, spin component:           2
 -0.060  -0.095  -0.000  -0.013   0.000   0.052   0.045   0.000   0.006   0.000   0.000  -0.000   0.003  -0.000   0.002   0.000
 -0.095  -0.148  -0.000   0.000  -0.013   0.044   0.095   0.000   0.000   0.006   0.000   0.000   0.004  -0.000   0.003   0.000
 -0.000  -0.000   0.008  -0.000   0.000   0.000   0.000   0.021   0.000  -0.000   0.001  -0.000   0.000  -0.000   0.000   0.000
 -0.013   0.000  -0.000  -0.148   0.095   0.006  -0.000   0.000   0.095  -0.044   0.000   0.000  -0.003  -0.000   0.004   0.000
  0.000  -0.013   0.000   0.095  -0.060  -0.000   0.006  -0.000  -0.045   0.052  -0.000   0.000   0.002   0.000  -0.003  -0.000
  0.052   0.044   0.000   0.006  -0.000  -0.012  -0.017  -0.000  -0.002   0.000  -0.000  -0.000  -0.001   0.000  -0.000  -0.000
  0.045   0.095   0.000  -0.000   0.006  -0.017  -0.028  -0.000   0.000  -0.002   0.000   0.000  -0.001   0.000  -0.001  -0.000
  0.000   0.000   0.021   0.000  -0.000  -0.000  -0.000  -0.001  -0.000   0.000  -0.002  -0.001  -0.000   0.000  -0.000  -0.000
  0.006   0.000   0.000   0.095  -0.045  -0.002   0.000  -0.000  -0.028   0.017   0.000   0.000   0.001  -0.000  -0.001  -0.000
  0.000   0.006  -0.000  -0.044   0.052   0.000  -0.002   0.000   0.017  -0.012   0.000   0.000  -0.000  -0.000   0.001  -0.000
  0.000   0.000   0.001   0.000  -0.000  -0.000   0.000  -0.002   0.000   0.000  -0.010  -0.019   0.000  -0.001   0.000   0.000
 -0.000   0.000  -0.000   0.000   0.000  -0.000   0.000  -0.001   0.000   0.000  -0.019   0.010   0.000  -0.001   0.000  -0.000
  0.003   0.004   0.000  -0.003   0.002  -0.001  -0.001  -0.000   0.001  -0.000   0.000   0.000  -0.000   0.000   0.000  -0.001
 -0.000   0.000  -0.000  -0.000   0.000   0.000   0.000   0.000  -0.000  -0.000  -0.001  -0.001   0.000  -0.000   0.000   0.000
  0.002   0.003   0.000   0.004  -0.003  -0.000  -0.001  -0.000  -0.001   0.001   0.000   0.000   0.000   0.000  -0.000  -0.000
  0.000   0.000   0.000   0.000  -0.000  -0.000  -0.000  -0.000  -0.000  -0.000   0.000  -0.000  -0.001   0.000  -0.000   0.000
 -0.000   0.000  -0.000  -0.000   0.000  -0.000  -0.000  -0.000   0.000   0.000  -0.000   0.000   0.000  -0.001   0.000  -0.000
 -0.000  -0.000  -0.000   0.000  -0.000  -0.000   0.000  -0.000  -0.000   0.000   0.000  -0.000   0.000   0.000  -0.001  -0.000


------------------------ aborting loop because EDIFF is reached ----------------------------------------





 total charge     

# of ion       s       p       d       tot
------------------------------------------
    1        0.387   0.423   8.355   9.164
    2        0.386   0.420   8.354   9.161
    3        1.046   1.375   0.000   2.420
    4        1.163   1.108   0.101   2.372
    5        1.502   2.231   0.044   3.776
    6        1.496   2.262   0.043   3.801
    7        1.499   2.234   0.044   3.777
    8        1.499   2.251   0.048   3.799
    9        1.488   2.244   0.051   3.782
   10        1.495   2.254   0.049   3.798
--------------------------------------------------
tot         11.962  16.801  17.089  45.851



 magnetization (x)

# of ion       s       p       d       tot
------------------------------------------
    1       -0.001   0.001  -0.543  -0.543
    2        0.001  -0.001   0.555   0.554
    3        0.000   0.000   0.000   0.000
    4       -0.000   0.000   0.000  -0.000
    5        0.001   0.001  -0.000   0.002
    6        0.000  -0.003  -0.000  -0.003
    7       -0.001   0.004   0.000   0.004
    8       -0.001   0.004   0.000   0.003
    9        0.000   0.003   0.000   0.003
   10        0.001  -0.006  -0.000  -0.006
--------------------------------------------------
tot          0.000   0.004   0.012   0.015

    CHARGE:  cpu time    2.2240: real time    2.2340
    FORLOC:  cpu time    0.0640: real time    0.0631
    FORNL :  cpu time    6.6960: real time    6.7498
    STRESS:  cpu time   20.1040: real time   20.2080
    FORCOR:  cpu time   51.1120: real time   51.3935
    FORHAR:  cpu time    0.3680: real time    0.3711
    MIXING:  cpu time    0.0400: real time    0.0399
    OFIELD:  cpu time    0.0000: real time    0.0000

  FORCE on cell =-STRESS in cart. coord.  units (eV):
  Direction    XX          YY          ZZ          XY          YZ          ZX
  --------------------------------------------------------------------------------------
  Alpha Z    52.30981    52.30981    52.30981
  Ewald   13043.96365 13043.96105-15267.49880    -0.00229    -0.00061    -0.00110
  Hartree 13796.38147 13796.38260-13172.36563    -0.00046     0.00008     0.00013
  E(xc)    -277.67890  -277.67893  -277.60321     0.00005     0.00000     0.00001
  Local  -27587.52849-27587.52834 27655.48376     0.00237     0.00033     0.00062
  n-local   256.00022   257.05380   259.82068     0.42180     0.41653     0.39881
  augment    70.58510    70.58529    66.40662    -0.00004     0.00014     0.00004
  Kinetic   650.51476   641.32065   684.05631    -5.15653    -1.20875    -1.18337
  Fock        0.00000     0.00000     0.00000     0.00000     0.00000     0.00000
  -------------------------------------------------------------------------------------
  Total       0.47679     0.47679     0.60955    -0.00000     0.00000     0.00000
  in kB       0.99476     0.99476     1.27176    -0.00000     0.00000     0.00000
  external pressure =        1.09 kB  Pullay stress =        0.00 kB


 VOLUME and BASIS-vectors are now :
 -----------------------------------------------------------------------------
  energy-cutoff  :      520.00
  volume of cell :      767.92
      direct lattice vectors                 reciprocal lattice vectors
     6.226999082 -0.000000675 -0.000000000     0.160590988 -0.092717268  0.000000000
     3.113499774  5.392738799 -0.000000000     0.000000020  0.185434521  0.000000000
    -0.000000000 -0.000000000 22.868021087     0.000000000  0.000000000  0.043729188

  length of vectors
     6.226999082  6.226998683 22.868021087     0.185434509  0.185434521  0.043729188


 FORCES acting on ions
    electron-ion (+dipol)            ewald-force                    non-local-force                 convergence-correction
 -----------------------------------------------------------------------------------------------
   -.401E-04 -.446E-04 0.191E+02   0.793E-03 0.474E-03 -.189E+02   0.293E-16 -.263E-16 -.189E+00   0.101E-06 -.196E-07 0.337E-01
   -.916E-05 0.132E-04 0.254E+02   -.847E-03 -.505E-03 -.253E+02   0.109E-17 -.267E-16 -.136E+00   0.253E-06 0.650E-07 0.326E-01
   -.231E-04 -.266E-04 0.260E+03   -.214E-03 -.119E-03 -.255E+03   0.123E-15 0.122E-15 -.490E+01   -.150E-06 -.854E-07 -.258E-01
   0.772E-04 0.240E-04 -.296E+03   0.191E-03 0.107E-03 0.296E+03   -.104E-16 -.103E-16 0.429E+00   -.645E-07 -.386E-07 0.453E-01
   -.292E+02 0.184E+00 -.538E+03   0.275E+02 -.195E+00 0.540E+03   0.168E+01 0.164E-01 -.183E+01   0.183E-01 -.568E-03 0.963E-01
   0.147E+02 0.252E+02 -.538E+03   -.139E+02 -.237E+02 0.540E+03   -.824E+00 -.146E+01 -.183E+01   -.964E-02 -.156E-01 0.963E-01
   0.144E+02 -.254E+02 -.538E+03   -.136E+02 0.239E+02 0.540E+03   -.853E+00 0.144E+01 -.183E+01   -.865E-02 0.161E-01 0.963E-01
   0.158E+02 0.286E+00 0.536E+03   -.141E+02 -.282E+00 -.538E+03   -.169E+01 -.162E-01 0.212E+01   -.219E-01 -.332E-03 -.726E-01
   -.767E+01 -.139E+02 0.536E+03   0.682E+01 0.124E+02 -.538E+03   0.831E+00 0.147E+01 0.212E+01   0.107E-01 0.192E-01 -.726E-01
   -.816E+01 0.136E+02 0.536E+03   0.730E+01 -.121E+02 -.538E+03   0.859E+00 -.145E+01 0.212E+01   0.113E-01 -.188E-01 -.726E-01
 -----------------------------------------------------------------------------------------------
   -.176E-03 0.583E-05 0.380E+01   -.888E-15 0.178E-14 0.000E+00   0.555E-15 0.222E-15 -.392E+01   0.190E-06 -.497E-07 0.157E+00


 POSITION                                       TOTAL-FORCE (eV/Angst)
 -----------------------------------------------------------------------------------
      3.11350      1.79758     11.22358        -0.000000     -0.000000      0.033538
      6.22700      3.59516     11.21458        -0.000000     -0.000000      0.029931
     -0.00000     -0.00000     10.23292         0.000000      0.000000     -0.008410
     -0.00000     -0.00000     12.61821        -0.000000     -0.000000      0.043302
      3.79996     -0.00245     12.77897        -0.013861      0.005307     -0.034892
      1.21140      2.10310     12.77897         0.011527      0.009350     -0.034892
      4.32914      3.29208     12.77897         0.002334     -0.014657     -0.034892
      2.20649      0.00538      9.68510         0.005364     -0.013483      0.002105
      2.01492      3.47917      9.68510        -0.014359      0.002096      0.002105
      5.11909      1.90818      9.68510         0.008995      0.011387      0.002105
 -----------------------------------------------------------------------------------
    total drift:                               -0.000176      0.000006      0.035338


--------------------------------------------------------------------------------------------------------



  FREE ENERGIE OF THE ION-ELECTRON SYSTEM (eV)
  ---------------------------------------------------
  free  energy   TOTEN  =       -37.35907947 eV

  energy  without entropy=      -37.35907947  energy(sigma->0) =      -37.35907947

 d Force =-0.4803515E-05[-0.534E-05,-0.426E-05]  d Energy = 0.6882756E-04-0.736E-04
 d Force = 0.7634195E-03[ 0.764E-03, 0.763E-03]  d Ewald  = 0.6899648E+00-0.689E+00


--------------------------------------------------------------------------------------------------------


    POTLOK:  cpu time   51.6120: real time   51.6526


--------------------------------------------------------------------------------------------------------




--------------------------------------------------------------------------------------------------------


  
 reached required accuracy - stopping structural energy minimisation
     LOOP+:  cpu time  278.3800: real time  279.0661
    4ORBIT:  cpu time    0.0000: real time    0.0000



 total charge     

# of ion       s       p       d       tot
------------------------------------------
    1        0.387   0.423   8.355   9.164
    2        0.386   0.420   8.354   9.161
    3        1.046   1.375   0.000   2.420
    4        1.163   1.108   0.101   2.372
    5        1.502   2.231   0.044   3.776
    6        1.496   2.262   0.043   3.801
    7        1.499   2.234   0.044   3.777
    8        1.499   2.251   0.048   3.799
    9        1.488   2.244   0.051   3.782
   10        1.495   2.254   0.049   3.798
--------------------------------------------------
tot         11.962  16.801  17.089  45.851



 magnetization (x)

# of ion       s       p       d       tot
------------------------------------------
    1       -0.001   0.001  -0.543  -0.543
    2        0.001  -0.001   0.555   0.554
    3        0.000   0.000   0.000   0.000
    4       -0.000   0.000   0.000  -0.000
    5        0.001   0.001  -0.000   0.002
    6        0.000  -0.003  -0.000  -0.003
    7       -0.001   0.004   0.000   0.004
    8       -0.001   0.004   0.000   0.003
    9        0.000   0.003   0.000   0.003
   10        0.001  -0.006  -0.000  -0.006
--------------------------------------------------
tot          0.000   0.004   0.012   0.015

 BZINTS: Fermi energy: -2.651623; 65.000000 electrons
         Band energy:-515.111251;  BLOECHL correction: -0.023073

 total amount of memory used by VASP MPI-rank0   132278. kBytes
=======================================================================

   base      :      30000. kBytes
   nonlr-proj:       9778. kBytes
   fftplans  :      11247. kBytes
   grid      :      68332. kBytes
   one-center:        311. kBytes
   wavefun   :      12610. kBytes

  
  
 General timing and accounting informations for this job:
 ========================================================
  
                  Total CPU time used (sec):    23872.225
                            User time (sec):    23338.324
                          System time (sec):      533.900
                         Elapsed time (sec):    23989.480
  
                   Maximum memory used (kb):      392688.
                   Average memory used (kb):           0.
  
                          Minor page faults:     24042702
                          Major page faults:            8
                 Voluntary context switches:         1106
