PROCAR lm decomposed
# of k-points:    5         # of bands:   48         # of ions:   10

 k-point     1 :    0.00000000 0.00000000 0.00000000     weight = 0.04000000

band     1 # energy  -17.99879152 # occ.  1.00000000

ion      s     py     pz     px    dxy    dyz    dz2    dxz  x2-y2    tot
    1  0.011  0.000  0.000  0.000  0.000  0.000  0.000  0.000  0.000  0.011
    2  0.011  0.000  0.000  0.000  0.000  0.000  0.000  0.000  0.000  0.011
    3  0.137  0.000  0.000  0.000  0.000  0.000  0.000  0.000  0.000  0.138
    4  0.026  0.000  0.002  0.000  0.000  0.000  0.000  0.000  0.000  0.027
    5  0.031  0.000  0.000  0.000  0.000  0.000  0.000  0.000  0.000  0.031
    6  0.031  0.000  0.000  0.000  0.000  0.000  0.000  0.000  0.000  0.031
    7  0.031  0.000  0.000  0.000  0.000  0.000  0.000  0.000  0.000  0.031
    8  0.121  0.000  0.001  0.003  0.000  0.000  0.000  0.000  0.000  0.125
    9  0.121  0.002  0.001  0.001  0.000  0.000  0.000  0.000  0.000  0.125
   10  0.121  0.002  0.001  0.001  0.000  0.000  0.000  0.000  0.000  0.125
tot    0.639  0.005  0.007  0.005  0.001  0.000  0.001  0.000  0.001  0.657

band     2 # energy  -16.79580052 # occ.  1.00000000

ion      s     py     pz     px    dxy    dyz    dz2    dxz  x2-y2    tot
    1  0.003  0.000  0.006  0.000  0.000  0.000  0.000  0.000  0.000  0.009
    2  0.003  0.000  0.006  0.000  0.000  0.000  0.000  0.000  0.000  0.009
    3  0.024  0.000  0.002  0.000  0.000  0.000  0.000  0.000  0.000  0.026
    4  0.052  0.000  0.000  0.000  0.000  0.000  0.001  0.000  0.000  0.053
    5  0.166  0.000  0.000  0.000  0.000  0.000  0.000  0.000  0.000  0.167
    6  0.166  0.000  0.000  0.000  0.000  0.000  0.000  0.000  0.000  0.167
    7  0.166  0.000  0.000  0.000  0.000  0.000  0.000  0.000  0.000  0.167
    8  0.036  0.000  0.000  0.001  0.000  0.000  0.000  0.000  0.000  0.037
    9  0.036  0.001  0.000  0.000  0.000  0.000  0.000  0.000  0.000  0.037
   10  0.036  0.001  0.000  0.000  0.000  0.000  0.000  0.000  0.000  0.037
tot    0.689  0.002  0.015  0.002  0.000  0.000  0.002  0.000  0.000  0.710

band     3 # energy  -15.80905726 # occ.  1.00000000

ion      s     py     pz     px    dxy    dyz    dz2    dxz  x2-y2    tot
    1  0.000  0.004  0.000  0.000  0.001  0.002  0.000  0.000  0.000  0.007
    2  0.000  0.003  0.000  0.001  0.001  0.001  0.000  0.001  0.001  0.008
    3  0.000  0.001  0.000  0.024  0.000  0.000  0.000  0.000  0.000  0.025
    4  0.000  0.000  0.000  0.000  0.000  0.000  0.000  0.000  0.000  0.000
    5  0.003  0.000  0.000  0.000  0.000  0.000  0.000  0.000  0.000  0.003
    6  0.001  0.000  0.000  0.000  0.000  0.000  0.000  0.000  0.000  0.001
    7  0.000  0.000  0.000  0.000  0.000  0.000  0.000  0.000  0.000  0.001
    8  0.455  0.000  0.002  0.003  0.000  0.000  0.000  0.000  0.000  0.460
    9  0.197  0.001  0.001  0.000  0.000  0.000  0.000  0.000  0.000  0.199
   10  0.053  0.000  0.000  0.000  0.000  0.000  0.000  0.000  0.000  0.054
tot    0.711  0.008  0.003  0.029  0.002  0.003  0.000  0.002  0.002  0.759

band     4 # energy  -15.80902039 # occ.  1.00000000

ion      s     py     pz     px    dxy    dyz    dz2    dxz  x2-y2    tot
    1  0.000  0.000  0.000  0.004  0.000  0.000  0.000  0.002  0.001  0.007
    2  0.000  0.001  0.000  0.003  0.001  0.001  0.000  0.001  0.001  0.008
    3  0.000  0.024  0.000  0.001  0.000  0.000  0.000  0.000  0.000  0.025
    4  0.000  0.000  0.000  0.000  0.000  0.000  0.000  0.000  0.000  0.000
    5  0.000  0.000  0.000  0.000  0.000  0.000  0.000  0.000  0.000  0.000
    6  0.002  0.000  0.000  0.000  0.000  0.000  0.000  0.000  0.000  0.002
    7  0.003  0.000  0.000  0.000  0.000  0.000  0.000  0.000  0.000  0.003
    8  0.015  0.000  0.000  0.000  0.000  0.000  0.000  0.000  0.000  0.015
    9  0.274  0.001  0.001  0.000  0.000  0.000  0.000  0.000  0.000  0.276
   10  0.417  0.002  0.001  0.001  0.000  0.000  0.000  0.000  0.000  0.422
tot    0.711  0.029  0.003  0.008  0.002  0.002  0.000  0.003  0.002  0.759

band     5 # energy  -15.43752371 # occ.  1.00000000

ion      s     py     pz     px    dxy    dyz    dz2    dxz  x2-y2    tot
    1  0.000  0.003  0.000  0.001  0.001  0.003  0.000  0.001  0.001  0.010
    2  0.000  0.004  0.000  0.000  0.001  0.004  0.000  0.000  0.000  0.010
    3  0.000  0.000  0.000  0.001  0.000  0.000  0.000  0.000  0.000  0.001
    4  0.000  0.001  0.000  0.016  0.000  0.000  0.000  0.000  0.002  0.020
    5  0.465  0.000  0.001  0.002  0.000  0.000  0.000  0.000  0.000  0.468
    6  0.211  0.000  0.000  0.000  0.000  0.000  0.000  0.000  0.000  0.213
    7  0.049  0.000  0.000  0.000  0.000  0.000  0.000  0.000  0.000  0.050
    8  0.003  0.000  0.000  0.000  0.000  0.000  0.000  0.000  0.000  0.003
    9  0.001  0.000  0.000  0.000  0.000  0.000  0.000  0.000  0.000  0.001
   10  0.000  0.000  0.000  0.000  0.000  0.000  0.000  0.000  0.000  0.000
tot    0.730  0.008  0.002  0.021  0.002  0.007  0.000  0.001  0.004  0.776

band     6 # energy  -15.43748372 # occ.  1.00000000

ion      s     py     pz     px    dxy    dyz    dz2    dxz  x2-y2    tot
    1  0.000  0.001  0.000  0.003  0.001  0.001  0.000  0.003  0.001  0.010
    2  0.000  0.000  0.000  0.004  0.000  0.000  0.000  0.004  0.001  0.010
    3  0.000  0.001  0.000  0.000  0.000  0.000  0.000  0.000  0.000  0.001
    4  0.000  0.016  0.000  0.001  0.002  0.000  0.000  0.000  0.000  0.020
    5  0.019  0.000  0.000  0.000  0.000  0.000  0.000  0.000  0.000  0.019
    6  0.273  0.001  0.001  0.000  0.000  0.000  0.000  0.000  0.000  0.274
    7  0.435  0.001  0.001  0.000  0.000  0.000  0.000  0.000  0.000  0.437
    8  0.000  0.000  0.000  0.000  0.000  0.000  0.000  0.000  0.000  0.000
    9  0.001  0.000  0.000  0.000  0.000  0.000  0.000  0.000  0.000  0.002
   10  0.003  0.000  0.000  0.000  0.000  0.000  0.000  0.000  0.000  0.003
tot    0.730  0.021  0.002  0.008  0.004  0.001  0.000  0.007  0.002  0.776

band     7 # energy  -13.18405509 # occ.  1.00000000

ion      s     py     pz     px    dxy    dyz    dz2    dxz  x2-y2    tot
    1  0.012  0.000  0.001  0.000  0.000  0.000  0.000  0.000  0.000  0.014
    2  0.012  0.000  0.001  0.000  0.000  0.000  0.000  0.000  0.000  0.013
    3  0.264  0.000  0.005  0.000  0.000  0.000  0.000  0.000  0.000  0.269
    4  0.090  0.000  0.012  0.000  0.000  0.000  0.002  0.000  0.000  0.104
    5  0.007  0.000  0.000  0.004  0.000  0.000  0.000  0.000  0.000  0.011
    6  0.007  0.003  0.000  0.001  0.000  0.000  0.000  0.000  0.000  0.011
    7  0.007  0.003  0.000  0.001  0.000  0.000  0.000  0.000  0.000  0.011
    8  0.058  0.000  0.000  0.018  0.000  0.000  0.000  0.000  0.001  0.078
    9  0.058  0.014  0.000  0.004  0.001  0.000  0.000  0.000  0.000  0.078
   10  0.058  0.014  0.000  0.005  0.001  0.000  0.000  0.000  0.000  0.078
tot    0.573  0.033  0.020  0.033  0.002  0.001  0.003  0.001  0.002  0.667

band     8 # energy  -10.62120366 # occ.  1.00000000

ion      s     py     pz     px    dxy    dyz    dz2    dxz  x2-y2    tot
    1  0.000  0.000  0.006  0.000  0.000  0.000  0.000  0.000  0.000  0.006
    2  0.000  0.000  0.006  0.000  0.000  0.000  0.000  0.000  0.000  0.006
    3  0.067  0.000  0.029  0.000  0.000  0.000  0.000  0.000  0.000  0.095
    4  0.368  0.000  0.000  0.000  0.000  0.000  0.000  0.000  0.000  0.368
    5  0.020  0.000  0.000  0.026  0.000  0.000  0.000  0.000  0.002  0.048
    6  0.020  0.020  0.000  0.006  0.001  0.000  0.000  0.000  0.000  0.048
    7  0.020  0.020  0.000  0.007  0.001  0.000  0.000  0.000  0.000  0.048
    8  0.009  0.000  0.000  0.015  0.000  0.000  0.000  0.000  0.001  0.025
    9  0.009  0.011  0.000  0.004  0.001  0.000  0.000  0.000  0.000  0.025
   10  0.009  0.011  0.000  0.004  0.001  0.000  0.000  0.000  0.000  0.025
tot    0.521  0.062  0.040  0.062  0.004  0.000  0.001  0.000  0.004  0.694

band     9 # energy   -8.50048442 # occ.  1.00000000

ion      s     py     pz     px    dxy    dyz    dz2    dxz  x2-y2    tot
    1  0.000  0.000  0.000  0.005  0.000  0.010  0.000  0.012  0.002  0.029
    2  0.000  0.004  0.000  0.000  0.002  0.018  0.000  0.012  0.000  0.036
    3  0.000  0.055  0.000  0.062  0.000  0.000  0.000  0.000  0.000  0.117
    4  0.000  0.007  0.000  0.009  0.000  0.000  0.000  0.000  0.000  0.017
    5  0.003  0.002  0.002  0.010  0.000  0.000  0.000  0.000  0.000  0.017
    6  0.004  0.016  0.003  0.002  0.000  0.000  0.000  0.000  0.000  0.026
    7  0.000  0.000  0.000  0.006  0.000  0.000  0.000  0.000  0.000  0.007
    8  0.009  0.017  0.002  0.069  0.001  0.000  0.000  0.001  0.000  0.098
    9  0.016  0.105  0.003  0.016  0.000  0.001  0.000  0.000  0.000  0.142
   10  0.001  0.000  0.000  0.039  0.000  0.000  0.000  0.000  0.001  0.042
tot    0.033  0.207  0.011  0.217  0.003  0.030  0.000  0.025  0.003  0.531

band    10 # energy   -8.50046183 # occ.  1.00000000

ion      s     py     pz     px    dxy    dyz    dz2    dxz  x2-y2    tot
    1  0.000  0.005  0.000  0.000  0.002  0.012  0.000  0.010  0.000  0.029
    2  0.000  0.000  0.000  0.004  0.000  0.012  0.000  0.018  0.002  0.036
    3  0.000  0.062  0.000  0.055  0.000  0.000  0.000  0.000  0.000  0.117
    4  0.000  0.009  0.000  0.007  0.000  0.000  0.000  0.000  0.000  0.017
    5  0.002  0.003  0.002  0.009  0.000  0.000  0.000  0.000  0.000  0.016
    6  0.000  0.000  0.000  0.006  0.000  0.000  0.000  0.000  0.000  0.007
    7  0.005  0.015  0.004  0.003  0.000  0.000  0.000  0.000  0.000  0.026
    8  0.008  0.018  0.002  0.060  0.001  0.000  0.000  0.001  0.000  0.090
    9  0.001  0.000  0.000  0.043  0.000  0.000  0.000  0.000  0.001  0.046
   10  0.016  0.106  0.003  0.019  0.000  0.001  0.000  0.000  0.000  0.147
tot    0.033  0.217  0.011  0.207  0.003  0.025  0.000  0.030  0.003  0.531

band    11 # energy   -8.28132507 # occ.  1.00000000

ion      s     py     pz     px    dxy    dyz    dz2    dxz  x2-y2    tot
    1  0.036  0.000  0.000  0.000  0.000  0.000  0.010  0.000  0.000  0.046
    2  0.049  0.000  0.000  0.000  0.000  0.000  0.009  0.000  0.000  0.058
    3  0.001  0.000  0.065  0.000  0.000  0.000  0.000  0.000  0.000  0.066
    4  0.013  0.000  0.048  0.000  0.000  0.000  0.002  0.000  0.000  0.062
    5  0.002  0.000  0.035  0.006  0.000  0.000  0.000  0.000  0.000  0.045
    6  0.002  0.006  0.035  0.001  0.000  0.000  0.000  0.000  0.000  0.045
    7  0.002  0.004  0.035  0.003  0.000  0.000  0.000  0.000  0.000  0.045
    8  0.004  0.000  0.035  0.008  0.000  0.000  0.000  0.000  0.000  0.048
    9  0.004  0.005  0.035  0.003  0.000  0.000  0.000  0.000  0.000  0.048
   10  0.004  0.007  0.035  0.001  0.000  0.000  0.000  0.000  0.000  0.048
tot    0.116  0.022  0.325  0.022  0.001  0.000  0.023  0.000  0.001  0.510

band    12 # energy   -8.14197739 # occ.  1.00000000

ion      s     py     pz     px    dxy    dyz    dz2    dxz  x2-y2    tot
    1  0.089  0.000  0.002  0.000  0.000  0.000  0.015  0.000  0.000  0.106
    2  0.078  0.000  0.002  0.000  0.000  0.000  0.020  0.000  0.000  0.100
    3  0.000  0.000  0.000  0.000  0.000  0.000  0.000  0.000  0.000  0.000
    4  0.000  0.000  0.000  0.000  0.000  0.000  0.000  0.000  0.000  0.000
    5  0.000  0.085  0.000  0.000  0.000  0.001  0.000  0.000  0.000  0.086
    6  0.000  0.020  0.000  0.065  0.000  0.000  0.000  0.000  0.000  0.086
    7  0.000  0.023  0.000  0.062  0.000  0.000  0.000  0.000  0.000  0.086
    8  0.000  0.032  0.000  0.000  0.000  0.000  0.000  0.000  0.000  0.033
    9  0.000  0.009  0.000  0.023  0.000  0.000  0.000  0.000  0.000  0.033
   10  0.000  0.007  0.000  0.025  0.000  0.000  0.000  0.000  0.000  0.033
tot    0.167  0.175  0.005  0.175  0.001  0.002  0.035  0.002  0.001  0.563

band    13 # energy   -7.85043853 # occ.  1.00000000

ion      s     py     pz     px    dxy    dyz    dz2    dxz  x2-y2    tot
    1  0.000  0.014  0.000  0.000  0.004  0.011  0.000  0.004  0.004  0.038
    2  0.000  0.008  0.000  0.006  0.000  0.001  0.000  0.019  0.009  0.043
    3  0.000  0.002  0.000  0.010  0.000  0.000  0.000  0.000  0.000  0.012
    4  0.000  0.014  0.000  0.072  0.000  0.000  0.000  0.000  0.000  0.086
    5  0.001  0.006  0.005  0.124  0.000  0.000  0.000  0.000  0.000  0.137
    6  0.001  0.106  0.004  0.003  0.000  0.000  0.000  0.000  0.000  0.114
    7  0.000  0.018  0.000  0.021  0.000  0.000  0.000  0.000  0.001  0.040
    8  0.000  0.001  0.007  0.023  0.000  0.000  0.001  0.000  0.000  0.032
    9  0.000  0.020  0.005  0.001  0.000  0.000  0.000  0.000  0.000  0.027
   10  0.000  0.003  0.000  0.004  0.000  0.000  0.000  0.000  0.000  0.007
tot    0.002  0.192  0.021  0.264  0.005  0.012  0.002  0.023  0.015  0.536

band    14 # energy   -7.85041399 # occ.  1.00000000

ion      s     py     pz     px    dxy    dyz    dz2    dxz  x2-y2    tot
    1  0.000  0.000  0.000  0.014  0.004  0.004  0.000  0.011  0.004  0.038
    2  0.000  0.006  0.000  0.008  0.009  0.019  0.000  0.001  0.000  0.043
    3  0.000  0.010  0.000  0.002  0.000  0.000  0.000  0.000  0.000  0.012
    4  0.000  0.072  0.000  0.014  0.000  0.000  0.000  0.000  0.000  0.086
    5  0.000  0.032  0.001  0.023  0.001  0.000  0.000  0.000  0.000  0.057
    6  0.001  0.014  0.002  0.062  0.000  0.000  0.000  0.000  0.000  0.080
    7  0.001  0.102  0.006  0.044  0.000  0.000  0.001  0.000  0.000  0.154
    8  0.000  0.006  0.001  0.005  0.000  0.000  0.000  0.000  0.000  0.012
    9  0.000  0.003  0.003  0.011  0.000  0.000  0.000  0.000  0.000  0.017
   10  0.000  0.020  0.008  0.008  0.000  0.000  0.001  0.000  0.000  0.037
tot    0.002  0.264  0.021  0.192  0.015  0.023  0.002  0.012  0.005  0.536

band    15 # energy   -6.61508446 # occ.  1.00000000

ion      s     py     pz     px    dxy    dyz    dz2    dxz  x2-y2    tot
    1  0.004  0.000  0.039  0.000  0.000  0.000  0.000  0.000  0.000  0.043
    2  0.004  0.000  0.040  0.000  0.000  0.000  0.000  0.000  0.000  0.044
    3  0.000  0.000  0.000  0.000  0.000  0.000  0.000  0.000  0.000  0.000
    4  0.000  0.000  0.000  0.000  0.000  0.000  0.000  0.000  0.000  0.000
    5  0.000  0.047  0.000  0.000  0.000  0.000  0.000  0.000  0.000  0.047
    6  0.000  0.012  0.000  0.035  0.000  0.000  0.000  0.000  0.000  0.047
    7  0.000  0.012  0.000  0.035  0.000  0.000  0.000  0.000  0.000  0.047
    8  0.000  0.099  0.000  0.000  0.001  0.000  0.000  0.000  0.000  0.100
    9  0.000  0.025  0.000  0.074  0.000  0.000  0.000  0.000  0.000  0.100
   10  0.000  0.025  0.000  0.075  0.000  0.000  0.000  0.000  0.000  0.100
tot    0.008  0.220  0.079  0.220  0.001  0.000  0.001  0.000  0.001  0.530

band    16 # energy   -6.01685980 # occ.  1.00000000

ion      s     py     pz     px    dxy    dyz    dz2    dxz  x2-y2    tot
    1  0.000  0.001  0.000  0.000  0.000  0.001  0.000  0.025  0.022  0.049
    2  0.000  0.000  0.000  0.000  0.006  0.001  0.000  0.298  0.247  0.552
    3  0.000  0.001  0.000  0.000  0.000  0.000  0.000  0.000  0.000  0.001
    4  0.000  0.000  0.000  0.000  0.000  0.000  0.000  0.000  0.001  0.001
    5  0.001  0.000  0.022  0.002  0.000  0.000  0.000  0.000  0.000  0.025
    6  0.000  0.003  0.001  0.017  0.000  0.000  0.000  0.001  0.000  0.023
    7  0.002  0.003  0.034  0.020  0.000  0.000  0.000  0.001  0.000  0.060
    8  0.001  0.002  0.022  0.005  0.000  0.000  0.000  0.000  0.000  0.030
    9  0.002  0.003  0.030  0.027  0.000  0.000  0.000  0.001  0.000  0.063
   10  0.000  0.001  0.001  0.015  0.000  0.000  0.000  0.000  0.000  0.017
tot    0.007  0.015  0.109  0.085  0.006  0.002  0.000  0.325  0.270  0.821

band    17 # energy   -6.01684869 # occ.  1.00000000

ion      s     py     pz     px    dxy    dyz    dz2    dxz  x2-y2    tot
    1  0.000  0.000  0.000  0.001  0.022  0.025  0.000  0.001  0.000  0.049
    2  0.000  0.000  0.000  0.000  0.247  0.298  0.000  0.001  0.006  0.552
    3  0.000  0.000  0.000  0.001  0.000  0.000  0.000  0.000  0.000  0.001
    4  0.000  0.000  0.000  0.000  0.001  0.000  0.000  0.000  0.000  0.001
    5  0.001  0.028  0.016  0.000  0.000  0.001  0.000  0.000  0.000  0.046
    6  0.002  0.006  0.037  0.004  0.000  0.000  0.000  0.000  0.000  0.049
    7  0.000  0.004  0.004  0.003  0.000  0.000  0.000  0.000  0.000  0.012
    8  0.001  0.028  0.013  0.000  0.000  0.001  0.000  0.000  0.000  0.044
    9  0.000  0.005  0.005  0.000  0.000  0.000  0.000  0.000  0.000  0.011
   10  0.002  0.013  0.034  0.006  0.000  0.000  0.000  0.000  0.000  0.057
tot    0.007  0.085  0.109  0.015  0.270  0.325  0.000  0.002  0.006  0.821

band    18 # energy   -5.52329966 # occ.  1.00000000

ion      s     py     pz     px    dxy    dyz    dz2    dxz  x2-y2    tot
    1  0.000  0.000  0.000  0.000  0.170  0.182  0.000  0.026  0.030  0.409
    2  0.000  0.000  0.000  0.003  0.009  0.025  0.000  0.002  0.001  0.040
    3  0.000  0.001  0.000  0.002  0.000  0.000  0.000  0.000  0.000  0.003
    4  0.000  0.000  0.000  0.000  0.000  0.000  0.000  0.001  0.000  0.002
    5  0.003  0.013  0.059  0.001  0.000  0.000  0.000  0.000  0.000  0.076
    6  0.000  0.000  0.007  0.003  0.000  0.000  0.000  0.000  0.000  0.011
    7  0.001  0.002  0.025  0.003  0.000  0.000  0.000  0.000  0.000  0.031
    8  0.003  0.004  0.053  0.000  0.000  0.000  0.000  0.000  0.000  0.061
    9  0.005  0.009  0.090  0.007  0.000  0.000  0.000  0.000  0.000  0.111
   10  0.000  0.000  0.005  0.004  0.000  0.000  0.000  0.000  0.000  0.009
tot    0.012  0.028  0.239  0.022  0.179  0.208  0.000  0.030  0.032  0.751

band    19 # energy   -5.52328939 # occ.  1.00000000

ion      s     py     pz     px    dxy    dyz    dz2    dxz  x2-y2    tot
    1  0.000  0.000  0.000  0.000  0.030  0.026  0.000  0.182  0.170  0.409
    2  0.000  0.003  0.000  0.000  0.001  0.002  0.000  0.025  0.009  0.040
    3  0.000  0.002  0.000  0.001  0.000  0.000  0.000  0.000  0.000  0.003
    4  0.000  0.000  0.000  0.000  0.000  0.001  0.000  0.000  0.000  0.002
    5  0.000  0.000  0.002  0.000  0.000  0.000  0.000  0.000  0.000  0.002
    6  0.002  0.001  0.053  0.010  0.000  0.000  0.000  0.000  0.000  0.067
    7  0.002  0.006  0.035  0.004  0.000  0.000  0.000  0.000  0.000  0.047
    8  0.002  0.011  0.046  0.001  0.000  0.000  0.000  0.000  0.000  0.060
    9  0.001  0.000  0.009  0.000  0.000  0.000  0.000  0.000  0.000  0.009
   10  0.005  0.000  0.094  0.012  0.000  0.000  0.000  0.000  0.000  0.111
tot    0.012  0.022  0.239  0.028  0.032  0.030  0.000  0.208  0.179  0.751

band    20 # energy   -5.36299491 # occ.  1.00000000

ion      s     py     pz     px    dxy    dyz    dz2    dxz  x2-y2    tot
    1  0.002  0.000  0.001  0.000  0.000  0.000  0.124  0.000  0.000  0.127
    2  0.004  0.000  0.001  0.000  0.000  0.000  0.232  0.000  0.000  0.237
    3  0.011  0.000  0.104  0.000  0.000  0.000  0.000  0.000  0.000  0.115
    4  0.003  0.000  0.047  0.000  0.000  0.000  0.007  0.000  0.000  0.056
    5  0.000  0.000  0.024  0.011  0.000  0.000  0.000  0.000  0.000  0.036
    6  0.000  0.008  0.024  0.003  0.000  0.000  0.000  0.000  0.000  0.036
    7  0.000  0.009  0.024  0.002  0.000  0.000  0.000  0.000  0.000  0.036
    8  0.000  0.000  0.001  0.013  0.000  0.000  0.000  0.001  0.000  0.016
    9  0.000  0.010  0.001  0.003  0.000  0.001  0.000  0.000  0.000  0.016
   10  0.000  0.010  0.001  0.004  0.000  0.001  0.000  0.000  0.000  0.016
tot    0.021  0.036  0.229  0.036  0.001  0.002  0.363  0.002  0.001  0.691

band    21 # energy   -4.95275000 # occ.  1.00000000

ion      s     py     pz     px    dxy    dyz    dz2    dxz  x2-y2    tot
    1  0.000  0.010  0.000  0.002  0.023  0.002  0.000  0.061  0.001  0.099
    2  0.000  0.011  0.000  0.000  0.038  0.015  0.000  0.060  0.011  0.135
    3  0.000  0.001  0.000  0.030  0.000  0.000  0.000  0.000  0.000  0.031
    4  0.000  0.001  0.000  0.009  0.000  0.000  0.000  0.000  0.001  0.011
    5  0.004  0.000  0.095  0.019  0.000  0.000  0.000  0.000  0.000  0.118
    6  0.002  0.005  0.029  0.008  0.000  0.000  0.000  0.000  0.000  0.045
    7  0.000  0.000  0.019  0.003  0.000  0.000  0.000  0.000  0.000  0.023
    8  0.006  0.003  0.066  0.026  0.000  0.000  0.000  0.000  0.002  0.103
    9  0.003  0.001  0.038  0.023  0.001  0.000  0.000  0.000  0.000  0.066
   10  0.001  0.001  0.004  0.032  0.000  0.000  0.000  0.000  0.000  0.039
tot    0.015  0.035  0.251  0.152  0.062  0.017  0.000  0.123  0.016  0.670

band    22 # energy   -4.95273864 # occ.  1.00000000

ion      s     py     pz     px    dxy    dyz    dz2    dxz  x2-y2    tot
    1  0.000  0.002  0.000  0.010  0.001  0.061  0.000  0.002  0.023  0.099
    2  0.000  0.000  0.000  0.011  0.011  0.060  0.000  0.015  0.038  0.135
    3  0.000  0.030  0.000  0.001  0.000  0.000  0.000  0.000  0.000  0.031
    4  0.000  0.009  0.000  0.001  0.001  0.000  0.000  0.000  0.000  0.011
    5  0.000  0.003  0.000  0.002  0.000  0.001  0.000  0.000  0.000  0.006
    6  0.002  0.010  0.066  0.000  0.000  0.000  0.000  0.000  0.000  0.079
    7  0.003  0.018  0.076  0.003  0.000  0.000  0.000  0.000  0.000  0.101
    8  0.000  0.028  0.006  0.001  0.000  0.001  0.000  0.000  0.000  0.036
    9  0.003  0.031  0.034  0.003  0.001  0.000  0.000  0.000  0.000  0.072
   10  0.005  0.022  0.068  0.002  0.002  0.000  0.000  0.000  0.000  0.100
tot    0.015  0.152  0.251  0.035  0.016  0.123  0.000  0.017  0.062  0.670

band    23 # energy   -4.84069216 # occ.  1.00000000

ion      s     py     pz     px    dxy    dyz    dz2    dxz  x2-y2    tot
    1  0.000  0.000  0.011  0.000  0.000  0.000  0.009  0.000  0.000  0.020
    2  0.000  0.000  0.009  0.000  0.000  0.000  0.045  0.000  0.000  0.054
    3  0.000  0.000  0.001  0.000  0.000  0.000  0.000  0.000  0.000  0.001
    4  0.002  0.000  0.028  0.000  0.000  0.000  0.000  0.000  0.000  0.031
    5  0.000  0.000  0.068  0.000  0.000  0.000  0.000  0.000  0.000  0.068
    6  0.000  0.000  0.068  0.000  0.000  0.000  0.000  0.000  0.000  0.068
    7  0.000  0.000  0.068  0.000  0.000  0.000  0.000  0.000  0.000  0.068
    8  0.000  0.000  0.073  0.000  0.000  0.000  0.000  0.000  0.000  0.074
    9  0.000  0.000  0.073  0.000  0.000  0.000  0.000  0.000  0.000  0.074
   10  0.000  0.000  0.073  0.000  0.000  0.000  0.000  0.000  0.000  0.074
tot    0.005  0.000  0.473  0.000  0.000  0.000  0.054  0.000  0.000  0.533

band    24 # energy   -4.53768492 # occ.  1.00000000

ion      s     py     pz     px    dxy    dyz    dz2    dxz  x2-y2    tot
    1  0.000  0.000  0.000  0.005  0.011  0.007  0.000  0.000  0.001  0.023
    2  0.000  0.001  0.000  0.004  0.459  0.283  0.000  0.007  0.001  0.755
    3  0.000  0.000  0.000  0.001  0.000  0.000  0.000  0.000  0.000  0.001
    4  0.000  0.001  0.000  0.006  0.000  0.000  0.000  0.000  0.000  0.007
    5  0.001  0.000  0.006  0.005  0.001  0.000  0.000  0.000  0.000  0.014
    6  0.001  0.001  0.022  0.000  0.000  0.000  0.000  0.000  0.000  0.024
    7  0.000  0.001  0.005  0.001  0.001  0.000  0.000  0.000  0.000  0.007
    8  0.000  0.011  0.001  0.000  0.001  0.000  0.000  0.000  0.000  0.013
    9  0.000  0.001  0.014  0.000  0.000  0.000  0.000  0.000  0.000  0.016
   10  0.001  0.004  0.009  0.003  0.000  0.000  0.000  0.000  0.000  0.016
tot    0.003  0.021  0.056  0.025  0.472  0.291  0.000  0.007  0.002  0.877

band    25 # energy   -4.53767863 # occ.  1.00000000

ion      s     py     pz     px    dxy    dyz    dz2    dxz  x2-y2    tot
    1  0.000  0.005  0.000  0.000  0.001  0.000  0.000  0.007  0.011  0.023
    2  0.000  0.004  0.000  0.001  0.001  0.007  0.000  0.283  0.459  0.755
    3  0.000  0.001  0.000  0.000  0.000  0.000  0.000  0.000  0.000  0.001
    4  0.000  0.006  0.000  0.001  0.000  0.000  0.000  0.000  0.000  0.007
    5  0.000  0.000  0.016  0.000  0.000  0.000  0.000  0.000  0.000  0.016
    6  0.000  0.004  0.000  0.000  0.000  0.000  0.000  0.000  0.001  0.006
    7  0.001  0.002  0.017  0.002  0.000  0.000  0.000  0.000  0.000  0.023
    8  0.000  0.001  0.015  0.001  0.000  0.000  0.000  0.000  0.000  0.017
    9  0.000  0.001  0.002  0.010  0.000  0.000  0.000  0.000  0.000  0.014
   10  0.000  0.001  0.007  0.005  0.000  0.000  0.000  0.000  0.001  0.014
tot    0.003  0.025  0.056  0.021  0.002  0.007  0.000  0.291  0.472  0.877

band    26 # energy   -4.38261538 # occ.  1.00000000

ion      s     py     pz     px    dxy    dyz    dz2    dxz  x2-y2    tot
    1  0.020  0.000  0.000  0.000  0.000  0.000  0.250  0.000  0.000  0.270
    2  0.002  0.000  0.000  0.000  0.000  0.000  0.564  0.000  0.000  0.566
    3  0.000  0.000  0.012  0.000  0.000  0.000  0.000  0.000  0.000  0.012
    4  0.001  0.000  0.012  0.000  0.000  0.000  0.001  0.000  0.000  0.013
    5  0.000  0.002  0.001  0.001  0.000  0.000  0.000  0.000  0.000  0.004
    6  0.000  0.002  0.001  0.000  0.000  0.000  0.000  0.000  0.000  0.004
    7  0.000  0.000  0.001  0.002  0.000  0.000  0.000  0.000  0.000  0.004
    8  0.000  0.001  0.007  0.001  0.000  0.000  0.000  0.000  0.000  0.010
    9  0.000  0.000  0.007  0.002  0.000  0.000  0.000  0.000  0.000  0.010
   10  0.000  0.002  0.007  0.000  0.000  0.000  0.000  0.000  0.000  0.010
tot    0.024  0.007  0.047  0.007  0.000  0.001  0.815  0.001  0.000  0.903

band    27 # energy   -4.19782814 # occ.  1.00000000

ion      s     py     pz     px    dxy    dyz    dz2    dxz  x2-y2    tot
    1  0.000  0.000  0.000  0.001  0.330  0.152  0.000  0.174  0.164  0.820
    2  0.000  0.000  0.000  0.001  0.016  0.009  0.000  0.000  0.005  0.032
    3  0.000  0.003  0.000  0.002  0.000  0.000  0.000  0.000  0.000  0.004
    4  0.000  0.001  0.000  0.012  0.000  0.000  0.000  0.000  0.000  0.013
    5  0.001  0.000  0.001  0.007  0.000  0.000  0.000  0.000  0.000  0.011
    6  0.000  0.000  0.005  0.000  0.000  0.000  0.000  0.000  0.000  0.005
    7  0.001  0.004  0.011  0.001  0.000  0.000  0.000  0.000  0.000  0.018
    8  0.001  0.002  0.001  0.001  0.000  0.000  0.000  0.000  0.000  0.005
    9  0.000  0.000  0.002  0.000  0.000  0.000  0.000  0.000  0.000  0.002
   10  0.000  0.000  0.000  0.002  0.001  0.000  0.000  0.000  0.000  0.004
tot    0.004  0.010  0.020  0.028  0.348  0.161  0.001  0.174  0.170  0.915

band    28 # energy   -4.19782253 # occ.  1.00000000

ion      s     py     pz     px    dxy    dyz    dz2    dxz  x2-y2    tot
    1  0.000  0.001  0.000  0.000  0.164  0.174  0.000  0.152  0.330  0.820
    2  0.000  0.001  0.000  0.000  0.005  0.000  0.000  0.009  0.016  0.032
    3  0.000  0.002  0.000  0.003  0.000  0.000  0.000  0.000  0.000  0.004
    4  0.000  0.012  0.000  0.001  0.000  0.000  0.000  0.000  0.000  0.013
    5  0.001  0.000  0.010  0.001  0.000  0.000  0.000  0.000  0.000  0.012
    6  0.002  0.006  0.007  0.002  0.001  0.000  0.000  0.000  0.000  0.018
    7  0.000  0.003  0.000  0.000  0.000  0.000  0.000  0.000  0.000  0.005
    8  0.000  0.001  0.001  0.000  0.000  0.000  0.000  0.000  0.000  0.002
    9  0.001  0.002  0.000  0.002  0.000  0.000  0.000  0.000  0.000  0.005
   10  0.000  0.000  0.002  0.001  0.000  0.000  0.000  0.000  0.000  0.003
tot    0.004  0.028  0.020  0.010  0.170  0.174  0.001  0.161  0.348  0.915

band    29 # energy   -4.00946843 # occ.  1.00000000

ion      s     py     pz     px    dxy    dyz    dz2    dxz  x2-y2    tot
    1  0.007  0.000  0.000  0.000  0.000  0.000  0.515  0.000  0.000  0.522
    2  0.023  0.000  0.000  0.000  0.000  0.000  0.061  0.000  0.000  0.083
    3  0.000  0.000  0.048  0.000  0.000  0.000  0.000  0.000  0.000  0.048
    4  0.007  0.000  0.037  0.000  0.000  0.000  0.002  0.000  0.000  0.047
    5  0.002  0.000  0.008  0.001  0.000  0.000  0.000  0.000  0.000  0.013
    6  0.002  0.001  0.008  0.001  0.000  0.000  0.000  0.000  0.000  0.013
    7  0.002  0.002  0.008  0.000  0.000  0.000  0.000  0.000  0.000  0.013
    8  0.001  0.000  0.020  0.002  0.000  0.000  0.001  0.000  0.000  0.024
    9  0.001  0.002  0.020  0.000  0.000  0.000  0.001  0.000  0.000  0.024
   10  0.001  0.001  0.020  0.001  0.000  0.000  0.001  0.000  0.000  0.024
tot    0.048  0.005  0.170  0.005  0.000  0.001  0.581  0.001  0.000  0.812

band    30 # energy   -3.53494207 # occ.  1.00000000

ion      s     py     pz     px    dxy    dyz    dz2    dxz  x2-y2    tot
    1  0.000  0.001  0.000  0.022  0.009  0.003  0.000  0.001  0.018  0.055
    2  0.000  0.005  0.000  0.017  0.026  0.006  0.000  0.000  0.001  0.055
    3  0.000  0.001  0.000  0.007  0.000  0.000  0.000  0.000  0.000  0.008
    4  0.000  0.002  0.000  0.014  0.000  0.000  0.000  0.000  0.004  0.020
    5  0.002  0.010  0.005  0.038  0.000  0.000  0.000  0.000  0.001  0.057
    6  0.000  0.014  0.001  0.088  0.000  0.000  0.000  0.001  0.000  0.105
    7  0.001  0.001  0.001  0.068  0.000  0.000  0.000  0.000  0.000  0.072
    8  0.001  0.020  0.037  0.041  0.000  0.000  0.000  0.000  0.001  0.101
    9  0.000  0.020  0.002  0.099  0.000  0.000  0.000  0.000  0.000  0.121
   10  0.001  0.002  0.023  0.067  0.001  0.000  0.000  0.000  0.000  0.095
tot    0.006  0.076  0.069  0.461  0.037  0.011  0.001  0.003  0.026  0.689

band    31 # energy   -3.53491380 # occ.  1.00000000

ion      s     py     pz     px    dxy    dyz    dz2    dxz  x2-y2    tot
    1  0.000  0.022  0.000  0.001  0.018  0.001  0.000  0.003  0.009  0.055
    2  0.000  0.017  0.000  0.005  0.001  0.000  0.000  0.006  0.026  0.055
    3  0.000  0.007  0.000  0.001  0.000  0.000  0.000  0.000  0.000  0.008
    4  0.000  0.014  0.000  0.002  0.004  0.000  0.000  0.000  0.000  0.020
    5  0.000  0.094  0.000  0.004  0.000  0.001  0.000  0.000  0.000  0.099
    6  0.002  0.042  0.004  0.002  0.001  0.000  0.000  0.000  0.000  0.051
    7  0.001  0.057  0.004  0.020  0.000  0.000  0.000  0.001  0.000  0.083
    8  0.000  0.099  0.004  0.006  0.000  0.000  0.000  0.000  0.000  0.110
    9  0.002  0.042  0.039  0.006  0.001  0.000  0.000  0.000  0.000  0.090