<?xml version="1.0" encoding="ISO-8859-1"?>
<modeling>
 <generator>
  <i name="program" type="string">vasp </i>
  <i name="version" type="string">5.4.4.18Apr17-6-g9f103f2a35  </i>
  <i name="subversion" type="string">(build May  1 2020 15:48:39) complex            parallel </i>
  <i name="platform" type="string">LinuxGNU </i>
  <i name="date" type="string">2020 06 18 </i>
  <i name="time" type="string">23:35:06 </i>
 </generator>
 <incar>
  <i type="int" name="ISTART">     1</i>
  <i type="string" name="PREC">accurate</i>
  <i type="string" name="ALGO"> Normal</i>
  <i type="int" name="ISPIN">     2</i>
  <i name="AMIN">      0.01000000</i>
  <i type="int" name="NELM">   400</i>
  <i type="int" name="IBRION">     2</i>
  <i name="EDIFF">      0.00010000</i>
  <i type="int" name="NSW">    99</i>
  <i type="int" name="ISIF">     3</i>
  <i name="ENCUT">    520.00000000</i>
  <v name="MAGMOM">      1.26000000      1.26000000      0.60000000      0.60000000      0.60000000      0.60000000      0.60000000      0.60000000      0.60000000      0.60000000</v>
  <i type="string" name="LREAL"> Auto</i>
  <i type="int" name="ISMEAR">    -5</i>
  <i name="SIGMA">      0.05000000</i>
  <i type="logical" name="LWAVE"> F  </i>
  <i type="int" name="LORBIT">    11</i>
  <v type="int" name="KPOINT_BSE">    -1     0     0     0</v>
  <i type="int" name="NELM">   400</i>
  <i type="string" name="GGA"> Bo</i>
  <i name="PARAM1">      0.18333333</i>
  <i name="PARAM2">      0.22000000</i>
  <i type="logical" name="LUSE_VDW"> T  </i>
  <i name="AGGAC">      0.00000000</i>
 </incar>
 <structure name="primitive_cell" >
  <crystal>
   <varray name="basis" >
    <v>       6.90777700      -0.00000000       0.00000000 </v>
    <v>       3.45388800       5.98231000       0.00000000 </v>
    <v>       0.00000000       0.00000000      23.44458800 </v>
   </varray>
   <i name="volume">    968.83501932 </i>
   <varray name="rec_basis" >
    <v>       0.14476437      -0.08357974       0.00000000 </v>
    <v>       0.00000000       0.16715951      -0.00000000 </v>
    <v>      -0.00000000       0.00000000       0.04265377 </v>
   </varray>
  </crystal>
  <varray name="positions" >
   <v>       0.33333300       0.33333300       0.49992500 </v>
   <v>       0.00042000       0.37322400      -0.42624800 </v>
   <v>      -0.37364300       0.00042000      -0.42624800 </v>
   <v>       0.37322400      -0.37364300      -0.42624800 </v>
   <v>       0.37364300      -0.00042000       0.42624800 </v>
   <v>      -0.37322400       0.37364300       0.42624800 </v>
   <v>      -0.00042000      -0.37322400       0.42624800 </v>
   <v>      -0.33333300      -0.33333300      -0.49992500 </v>
   <v>       0.00000000       0.00000000       0.44821600 </v>
   <v>       0.00000000       0.00000000      -0.44821600 </v>
  </varray>
 </structure>
 <varray name="primitive_index" >
  <v type="int" >        1 </v>
  <v type="int" >        6 </v>
  <v type="int" >        5 </v>
  <v type="int" >        7 </v>
  <v type="int" >        8 </v>
  <v type="int" >       10 </v>
  <v type="int" >        9 </v>
  <v type="int" >        2 </v>
  <v type="int" >        3 </v>
  <v type="int" >        4 </v>
 </varray>
 <kpoints>
  <generation param="Gamma">
   <v type="int" name="divisions">       5        5        1 </v>
   <v name="usershift">      0.00000000       0.00000000       0.00000000 </v>
   <v name="genvec1">      0.20000000       0.00000000       0.00000000 </v>
   <v name="genvec2">      0.00000000       0.20000000       0.00000000 </v>
   <v name="genvec3">      0.00000000       0.00000000       1.00000000 </v>
   <v name="shift">      0.00000000       0.00000000       0.00000000 </v>
  </generation>
  <varray name="kpointlist" >
   <v>       0.00000000       0.00000000       0.00000000 </v>
   <v>       0.20000000       0.00000000       0.00000000 </v>
   <v>       0.40000000       0.00000000       0.00000000 </v>
   <v>       0.40000000       0.20000000       0.00000000 </v>
   <v>      -0.40000000       0.20000000       0.00000000 </v>
  </varray>
  <varray name="weights" >
   <v>       0.04000000 </v>
   <v>       0.24000000 </v>
   <v>       0.24000000 </v>
   <v>       0.24000000 </v>
   <v>       0.24000000 </v>
  </varray>
  <varray name="tetrahedronlist"  type="int" >
   <v type="int" >        6        1        1        2        2 </v>
   <v type="int" >       12        1        2        2        2 </v>
   <v type="int" >       12        2        2        3        4 </v>
   <v type="int" >       12        2        2        2        4 </v>
   <v type="int" >       12        2        3        3        4 </v>
   <v type="int" >       12        2        3        4        4 </v>
   <v type="int" >        6        2        2        4        4 </v>
   <v type="int" >       12        3        3        3        5 </v>
   <v type="int" >       12        3        3        4        5 </v>
   <v type="int" >       12        3        4        4        5 </v>
   <v type="int" >        6        3        3        5        5 </v>
   <v type="int" >       12        3        4        5        5 </v>
   <v type="int" >        6        4        4        5        5 </v>
   <v type="int" >       12        4        5        5        5 </v>
   <v type="int" >        6        5        5        5        5 </v>
  </varray>
  <i name="volumeweight">      0.00666667 </i>
 </kpoints>
 <parameters>
  <separator name="general" >
   <i type="string" name="SYSTEM">unknown system</i>
   <i type="logical" name="LCOMPAT"> F  </i>
  </separator>
  <separator name="electronic" >
   <i type="string" name="PREC">accura</i>
   <i name="ENMAX">    520.00000000</i>
   <i name="ENAUG">    544.56500000</i>
   <i name="EDIFF">      0.00010000</i>
   <i type="int" name="IALGO">    38</i>
   <i type="int" name="IWAVPR">    11</i>
   <i type="int" name="NBANDS">    48</i>
   <i name="NELECT">     65.00000000</i>
   <i type="int" name="TURBO">     0</i>
   <i type="int" name="IRESTART">     0</i>
   <i type="int" name="NREBOOT">     0</i>
   <i type="int" name="NMIN">     0</i>
   <i name="EREF">      0.00000000</i>
   <separator name="electronic smearing" >
    <i type="int" name="ISMEAR">    -5</i>
    <i name="SIGMA">      0.05000000</i>
    <i name="KSPACING">      0.50000000</i>
    <i type="logical" name="KGAMMA"> T  </i>
   </separator>
   <separator name="electronic projectors" >
    <i type="logical" name="LREAL"> T  </i>
    <v name="ROPT">     -0.00025000     -0.00025000     -0.00025000     -0.00025000</v>
    <i type="int" name="LMAXPAW">  -100</i>
    <i type="int" name="LMAXMIX">     2</i>
    <i type="logical" name="NLSPLINE"> F  </i>
   </separator>
   <separator name="electronic startup" >
    <i type="int" name="ISTART">     0</i>
    <i type="int" name="ICHARG">     2</i>
    <i type="int" name="INIWAV">     1</i>
   </separator>
   <separator name="electronic spin" >
    <i type="int" name="ISPIN">     2</i>
    <i type="logical" name="LNONCOLLINEAR"> F  </i>
    <v name="MAGMOM">      1.26000000      1.26000000      0.60000000      0.60000000      0.60000000      0.60000000      0.60000000      0.60000000      0.60000000      0.60000000</v>
    <i name="NUPDOWN">     -1.00000000</i>
    <i type="logical" name="LSORBIT"> F  </i>
    <v name="SAXIS">      0.00000000      0.00000000      1.00000000</v>
    <i type="logical" name="LSPIRAL"> F  </i>
    <v name="QSPIRAL">      0.00000000      0.00000000      0.00000000</v>
    <i type="logical" name="LZEROZ"> F  </i>
   </separator>
   <separator name="electronic exchange-correlation" >
    <i type="logical" name="LASPH"> F  </i>
    <i type="logical" name="LMETAGGA"> F  </i>
   </separator>
   <separator name="electronic convergence" >
    <i type="int" name="NELM">   400</i>
    <i type="int" name="NELMDL">     0</i>
    <i type="int" name="NELMIN">     2</i>
    <i name="ENINI">    520.00000000</i>
    <separator name="electronic convergence detail" >
     <i type="logical" name="LDIAG"> T  </i>
     <i type="logical" name="LSUBROT"> F  </i>
     <i name="WEIMIN">      0.00100000</i>
     <i name="EBREAK">      0.00000052</i>
     <i name="DEPER">      0.30000000</i>
     <i type="int" name="NRMM">     4</i>
     <i name="TIME">      0.40000000</i>
    </separator>
   </separator>
   <separator name="electronic mixer" >
    <i name="AMIX">      0.40000000</i>
    <i name="BMIX">      1.00000000</i>
    <i name="AMIN">      0.01000000</i>
    <i name="AMIX_MAG">      1.60000000</i>
    <i name="BMIX_MAG">      1.00000000</i>
    <separator name="electronic mixer details" >
     <i type="int" name="IMIX">     4</i>
     <i type="logical" name="MIXFIRST"> F  </i>
     <i type="int" name="MAXMIX">   -45</i>
     <i name="WC">    100.00000000</i>
     <i type="int" name="INIMIX">     1</i>
     <i type="int" name="MIXPRE">     1</i>
     <i type="int" name="MREMOVE">     5</i>
    </separator>
   </separator>
   <separator name="electronic dipolcorrection" >
    <i type="logical" name="LDIPOL"> F  </i>
    <i type="logical" name="LMONO"> F  </i>
    <i type="int" name="IDIPOL">     0</i>
    <i name="EPSILON">      1.00000000</i>
    <v name="DIPOL">   -100.00000000   -100.00000000   -100.00000000</v>
    <i name="EFIELD">      0.00000000</i>
   </separator>
  </separator>
  <separator name="grids" >
   <i type="int" name="NGX">    54</i>
   <i type="int" name="NGY">    54</i>
   <i type="int" name="NGZ">   180</i>
   <i type="int" name="NGXF">   108</i>
   <i type="int" name="NGYF">   108</i>
   <i type="int" name="NGZF">   360</i>
   <i type="logical" name="ADDGRID"> F  </i>
  </separator>
  <separator name="ionic" >
   <i type="int" name="NSW">    99</i>
   <i type="int" name="IBRION">     2</i>
   <i type="int" name="MDALGO">     0</i>
   <i type="int" name="ISIF">     3</i>
   <i name="PSTRESS">      0.00000000</i>
   <i name="EDIFFG">      0.00100000</i>
   <i type="int" name="NFREE">     1</i>
   <i name="POTIM">      0.50000000</i>
   <i name="SMASS">     -3.00000000</i>
   <i name="SCALEE">      1.00000000</i>
  </separator>
  <separator name="ionic md" >
   <i name="TEBEG">      0.00010000</i>
   <i name="TEEND">      0.00010000</i>
   <i type="int" name="NBLOCK">     1</i>
   <i type="int" name="KBLOCK">    99</i>
   <i type="int" name="NPACO">   256</i>
   <i name="APACO">     16.00000000</i>
  </separator>
  <separator name="symmetry" >
   <i type="int" name="ISYM">     2</i>
   <i name="SYMPREC">      0.00001000</i>
  </separator>
  <separator name="dos" >
   <i type="int" name="LORBIT">    11</i>
   <v name="RWIGS">     -1.00000000     -1.00000000     -1.00000000     -1.00000000</v>
   <i type="int" name="NEDOS">   301</i>
   <i name="EMIN">     10.00000000</i>
   <i name="EMAX">    -10.00000000</i>
   <i name="EFERMI">      0.00000000</i>
  </separator>
  <separator name="writing" >
   <i type="int" name="NWRITE">     2</i>
   <i type="logical" name="LWAVE"> F  </i>
   <i type="logical" name="LDOWNSAMPLE"> F  </i>
   <i type="logical" name="LCHARG"> T  </i>
   <i type="logical" name="LPARD"> F  </i>
   <i type="logical" name="LVTOT"> F  </i>
   <i type="logical" name="LVHAR"> F  </i>
   <i type="logical" name="LELF"> F  </i>
   <i type="logical" name="LOPTICS"> F  </i>
   <v name="STM">      0.00000000      0.00000000      0.00000000      0.00000000      0.00000000      0.00000000      0.00000000</v>
  </separator>
  <separator name="performance" >
   <i type="int" name="NPAR">    16</i>
   <i type="int" name="NSIM">     4</i>
   <i type="int" name="NBLK">    -1</i>
   <i type="logical" name="LPLANE"> T  </i>
   <i type="logical" name="LSCALAPACK"> T  </i>
   <i type="logical" name="LSCAAWARE"> F  </i>
   <i type="logical" name="LSCALU"> F  </i>
   <i type="logical" name="LASYNC"> F  </i>
   <i type="logical" name="LORBITALREAL"> F  </i>
  </separator>
  <separator name="miscellaneous" >
   <i type="int" name="IDIOT">     3</i>
   <i type="int" name="ISPECIAL">     0</i>
   <i type="logical" name="LMUSIC"> F  </i>
   <v name="POMASS">     58.69000000     30.97400000     72.61000000     78.96000000</v>
   <v name="DARWINR">      0.00000000      0.00000000      0.00000000      0.00000000</v>
   <v name="DARWINV">      1.00000000      1.00000000      1.00000000      1.00000000</v>
   <i type="logical" name="LCORR"> T  </i>
  </separator>
  <i type="logical" name="GGA_COMPAT"> T  </i>
  <i type="logical" name="LBERRY"> F  </i>
  <i type="int" name="ICORELEVEL">     0</i>
  <i type="logical" name="LDAU"> F  </i>
  <i type="int" name="I_CONSTRAINED_M">     0</i>
  <separator name="electronic exchange-correlation" >
   <i type="string" name="GGA">BO</i>
   <i type="int" name="VOSKOWN">     0</i>
   <i type="logical" name="LHFCALC"> F  </i>
   <i type="string" name="PRECFOCK"></i>
   <i type="logical" name="LSYMGRAD"> F  </i>
   <i type="logical" name="LHFONE"> F  </i>
   <i type="logical" name="LRHFCALC"> F  </i>
   <i type="logical" name="LTHOMAS"> F  </i>
   <i type="logical" name="LMODELHF"> F  </i>
   <i name="ENCUT4O">     -1.00000000</i>
   <i type="int" name="EXXOEP">     0</i>
   <i type="int" name="FOURORBIT">     0</i>
   <i name="AEXX">      0.00000000</i>
   <i name="HFALPHA">      0.00000000</i>
   <i name="MCALPHA">      0.00000000</i>
   <i name="ALDAX">      1.00000000</i>
   <i name="AGGAX">      1.00000000</i>
   <i name="ALDAC">      1.00000000</i>
   <i name="AGGAC">      0.00000000</i>
   <i type="int" name="NKREDX">     1</i>
   <i type="int" name="NKREDY">     1</i>
   <i type="int" name="NKREDZ">     1</i>
   <i type="logical" name="SHIFTRED"> F  </i>
   <i type="logical" name="ODDONLY"> F  </i>
   <i type="logical" name="EVENONLY"> F  </i>
   <i type="int" name="LMAXFOCK">     0</i>
   <i type="int" name="NMAXFOCKAE">     0</i>
   <i type="logical" name="LFOCKAEDFT"> F  </i>
   <i name="HFSCREEN">      0.00000000</i>
   <i name="HFSCREENC">      0.00000000</i>
   <i type="int" name="NBANDSGWLOW">     0</i>
  </separator>
  <separator name="vdW DFT" >
   <i type="logical" name="LUSE_VDW"> T  </i>
   <i name="Zab_VDW">     -0.84910000</i>
   <i name="PARAM1">      0.18333333</i>
   <i name="PARAM2">      0.22000000</i>
   <i name="PARAM3">      0.00000000</i>
  </separator>
  <separator name="model GW" >
   <i type="int" name="MODEL_GW">     0</i>
   <i name="MODEL_EPS0">     58.13010116</i>
   <i name="MODEL_ALPHA">      1.00000000</i>
  </separator>
  <separator name="linear response parameters" >
   <i type="logical" name="LEPSILON"> F  </i>
   <i type="logical" name="LRPA"> F  </i>
   <i type="logical" name="LNABLA"> F  </i>
   <i type="logical" name="LVEL"> F  </i>
   <i type="int" name="KINTER">     0</i>
   <i name="CSHIFT">      0.10000000</i>
   <i name="OMEGAMAX">     -1.00000000</i>
   <i name="DEG_THRESHOLD">      0.00200000</i>
   <i name="RTIME">     -0.10000000</i>
   <i name="WPLASMAI">      0.00000000</i>
   <v name="DFIELD">      0.00000000      0.00000000      0.00000000</v>
   <v name="WPLASMA">      0.00000000      0.00000000      0.00000000      0.00000000      0.00000000      0.00000000      0.00000000      0.00000000      0.00000000</v>
  </separator>
  <separator name="orbital magnetization" >
   <i type="logical" name="NUCIND"> F  </i>
   <v name="MAGPOS">      0.00000000      0.00000000      0.00000000</v>
   <i type="logical" name="LNICSALL"> T  </i>
   <i type="logical" name="ORBITALMAG"> F  </i>
   <i type="logical" name="LMAGBLOCH"> F  </i>
   <i type="logical" name="LCHIMAG"> F  </i>
   <i type="logical" name="LGAUGE"> T  </i>
   <i type="int" name="MAGATOM">     0</i>
   <v name="MAGDIPOL">      0.00000000      0.00000000      0.00000000</v>
   <v name="AVECCONST">      0.00000000      0.00000000      0.00000000</v>
  </separator>
  <separator name="response functions" >
   <i type="logical" name="LADDER"> F  </i>
   <i type="logical" name="LRPAFORCE"> F  </i>
   <i type="logical" name="LFXC"> F  </i>
   <i type="logical" name="LHARTREE"> T  </i>
   <i type="int" name="IBSE">     0</i>
   <v type="int" name="KPOINT">    -1     0     0     0</v>
   <i type="logical" name="LTCTE"> F  </i>
   <i type="logical" name="LTETE"> F  </i>
   <i type="logical" name="LTRIPLET"> F  </i>
   <i type="logical" name="LFXCEPS"> F  </i>
   <i type="logical" name="LFXHEG"> F  </i>
   <i type="int" name="NATURALO">     2</i>
   <i type="logical" name="L2ORDER"> F  </i>
   <i type="logical" name="LMP2LT"> F  </i>
   <i type="logical" name="LUSEW"> F  </i>
   <i name="ENCUTGW">     -2.00000000</i>
   <i name="ENCUTGWSOFT">     -2.00000000</i>
   <i name="ENCUTLF">     -1.00000000</i>
   <i type="int" name="LMAXMP2">    -1</i>
   <i name="SCISSOR">      0.00000000</i>
   <i type="int" name="NOMEGA">     0</i>
   <i type="int" name="NOMEGAR">     0</i>
   <i type="int" name="NBANDSGW">    -1</i>
   <i type="int" name="NBANDSO">    -1</i>
   <i type="int" name="NBANDSV">    -1</i>
   <i type="int" name="NELM">   400</i>
   <i type="int" name="NELMHF">     1</i>
   <i type="int" name="DIM">     3</i>
   <i type="int" name="ANTIRES">     0</i>
   <i name="OMEGAMAX">    -30.00000000</i>
   <i name="OMEGAMIN">    -30.00000000</i>
   <i name="OMEGATL">   -200.00000000</i>
   <i type="int" name="OMEGAGRID">   140</i>
   <i name="CSHIFT">     -0.10000000</i>
   <i type="logical" name="SELFENERGY"> F  </i>
   <i type="logical" name="LSPECTRAL"> F  </i>
   <i type="logical" name="LSPECTRALGW"> F  </i>
   <i type="logical" name="LSINGLES"> F  </i>
   <i type="logical" name="LFERMIGW"> F  </i>
   <i type="logical" name="ODDONLYGW"> F  </i>
   <i type="logical" name="EVENONLYGW"> F  </i>
   <i type="int" name="NKREDLFX">     1</i>
   <i type="int" name="NKREDLFY">     1</i>
   <i type="int" name="NKREDLFZ">     1</i>
   <i type="int" name="MAXMEM">  2800</i>
   <i type="int" name="TELESCOPE">     0</i>
   <i type="int" name="TAUPAR">     1</i>
   <i type="int" name="OMEGAPAR">    -1</i>
   <i name="LAMBDA">      1.00000000</i>
  </separator>
  <separator name="External order field" >
   <i name="OFIELD_KAPPA">      0.00000000</i>
   <v name="OFIELD_K">      0.00000000      0.00000000      0.00000000</v>
   <i name="OFIELD_Q6_NEAR">      0.00000000</i>
   <i name="OFIELD_Q6_FAR">      0.00000000</i>
   <i name="OFIELD_A">      0.00000000</i>
  </separator>
 </parameters>
 <atominfo>
  <atoms>      10 </atoms>
  <types>       4 </types>
  <array name="atoms" >
   <dimension dim="1">ion</dimension>
   <field type="string">element</field>
   <field type="int">atomtype</field>
   <set>
    <rc><c>Ni</c><c>   1</c></rc>
    <rc><c>Ni</c><c>   1</c></rc>
    <rc><c>P </c><c>   2</c></rc>
    <rc><c>Ge</c><c>   3</c></rc>
    <rc><c>Se</c><c>   4</c></rc>
    <rc><c>Se</c><c>   4</c></rc>
    <rc><c>Se</c><c>   4</c></rc>
    <rc><c>Se</c><c>   4</c></rc>
    <rc><c>Se</c><c>   4</c></rc>
    <rc><c>Se</c><c>   4</c></rc>
   </set>
  </array>
  <array name="atomtypes" >
   <dimension dim="1">type</dimension>
   <field type="int">atomspertype</field>
   <field type="string">element</field>
   <field>mass</field>
   <field>valence</field>
   <field type="string">pseudopotential</field>
   <set>
    <rc><c>   2</c><c>Ni</c><c>     58.69000000</c><c>     10.00000000</c><c> PAW_PBE Ni 06Sep2000                   </c></rc>
    <rc><c>   1</c><c>P </c><c>     30.97400000</c><c>      5.00000000</c><c>  PAW_PBE P 17Jan2003                   </c></rc>
    <rc><c>   1</c><c>Ge</c><c>     72.61000000</c><c>      4.00000000</c><c> PAW_PBE Ge 05Jan2001                   </c></rc>
    <rc><c>   6</c><c>Se</c><c>     78.96000000</c><c>      6.00000000</c><c> PAW_PBE Se 06Sep2000                   </c></rc>
   </set>
  </array>
 </atominfo>
 <structure name="initialpos" >
  <crystal>
   <varray name="basis" >
    <v>       6.90777700      -0.00000000       0.00000000 </v>
    <v>       3.45388800       5.98231000       0.00000000 </v>
    <v>       0.00000000       0.00000000      23.44458800 </v>
   </varray>
   <i name="volume">    968.83501932 </i>
   <varray name="rec_basis" >
    <v>       0.14476437      -0.08357974       0.00000000 </v>
    <v>       0.00000000       0.16715951      -0.00000000 </v>
    <v>      -0.00000000       0.00000000       0.04265377 </v>
   </varray>
  </crystal>
  <varray name="positions" >
   <v>       0.33333300       0.33333300       0.49992500 </v>
   <v>       0.66666700       0.66666700       0.50007500 </v>
   <v>       0.00000000       0.00000000       0.44821600 </v>
   <v>       0.00000000       0.00000000       0.55178400 </v>
   <v>       0.62635700       0.00042000       0.57375200 </v>
   <v>       0.00042000       0.37322400       0.57375200 </v>
   <v>       0.37322400       0.62635700       0.57375200 </v>
   <v>       0.37364300       0.99958000       0.42624800 </v>
   <v>       0.99958000       0.62677600       0.42624800 </v>
   <v>       0.62677600       0.37364300       0.42624800 </v>
  </varray>
  <varray name="selective"  type="logical" >
   <v type="logical" >  T  T  T </v>
   <v type="logical" >  T  T  T </v>
   <v type="logical" >  T  T  T </v>
   <v type="logical" >  F  F  F </v>
   <v type="logical" >  T  T  T </v>
   <v type="logical" >  T  T  T </v>
   <v type="logical" >  T  T  T </v>
   <v type="logical" >  T  T  T </v>
   <v type="logical" >  T  T  T </v>
   <v type="logical" >  T  T  T </v>
  </varray>
  <nose>
   <v>      -3.00000000       0.00000000       0.00010000       0.00010000 </v>
  </nose>
 </structure>
 <calculation>
  <scstep>
   <time name="dav">   22.80   22.84</time>
   <time name="total">   75.75   76.06</time>
   <energy>
    <i name="alphaZ">     41.46198644 </i>
    <i name="ewald">   8338.88239735 </i>
    <i name="hartreedc"> -11933.50764714 </i>
    <i name="XCdc">     45.02433890 </i>
    <i name="pawpsdc">   2465.35493070 </i>
    <i name="pawaedc">  -2487.19307449 </i>
    <i name="eentropy">      0.00000000 </i>
    <i name="bandstr">    -45.54400903 </i>
    <i name="atom">   3996.64816900 </i>
    <i name="e_fr_energy">    421.12709173 </i>
    <i name="e_wo_entrp">    421.12709173 </i>
    <i name="e_0_energy">    421.12709173 </i>
   </energy>
  </scstep>
  <scstep>
   <time name="dav">   32.45   32.56</time>
   <time name="total">   32.45   32.56</time>
   <energy>
    <i name="e_fr_energy">     28.85962740 </i>
    <i name="e_wo_entrp">     28.85962740 </i>
    <i name="e_0_energy">     28.85962740 </i>
   </energy>
  </scstep>
  <scstep>
   <time name="dav">   27.40   27.44</time>
   <time name="total">   27.41   27.44</time>
   <energy>
    <i name="e_fr_energy">    -35.24829308 </i>
    <i name="e_wo_entrp">    -35.24829308 </i>
    <i name="e_0_energy">    -35.24829308 </i>
   </energy>
  </scstep>
  <scstep>
   <time name="dav">   28.59   28.63</time>
   <time name="total">   28.59   28.64</time>
   <energy>
    <i name="e_fr_energy">    -37.52819748 </i>
    <i name="e_wo_entrp">    -37.52819748 </i>
    <i name="e_0_energy">    -37.52819748 </i>
   </energy>
  </scstep>
  <scstep>
   <time name="dav">   27.68   27.77</time>
   <time name="total">   29.83   29.98</time>
   <energy>
    <i name="e_fr_energy">    -37.58033674 </i>
    <i name="e_wo_entrp">    -37.58033674 </i>
    <i name="e_0_energy">    -37.58033674 </i>
   </energy>
  </scstep>
  <scstep>
   <time name="dav">   28.67   29.56</time>
   <time name="total">   83.00   83.95</time>
   <energy>
    <i name="e_fr_energy">    -82.35714229 </i>
    <i name="e_wo_entrp">    -82.35714229 </i>
    <i name="e_0_energy">    -82.35714229 </i>
   </energy>
  </scstep>
  <scstep>
   <time name="dav">   24.20   24.36</time>
   <time name="total">   78.22   78.56</time>
   <energy>
    <i name="e_fr_energy">    -44.24411048 </i>
    <i name="e_wo_entrp">    -44.24411048 </i>
    <i name="e_0_energy">    -44.24411048 </i>
   </energy>
  </scstep>
  <scstep>
   <time name="dav">   27.35   27.43</time>
   <time name="total">   81.31   81.43</time>
   <energy>
    <i name="e_fr_energy">    -34.48323804 </i>
    <i name="e_wo_entrp">    -34.48323804 </i>
    <i name="e_0_energy">    -34.48323804 </i>
   </energy>
  </scstep>
  <scstep>
   <time name="dav">   32.74   33.11</time>
   <time name="total">   86.42   87.38</time>
   <energy>
    <i name="e_fr_energy">    -33.65512130 </i>
    <i name="e_wo_entrp">    -33.65512130 </i>
    <i name="e_0_energy">    -33.65512130 </i>
   </energy>
  </scstep>
  <scstep>
   <time name="dav">   24.85   25.00</time>
   <time name="total">   77.96   78.32</time>
   <energy>
    <i name="e_fr_energy">    -33.71804336 </i>
    <i name="e_wo_entrp">    -33.71804336 </i>
    <i name="e_0_energy">    -33.71804336 </i>
   </energy>
  </scstep>
  <scstep>
   <time name="dav">   27.76   27.91</time>
   <time name="total">   80.53   81.04</time>
   <energy>
    <i name="e_fr_energy">    -33.49990423 </i>
    <i name="e_wo_entrp">    -33.49990423 </i>
    <i name="e_0_energy">    -33.49990423 </i>
   </energy>
  </scstep>
  <scstep>
   <time name="dav">   32.88   33.03</time>
   <time name="total">   85.79   86.07</time>
   <energy>
    <i name="e_fr_energy">    -33.67456845 </i>
    <i name="e_wo_entrp">    -33.67456845 </i>
    <i name="e_0_energy">    -33.67456845 </i>
   </energy>
  </scstep>
  <scstep>
   <time name="dav">   23.68   23.75</time>
   <time name="total">   76.67   76.87</time>
   <energy>
    <i name="e_fr_energy">    -33.63031051 </i>
    <i name="e_wo_entrp">    -33.63031051 </i>
    <i name="e_0_energy">    -33.63031051 </i>
   </energy>
  </scstep>
  <scstep>
   <time name="dav">   26.19   26.28</time>
   <time name="total">   79.51   79.77</time>
   <energy>
    <i name="e_fr_energy">    -33.66652577 </i>
    <i name="e_wo_entrp">    -33.66652577 </i>
    <i name="e_0_energy">    -33.66652577 </i>
   </energy>
  </scstep>
  <scstep>
   <time name="dav">   25.12   25.40</time>
   <time name="total">   77.94   78.54</time>
   <energy>
    <i name="e_fr_energy">    -33.72940026 </i>
    <i name="e_wo_entrp">    -33.72940026 </i>
    <i name="e_0_energy">    -33.72940026 </i>
   </energy>
  </scstep>
  <scstep>
   <time name="dav">   27.89   28.02</time>
   <time name="total">   81.00   81.30</time>
   <energy>
    <i name="e_fr_energy">    -33.75110773 </i>
    <i name="e_wo_entrp">    -33.75110773 </i>
    <i name="e_0_energy">    -33.75110773 </i>
   </energy>
  </scstep>
  <scstep>
   <time name="dav">   28.12   28.20</time>
   <time name="total">   81.14   81.30</time>
   <energy>
    <i name="e_fr_energy">    -33.75280895 </i>
    <i name="e_wo_entrp">    -33.75280895 </i>
    <i name="e_0_energy">    -33.75280895 </i>
   </energy>
  </scstep>
  <scstep>
   <time name="dav">   27.42   27.71</time>
   <time name="total">   80.40   80.90</time>
   <energy>
    <i name="e_fr_energy">    -33.75438759 </i>
    <i name="e_wo_entrp">    -33.75438759 </i>
    <i name="e_0_energy">    -33.75438759 </i>
   </energy>
  </scstep>
  <scstep>
   <time name="dav">   26.29   26.56</time>
   <time name="total">   79.32   79.79</time>
   <energy>
    <i name="e_fr_energy">    -33.75217923 </i>
    <i name="e_wo_entrp">    -33.75217923 </i>
    <i name="e_0_energy">    -33.75217923 </i>
   </energy>
  </scstep>
  <scstep>
   <time name="dav">   26.07   26.31</time>
   <time name="total">   79.08   79.60</time>
   <energy>
    <i name="e_fr_energy">    -33.75201270 </i>
    <i name="e_wo_entrp">    -33.75201270 </i>
    <i name="e_0_energy">    -33.75201270 </i>
   </energy>
  </scstep>
  <scstep>
   <time name="dav">   24.24   24.28</time>
   <time name="total">   77.40   77.48</time>
   <energy>
    <i name="e_fr_energy">    -33.75166378 </i>
    <i name="e_wo_entrp">    -33.75166378 </i>
    <i name="e_0_energy">    -33.75166378 </i>
   </energy>
  </scstep>
  <scstep>
   <time name="dav">   19.80   19.87</time>
   <time name="total">   70.47   70.83</time>
   <energy>
    <i name="alphaZ">     41.46198644 </i>
    <i name="ewald">   8338.88239735 </i>
    <i name="hartreedc"> -11911.04941425 </i>
    <i name="XCdc">     44.38138674 </i>
    <i name="pawpsdc">   2463.10857010 </i>
    <i name="pawaedc">  -2486.08778602 </i>
    <i name="eentropy">      0.00000000 </i>
    <i name="bandstr">   -521.09703524 </i>
    <i name="atom">   3996.64816900 </i>
    <i name="e_fr_energy">    -33.75172587 </i>
    <i name="e_wo_entrp">    -33.75172587 </i>
    <i name="e_0_energy">    -33.75172587 </i>
   </energy>
  </scstep>
  <structure>
   <crystal>
    <varray name="basis" >
     <v>       6.90777700      -0.00000000       0.00000000 </v>
     <v>       3.45388800       5.98231000       0.00000000 </v>
     <v>       0.00000000       0.00000000      23.44458800 </v>
    </varray>
    <i name="volume">    968.83501932 </i>
    <varray name="rec_basis" >
     <v>       0.14476437      -0.08357974       0.00000000 </v>
     <v>       0.00000000       0.16715951      -0.00000000 </v>
     <v>      -0.00000000       0.00000000       0.04265377 </v>
    </varray>
   </crystal>
   <varray name="positions" >
    <v>       0.33333300       0.33333300       0.49992500 </v>
    <v>       0.66666700       0.66666700       0.50007500 </v>
    <v>       0.00000000       0.00000000       0.44821600 </v>
    <v>       0.00000000       0.00000000       0.55178400 </v>
    <v>       0.62635700       0.00042000       0.57375200 </v>
    <v>       0.00042000       0.37322400       0.57375200 </v>
    <v>       0.37322400       0.62635700       0.57375200 </v>
    <v>       0.37364300       0.99958000       0.42624800 </v>
    <v>       0.99958000       0.62677600       0.42624800 </v>
    <v>       0.62677600       0.37364300       0.42624800 </v>
   </varray>
  </structure>
  <varray name="forces" >
   <v>       0.00000000      -0.00000000       0.05269040 </v>
   <v>       0.00000000      -0.00000000       0.03658305 </v>
   <v>       0.00000000      -0.00000000      -0.46325636 </v>
   <v>       0.00000000      -0.00000000       0.20583995 </v>
   <v>       0.55903204      -0.00522269      -1.24876318 </v>
   <v>      -0.28403896      -0.48152458      -1.24876318 </v>
   <v>      -0.27499308       0.48674727      -1.24876318 </v>
   <v>      -0.93539220       0.00312768       1.30481084 </v>
   <v>       0.47040469       0.80850952       1.30481084 </v>
   <v>       0.46498752      -0.81163720       1.30481084 </v>
  </varray>
  <varray name="stress" >
   <v>     -37.10031121       0.00000579       0.00000000 </v>
   <v>       0.00000042     -37.10030667       0.00000000 </v>
   <v>      -0.00000000       0.00000000     -20.58489072 </v>
  </varray>
  <energy>
   <i name="e_fr_energy">    -33.75172587 </i>
   <i name="e_wo_entrp">    -33.75172587 </i>
   <i name="e_0_energy">      0.00000000 </i>
  </energy>
  <time name="totalsc"> 1697.99 1706.60</time>
 </calculation>
 <calculation>
  <scstep>
   <time name="dav">   31.02   31.07</time>
   <time name="total">   84.90   85.11</time>
   <energy>
    <i name="alphaZ">     55.46769182 </i>
    <i name="ewald">  10277.30270111 </i>
    <i name="hartreedc"> -14168.40565570 </i>
    <i name="XCdc">     61.19031089 </i>
    <i name="pawpsdc">   2463.12443676 </i>
    <i name="pawaedc">  -2486.10252389 </i>
    <i name="eentropy">      0.00000000 </i>
    <i name="bandstr">   -309.21864620 </i>
    <i name="atom">   3996.64816900 </i>
    <i name="e_fr_energy">   -109.99351622 </i>
    <i name="e_wo_entrp">   -109.99351622 </i>
    <i name="e_0_energy">   -109.99351622 </i>
   </energy>
  </scstep>
  <scstep>
   <time name="dav">   34.33   34.36</time>
   <time name="total">   88.10   88.51</time>
   <energy>
    <i name="e_fr_energy">   -341.88412534 </i>
    <i name="e_wo_entrp">   -341.88412534 </i>
    <i name="e_0_energy">   -341.88412534 </i>
   </energy>
  </scstep>
  <scstep>
   <time name="dav">   27.54   27.59</time>
   <time name="total">   81.46   81.72</time>
   <energy>
    <i name="e_fr_energy">    -82.30853003 </i>
    <i name="e_wo_entrp">    -82.30853003 </i>
    <i name="e_0_energy">    -82.30853003 </i>
   </energy>
  </scstep>
  <scstep>
   <time name="dav">   31.10   31.24</time>
   <time name="total">   85.07   85.26</time>
   <energy>
    <i name="e_fr_energy">    -37.52221519 </i>
    <i name="e_wo_entrp">    -37.52221519 </i>
    <i name="e_0_energy">    -37.52221519 </i>
   </energy>
  </scstep>
  <scstep>
   <time name="dav">   29.54   29.65</time>
   <time name="total">   83.30   83.53</time>
   <energy>
    <i name="e_fr_energy">    -38.28149833 </i>
    <i name="e_wo_entrp">    -38.28149833 </i>
    <i name="e_0_energy">    -38.28149833 </i>
   </energy>
  </scstep>
  <scstep>
   <time name="dav">   25.20   25.22</time>
   <time name="total">   79.16   79.29</time>
   <energy>
    <i name="e_fr_energy">    -37.34609245 </i>
    <i name="e_wo_entrp">    -37.34609245 </i>
    <i name="e_0_energy">    -37.34609245 </i>
   </energy>
  </scstep>
  <scstep>
   <time name="dav">   34.05   34.27</time>
   <time name="total">   87.96   88.25</time>
   <energy>
    <i name="e_fr_energy">    -37.43217227 </i>
    <i name="e_wo_entrp">    -37.43217227 </i>
    <i name="e_0_energy">    -37.43217227 </i>
   </energy>
  </scstep>
  <scstep>
   <time name="dav">   29.71   29.90</time>
   <time name="total">   83.34   83.71</time>
   <energy>
    <i name="e_fr_energy">    -37.05919726 </i>
    <i name="e_wo_entrp">    -37.05919726 </i>
    <i name="e_0_energy">    -37.05919726 </i>
   </energy>
  </scstep>
  <scstep>
   <time name="dav">   31.37   31.53</time>
   <time name="total">   85.24   85.51</time>
   <energy>
    <i name="e_fr_energy">    -37.09824272 </i>
    <i name="e_wo_entrp">    -37.09824272 </i>
    <i name="e_0_energy">    -37.09824272 </i>
   </energy>
  </scstep>
  <scstep>
   <time name="dav">   24.39   24.50</time>
   <time name="total">   78.40   78.60</time>
   <energy>
    <i name="e_fr_energy">    -37.11114399 </i>
    <i name="e_wo_entrp">    -37.11114399 </i>
    <i name="e_0_energy">    -37.11114399 </i>
   </energy>
  </scstep>
  <scstep>
   <time name="dav">   26.20   26.54</time>
   <time name="total">   79.75   80.62</time>
   <energy>
    <i name="e_fr_energy">    -37.11457595 </i>
    <i name="e_wo_entrp">    -37.11457595 </i>
    <i name="e_0_energy">    -37.11457595 </i>
   </energy>
  </scstep>
  <scstep>
   <time name="dav">   26.50   26.60</time>
   <time name="total">   80.40   80.77</time>
   <energy>
    <i name="e_fr_energy">    -37.13827514 </i>
    <i name="e_wo_entrp">    -37.13827514 </i>
    <i name="e_0_energy">    -37.13827514 </i>
   </energy>
  </scstep>
  <scstep>
   <time name="dav">   29.18   29.27</time>
   <time name="total">   83.03   83.25</time>
   <energy>
    <i name="e_fr_energy">    -37.13783773 </i>
    <i name="e_wo_entrp">    -37.13783773 </i>
    <i name="e_0_energy">    -37.13783773 </i>
   </energy>
  </scstep>
  <scstep>
   <time name="dav">   26.58   26.66</time>
   <time name="total">   80.52   80.74</time>
   <energy>
    <i name="e_fr_energy">    -37.12513225 </i>
    <i name="e_wo_entrp">    -37.12513225 </i>
    <i name="e_0_energy">    -37.12513225 </i>
   </energy>
  </scstep>
  <scstep>
   <time name="dav">   31.59   31.78</time>
   <time name="total">   85.28   85.75</time>
   <energy>
    <i name="e_fr_energy">    -37.12524369 </i>
    <i name="e_wo_entrp">    -37.12524369 </i>
    <i name="e_0_energy">    -37.12524369 </i>
   </energy>
  </scstep>
  <scstep>
   <time name="dav">   25.67   25.95</time>
   <time name="total">   79.52   79.86</time>
   <energy>
    <i name="e_fr_energy">    -37.12815522 </i>
    <i name="e_wo_entrp">    -37.12815522 </i>
    <i name="e_0_energy">    -37.12815522 </i>
   </energy>
  </scstep>
  <scstep>
   <time name="dav">   26.15   26.54</time>
   <time name="total">   79.81   80.49</time>
   <energy>
    <i name="e_fr_energy">    -37.12137023 </i>
    <i name="e_wo_entrp">    -37.12137023 </i>
    <i name="e_0_energy">    -37.12137023 </i>
   </energy>
  </scstep>
  <scstep>
   <time name="dav">   31.68   32.09</time>
   <time name="total">   85.31   86.00</time>
   <energy>
    <i name="e_fr_energy">    -37.06785731 </i>
    <i name="e_wo_entrp">    -37.06785731 </i>
    <i name="e_0_energy">    -37.06785731 </i>
   </energy>
  </scstep>
  <scstep>
   <time name="dav">   24.44   24.89</time>
   <time name="total">   78.03   78.94</time>
   <energy>
    <i name="e_fr_energy">    -37.21564331 </i>
    <i name="e_wo_entrp">    -37.21564331 </i>
    <i name="e_0_energy">    -37.21564331 </i>
   </energy>
  </scstep>
  <scstep>
   <time name="dav">   29.09   29.26</time>
   <time name="total">   82.80   83.26</time>
   <energy>
    <i name="e_fr_energy">    -37.11154336 </i>
    <i name="e_wo_entrp">    -37.11154336 </i>
    <i name="e_0_energy">    -37.11154336 </i>
   </energy>
  </scstep>
  <scstep>
   <time name="dav">   26.41   26.46</time>
   <time name="total">   80.38   80.47</time>
   <energy>
    <i name="e_fr_energy">    -37.11113698 </i>
    <i name="e_wo_entrp">    -37.11113698 </i>
    <i name="e_0_energy">    -37.11113698 </i>
   </energy>
  </scstep>
  <scstep>
   <time name="dav">   24.36   24.55</time>
   <time name="total">   78.46   78.79</time>
   <energy>
    <i name="e_fr_energy">    -37.10908682 </i>
    <i name="e_wo_entrp">    -37.10908682 </i>
    <i name="e_0_energy">    -37.10908682 </i>
   </energy>
  </scstep>
  <scstep>
   <time name="dav">   19.98   20.13</time>
   <time name="total">   73.98   74.41</time>
   <energy>
    <i name="e_fr_energy">    -37.10781729 </i>
    <i name="e_wo_entrp">    -37.10781729 </i>
    <i name="e_0_energy">    -37.10781729 </i>
   </energy>
  </scstep>
  <scstep>
   <time name="dav">   20.75   20.86</time>
   <time name="total">   74.59   74.88</time>
   <energy>
    <i name="e_fr_energy">    -37.10795299 </i>
    <i name="e_wo_entrp">    -37.10795299 </i>
    <i name="e_0_energy">    -37.10795299 </i>
   </energy>
  </scstep>
  <scstep>
   <time name="dav">   20.11   20.23</time>
   <time name="total">   73.78   74.27</time>
   <energy>
    <i name="e_fr_energy">    -37.10947214 </i>
    <i name="e_wo_entrp">    -37.10947214 </i>
    <i name="e_0_energy">    -37.10947214 </i>
   </energy>
  </scstep>
  <scstep>
   <time name="dav">   25.16   25.46</time>
   <time name="total">   78.71   79.30</time>
   <energy>
    <i name="e_fr_energy">    -37.11363372 </i>
    <i name="e_wo_entrp">    -37.11363372 </i>
    <i name="e_0_energy">    -37.11363372 </i>
   </energy>
  </scstep>
  <scstep>
   <time name="dav">   28.28   28.36</time>
   <time name="total">   82.25   82.47</time>
   <energy>
    <i name="e_fr_energy">    -37.19415055 </i>
    <i name="e_wo_entrp">    -37.19415055 </i>
    <i name="e_0_energy">    -37.19415055 </i>
   </energy>
  </scstep>
  <scstep>
   <time name="dav">   25.92   26.00</time>
   <time name="total">   79.70   80.06</time>
   <energy>
    <i name="e_fr_energy">    -37.17443819 </i>
    <i name="e_wo_entrp">    -37.17443819 </i>
    <i name="e_0_energy">    -37.17443819 </i>
   </energy>
  </scstep>
  <scstep>
   <time name="dav">   18.32   18.48</time>
   <time name="total">   72.25   72.65</time>
   <energy>
    <i name="e_fr_energy">    -37.06181734 </i>
    <i name="e_wo_entrp">    -37.06181734 </i>
    <i name="e_0_energy">    -37.06181734 </i>
   </energy>
  </scstep>
  <scstep>
   <time name="dav">   28.24   28.63</time>
   <time name="total">   81.88   82.63</time>
   <energy>
    <i name="e_fr_energy">    -37.07072115 </i>
    <i name="e_wo_entrp">    -37.07072115 </i>
    <i name="e_0_energy">    -37.07072115 </i>
   </energy>
  </scstep>
  <scstep>
   <time name="dav">   21.09   21.15</time>
   <time name="total">   75.19   75.43</time>
   <energy>
    <i name="e_fr_energy">    -37.18026342 </i>
    <i name="e_wo_entrp">    -37.18026342 </i>
    <i name="e_0_energy">    -37.18026342 </i>
   </energy>
  </scstep>
  <scstep>
   <time name="dav">   27.79   27.90</time>
   <time name="total">   81.66   82.10</time>
   <energy>
    <i name="e_fr_energy">    -37.17118571 </i>
    <i name="e_wo_entrp">    -37.17118571 </i>
    <i name="e_0_energy">    -37.17118571 </i>
   </energy>
  </scstep>
  <scstep>
   <time name="dav">   18.54   18.68</time>
   <time name="total">   72.04   72.73</time>
   <energy>
    <i name="e_fr_energy">    -37.16200201 </i>
    <i name="e_wo_entrp">    -37.16200201 </i>
    <i name="e_0_energy">    -37.16200201 </i>
   </energy>
  </scstep>
  <scstep>
   <time name="dav">   20.04   20.10</time>
   <time name="total">   73.75   74.18</time>
   <energy>
    <i name="e_fr_energy">    -37.05796107 </i>
    <i name="e_wo_entrp">    -37.05796107 </i>
    <i name="e_0_energy">    -37.05796107 </i>
   </energy>
  </scstep>
  <scstep>
   <time name="dav">   27.52   27.65</time>
   <time name="total">   81.49   81.71</time>
   <energy>
    <i name="e_fr_energy">    -37.15776446 </i>
    <i name="e_wo_entrp">    -37.15776446 </i>
    <i name="e_0_energy">    -37.15776446 </i>
   </energy>
  </scstep>
  <scstep>
   <time name="dav">   27.33   27.53</time>
   <time name="total">   81.48   81.70</time>
   <energy>
    <i name="e_fr_energy">    -37.12422428 </i>
    <i name="e_wo_entrp">    -37.12422428 </i>
    <i name="e_0_energy">    -37.12422428 </i>
   </energy>
  </scstep>
  <scstep>
   <time name="dav">   23.04   23.31</time>
   <time name="total">   76.92   77.51</time>
   <energy>
    <i name="e_fr_energy">    -37.12626147 </i>
    <i name="e_wo_entrp">    -37.12626147 </i>
    <i name="e_0_energy">    -37.12626147 </i>
   </energy>
  </scstep>
  <scstep>
   <time name="dav">   20.91   21.03</time>
   <time name="total">   72.34   72.67</time>
   <energy>
    <i name="alphaZ">     55.46769182 </i>
    <i name="ewald">  10277.30270111 </i>
    <i name="hartreedc"> -13886.20601777 </i>
    <i name="XCdc">     50.25221304 </i>
    <i name="pawpsdc">   2612.29185925 </i>
    <i name="pawaedc">  -2637.86319115 </i>
    <i name="eentropy">      0.00000000 </i>
    <i name="bandstr">   -505.01977098 </i>
    <i name="atom">   3996.64816900 </i>
    <i name="e_fr_energy">    -37.12634570 </i>
    <i name="e_wo_entrp">    -37.12634570 </i>
    <i name="e_0_energy">    -37.12634570 </i>
   </energy>
  </scstep>
  <structure>
   <crystal>
    <varray name="basis" >
     <v>       6.16014772       0.00000012       0.00000000 </v>
     <v>       3.08007342       5.33484423       0.00000000 </v>
     <v>      -0.00000000       0.00000000      22.03672106 </v>
    </varray>
    <i name="volume">    724.20219978 </i>
    <varray name="rec_basis" >
     <v>       0.16233377      -0.09372344       0.00000000 </v>
     <v>      -0.00000000       0.18744690      -0.00000000 </v>
     <v>       0.00000000       0.00000000       0.04537880 </v>
    </varray>
   </crystal>
   <varray name="positions" >
    <v>       0.33333300       0.33333300       0.50003342 </v>
    <v>       0.66666700       0.66666700       0.50015028 </v>
    <v>       0.00000000      -0.00000000       0.44726274 </v>
    <v>       0.00000000       0.00000000       0.55178400 </v>
    <v>       0.63028224       0.00037788       0.57118238 </v>
    <v>       0.00037788       0.36934088       0.57118238 </v>
    <v>       0.36934088       0.63028224       0.57118238 </v>
    <v>       0.36709778       0.99960522       0.42893295 </v>
    <v>       0.99960522       0.63329600       0.42893295 </v>
    <v>       0.63329600       0.36709778       0.42893295 </v>
   </varray>
  </structure>
  <varray name="forces" >
   <v>       0.00000000       0.00000000       0.01342934 </v>
   <v>       0.00000000       0.00000000       0.01561408 </v>
   <v>       0.00000000       0.00000000      -0.73112253 </v>
   <v>       0.00000000       0.00000000       0.30834514 </v>
   <v>      -0.88145669       0.03097680       0.02365398 </v>
   <v>       0.46755500       0.74787545       0.02365398 </v>
   <v>       0.41390169      -0.77885225       0.02365398 </v>
   <v>      -0.08233038       0.05020565       0.10759068 </v>
   <v>       0.08464456       0.04619736       0.10759068 </v>
   <v>      -0.00231418      -0.09640302       0.10759068 </v>
  </varray>
  <varray name="stress" >
   <v>       6.65233988       0.00000497      -0.00000000 </v>
   <v>      -0.00000581       6.65233926       0.00000000 </v>
   <v>      -0.00000000       0.00000000       0.63728333 </v>
  </varray>
  <energy>
   <i name="e_fr_energy">    -37.12634570 </i>
   <i name="e_wo_entrp">    -37.12634570 </i>
   <i name="e_0_energy">      0.00000000 </i>
  </energy>
  <time name="totalsc"> 3177.72 3193.43</time>
 </calculation>
 <calculation>
  <scstep>
   <time name="dav">   28.22   28.52</time>
   <time name="total">   81.97   82.64</time>
   <energy>
    <i name="alphaZ">     54.33171430 </i>
    <i name="ewald">  10124.16292529 </i>
    <i name="hartreedc"> -13712.20222421 </i>
    <i name="XCdc">     49.08899463 </i>
    <i name="pawpsdc">   2612.34968184 </i>
    <i name="pawaedc">  -2637.91933081 </i>
    <i name="eentropy">      0.00000000 </i>
    <i name="bandstr">   -523.90104015 </i>
    <i name="atom">   3996.64816900 </i>
    <i name="e_fr_energy">    -37.44111012 </i>
    <i name="e_wo_entrp">    -37.44111012 </i>
    <i name="e_0_energy">    -37.44111012 </i>
   </energy>
  </scstep>
  <scstep>
   <time name="dav">   28.23   28.37</time>
   <time name="total">   82.10   82.37</time>
   <energy>
    <i name="e_fr_energy">    -38.79567588 </i>
    <i name="e_wo_entrp">    -38.79567588 </i>
    <i name="e_0_energy">    -38.79567588 </i>
   </energy>
  </scstep>
  <scstep>
   <time name="dav">   26.33   26.44</time>
   <time name="total">   79.97   80.28</time>
   <energy>
    <i name="e_fr_energy">    -37.29913680 </i>
    <i name="e_wo_entrp">    -37.29913680 </i>
    <i name="e_0_energy">    -37.29913680 </i>
   </energy>
  </scstep>
  <scstep>
   <time name="dav">   29.82   30.00</time>
   <time name="total">   83.43   83.92</time>
   <energy>
    <i name="e_fr_energy">    -37.24429562 </i>
    <i name="e_wo_entrp">    -37.24429562 </i>
    <i name="e_0_energy">    -37.24429562 </i>
   </energy>
  </scstep>
  <scstep>
   <time name="dav">   24.99   25.02</time>
   <time name="total">   78.50   78.82</time>
   <energy>
    <i name="e_fr_energy">    -37.17369789 </i>
    <i name="e_wo_entrp">    -37.17369789 </i>
    <i name="e_0_energy">    -37.17369789 </i>
   </energy>
  </scstep>
  <scstep>
   <time name="dav">   27.66   27.71</time>
   <time name="total">   81.24   81.45</time>
   <energy>
    <i name="e_fr_energy">    -37.17179083 </i>
    <i name="e_wo_entrp">    -37.17179083 </i>
    <i name="e_0_energy">    -37.17179083 </i>
   </energy>
  </scstep>
  <scstep>
   <time name="dav">   24.44   24.48</time>
   <time name="total">   78.32   78.51</time>
   <energy>
    <i name="e_fr_energy">    -37.16551805 </i>
    <i name="e_wo_entrp">    -37.16551805 </i>
    <i name="e_0_energy">    -37.16551805 </i>
   </energy>
  </scstep>
  <scstep>
   <time name="dav">   28.86   28.93</time>
   <time name="total">   82.73   82.92</time>
   <energy>
    <i name="e_fr_energy">    -37.15362844 </i>
    <i name="e_wo_entrp">    -37.15362844 </i>
    <i name="e_0_energy">    -37.15362844 </i>
   </energy>
  </scstep>
  <scstep>
   <time name="dav">   29.45   29.62</time>
   <time name="total">   83.50   83.72</time>
   <energy>
    <i name="e_fr_energy">    -37.14496055 </i>
    <i name="e_wo_entrp">    -37.14496055 </i>
    <i name="e_0_energy">    -37.14496055 </i>
   </energy>
  </scstep>
  <scstep>
   <time name="dav">   24.86   25.03</time>
   <time name="total">   78.28   78.93</time>
   <energy>
    <i name="e_fr_energy">    -37.14694979 </i>
    <i name="e_wo_entrp">    -37.14694979 </i>
    <i name="e_0_energy">    -37.14694979 </i>
   </energy>
  </scstep>
  <scstep>
   <time name="dav">   29.20   29.30</time>
   <time name="total">   83.18   83.41</time>
   <energy>
    <i name="e_fr_energy">    -37.14903872 </i>
    <i name="e_wo_entrp">    -37.14903872 </i>
    <i name="e_0_energy">    -37.14903872 </i>
   </energy>
  </scstep>
  <scstep>
   <time name="dav">   23.00   23.22</time>
   <time name="total">   76.51   77.02</time>
   <energy>
    <i name="e_fr_energy">    -37.14835764 </i>
    <i name="e_wo_entrp">    -37.14835764 </i>
    <i name="e_0_energy">    -37.14835764 </i>
   </energy>
  </scstep>
  <scstep>
   <time name="dav">   23.56   23.74</time>
   <time name="total">   77.18   77.50</time>
   <energy>
    <i name="e_fr_energy">    -37.13017960 </i>
    <i name="e_wo_entrp">    -37.13017960 </i>
    <i name="e_0_energy">    -37.13017960 </i>
   </energy>
  </scstep>
  <scstep>
   <time name="dav">   28.43   28.47</time>
   <time name="total">   81.97   82.43</time>
   <energy>
    <i name="e_fr_energy">    -37.14718987 </i>
    <i name="e_wo_entrp">    -37.14718987 </i>
    <i name="e_0_energy">    -37.14718987 </i>
   </energy>
  </scstep>
  <scstep>
   <time name="dav">   24.02   24.17</time>
   <time name="total">   77.75   78.06</time>
   <energy>
    <i name="e_fr_energy">    -37.14942017 </i>
    <i name="e_wo_entrp">    -37.14942017 </i>
    <i name="e_0_energy">    -37.14942017 </i>
   </energy>
  </scstep>
  <scstep>
   <time name="dav">   19.06   19.29</time>
   <time name="total">   72.59   73.19</time>
   <energy>
    <i name="e_fr_energy">    -37.14972301 </i>
    <i name="e_wo_entrp">    -37.14972301 </i>
    <i name="e_0_energy">    -37.14972301 </i>
   </energy>
  </scstep>
  <scstep>
   <time name="dav">   20.10   20.23</time>
   <time name="total">   73.76   73.99</time>
   <energy>
    <i name="e_fr_energy">    -37.14632472 </i>
    <i name="e_wo_entrp">    -37.14632472 </i>
    <i name="e_0_energy">    -37.14632472 </i>
   </energy>
  </scstep>
  <scstep>
   <time name="dav">   29.84   29.99</time>
   <time name="total">   83.70   83.95</time>
   <energy>
    <i name="e_fr_energy">    -37.14163676 </i>
    <i name="e_wo_entrp">    -37.14163676 </i>
    <i name="e_0_energy">    -37.14163676 </i>
   </energy>
  </scstep>
  <scstep>
   <time name="dav">   22.18   22.22</time>
   <time name="total">   75.90   76.03</time>
   <energy>
    <i name="e_fr_energy">    -37.14261859 </i>
    <i name="e_wo_entrp">    -37.14261859 </i>
    <i name="e_0_energy">    -37.14261859 </i>
   </energy>
  </scstep>
  <scstep>
   <time name="dav">   19.78   19.81</time>
   <time name="total">   73.68   73.81</time>
   <energy>
    <i name="e_fr_energy">    -37.14225572 </i>
    <i name="e_wo_entrp">    -37.14225572 </i>
    <i name="e_0_energy">    -37.14225572 </i>
   </energy>
  </scstep>
  <scstep>
   <time name="dav">   20.10   20.19</time>
   <time name="total">   73.82   74.07</time>
   <energy>
    <i name="e_fr_energy">    -37.18231393 </i>
    <i name="e_wo_entrp">    -37.18231393 </i>
    <i name="e_0_energy">    -37.18231393 </i>
   </energy>
  </scstep>
  <scstep>
   <time name="dav">   21.26   21.42</time>
   <time name="total">   74.68   75.25</time>
   <energy>
    <i name="e_fr_energy">    -37.14526842 </i>
    <i name="e_wo_entrp">    -37.14526842 </i>
    <i name="e_0_energy">    -37.14526842 </i>
   </energy>
  </scstep>
  <scstep>
   <time name="dav">   28.84   29.04</time>
   <time name="total">   82.53   83.01</time>
   <energy>
    <i name="e_fr_energy">    -37.15782994 </i>
    <i name="e_wo_entrp">    -37.15782994 </i>
    <i name="e_0_energy">    -37.15782994 </i>
   </energy>
  </scstep>
  <scstep>
   <time name="dav">   30.31   30.43</time>
   <time name="total">   84.10   84.49</time>
   <energy>
    <i name="e_fr_energy">    -37.16098449 </i>
    <i name="e_wo_entrp">    -37.16098449 </i>
    <i name="e_0_energy">    -37.16098449 </i>
   </energy>
  </scstep>
  <scstep>
   <time name="dav">   20.71   20.90</time>
   <time name="total">   74.65   74.95</time>
   <energy>
    <i name="e_fr_energy">    -37.16016547 </i>
    <i name="e_wo_entrp">    -37.16016547 </i>
    <i name="e_0_energy">    -37.16016547 </i>
   </energy>
  </scstep>
  <scstep>
   <time name="dav">   23.57   23.96</time>
   <time name="total">   77.13   77.79</time>
   <energy>
    <i name="e_fr_energy">    -37.15789463 </i>
    <i name="e_wo_entrp">    -37.15789463 </i>
    <i name="e_0_energy">    -37.15789463 </i>
   </energy>
  </scstep>
  <scstep>
   <time name="dav">   19.36   19.68</time>
   <time name="total">   73.05   73.62</time>
   <energy>
    <i name="e_fr_energy">    -37.15774024 </i>
    <i name="e_wo_entrp">    -37.15774024 </i>
    <i name="e_0_energy">    -37.15774024 </i>
   </energy>
  </scstep>
  <scstep>
   <time name="dav">   18.27   18.36</time>
   <time name="total">   71.96   72.32</time>
   <energy>
    <i name="e_fr_energy">    -37.15838445 </i>
    <i name="e_wo_entrp">    -37.15838445 </i>
    <i name="e_0_energy">    -37.15838445 </i>
   </energy>
  </scstep>
  <scstep>
   <time name="dav">   17.52   17.65</time>
   <time name="total">   71.49   71.71</time>
   <energy>
    <i name="e_fr_energy">    -37.15912596 </i>
    <i name="e_wo_entrp">    -37.15912596 </i>
    <i name="e_0_energy">    -37.15912596 </i>
   </energy>
  </scstep>
  <scstep>
   <time name="dav">   18.71   18.76</time>
   <time name="total">   72.46   72.80</time>
   <energy>
    <i name="e_fr_energy">    -37.15980190 </i>
    <i name="e_wo_entrp">    -37.15980190 </i>
    <i name="e_0_energy">    -37.15980190 </i>
   </energy>
  </scstep>
  <scstep>
   <time name="dav">   17.95   18.17</time>
   <time name="total">   71.80   72.13</time>
   <energy>
    <i name="e_fr_energy">    -37.16027916 </i>
    <i name="e_wo_entrp">    -37.16027916 </i>
    <i name="e_0_energy">    -37.16027916 </i>
   </energy>
  </scstep>
  <scstep>
   <time name="dav">   17.39   17.40</time>
   <time name="total">   68.90   69.03</time>
   <energy>
    <i name="alphaZ">     54.33171430 </i>
    <i name="ewald">  10124.16292529 </i>
    <i name="hartreedc"> -13728.09323767 </i>
    <i name="XCdc">     49.70026686 </i>
    <i name="pawpsdc">   2596.80717977 </i>
    <i name="pawaedc">  -2622.02616707 </i>
    <i name="eentropy">      0.00000000 </i>
    <i name="bandstr">   -508.69116860 </i>
    <i name="atom">   3996.64816900 </i>
    <i name="e_fr_energy">    -37.16031813 </i>
    <i name="e_wo_entrp">    -37.16031813 </i>
    <i name="e_0_energy">    -37.16031813 </i>
   </energy>
  </scstep>
  <structure>
   <crystal>
    <varray name="basis" >
     <v>       6.21078930       0.00000011       0.00000000 </v>
     <v>       3.10539421       5.37870111       0.00000000 </v>
     <v>      -0.00000000       0.00000000      22.13208464 </v>
    </varray>
    <i name="volume">    739.34395326 </i>
    <varray name="rec_basis" >
     <v>       0.16101013      -0.09295923       0.00000000 </v>
     <v>      -0.00000000       0.18591849      -0.00000000 </v>
     <v>       0.00000000       0.00000000       0.04518327 </v>
    </varray>
   </crystal>
   <varray name="positions" >
    <v>       0.33333300       0.33333300       0.50002561 </v>
    <v>       0.66666700       0.66666700       0.50014485 </v>
    <v>       0.00000000      -0.00000000       0.44733144 </v>
    <v>       0.00000000       0.00000000       0.55178400 </v>
    <v>       0.62998409       0.00038108       0.57136756 </v>
    <v>       0.00038108       0.36963583       0.57136756 </v>
    <v>       0.36963583       0.62998409       0.57136756 </v>
    <v>       0.36759494       0.99960331       0.42873946 </v>
    <v>       0.99960331       0.63280076       0.42873946 </v>
    <v>       0.63280076       0.36759494       0.42873946 </v>
   </varray>
  </structure>
  <varray name="forces" >
   <v>      -0.00000000      -0.00000000       0.00505343 </v>
   <v>      -0.00000000      -0.00000000       0.01281906 </v>
   <v>      -0.00000000      -0.00000000      -0.74182017 </v>
   <v>      -0.00000000      -0.00000000       0.32881389 </v>
   <v>      -0.72005302      -0.00070430      -0.13630096 </v>
   <v>       0.35941653       0.62393633      -0.13630096 </v>
   <v>       0.36063649      -0.62323203      -0.13630096 </v>
   <v>      -0.18149511       0.02119496       0.26801223 </v>
   <v>       0.10910292       0.14658189       0.26801223 </v>
   <v>       0.07239219      -0.16777685       0.26801223 </v>
  </varray>
  <varray name="stress" >
   <v>       2.66251660       0.00000384       0.00000000 </v>
   <v>      -0.00000419       2.66251635      -0.00000000 </v>
   <v>      -0.00000000      -0.00000000       0.16027844 </v>
  </varray>
  <energy>
   <i name="e_fr_energy">    -37.16031813 </i>
   <i name="e_wo_entrp">    -37.16031813 </i>
   <i name="e_0_energy">      0.00000000 </i>
  </energy>
  <time name="totalsc"> 2618.07 2630.04</time>
 </calculation>
 <calculation>
  <scstep>
   <time name="dav">   29.06   29.55</time>
   <time name="total">   83.06   83.57</time>
   <energy>
    <i name="alphaZ">     53.82926773 </i>
    <i name="ewald">  10056.21137566 </i>
    <i name="hartreedc"> -13650.56047767 </i>
    <i name="XCdc">     49.17648321 </i>
    <i name="pawpsdc">   2596.78261151 </i>
    <i name="pawaedc">  -2622.00163409 </i>
    <i name="eentropy">      0.00000000 </i>
    <i name="bandstr">   -517.30290466 </i>
    <i name="atom">   3996.64816900 </i>
    <i name="e_fr_energy">    -37.21710932 </i>
    <i name="e_wo_entrp">    -37.21710932 </i>
    <i name="e_0_energy">    -37.21710932 </i>
   </energy>
  </scstep>
  <scstep>
   <time name="dav">   25.12   25.48</time>
   <time name="total">   78.99   79.58</time>
   <energy>
    <i name="e_fr_energy">    -37.55881386 </i>
    <i name="e_wo_entrp">    -37.55881386 </i>
    <i name="e_0_energy">    -37.55881386 </i>
   </energy>
  </scstep>
  <scstep>
   <time name="dav">   24.80   25.06</time>
   <time name="total">   78.43   78.92</time>
   <energy>
    <i name="e_fr_energy">    -37.34159484 </i>
    <i name="e_wo_entrp">    -37.34159484 </i>
    <i name="e_0_energy">    -37.34159484 </i>
   </energy>
  </scstep>
  <scstep>
   <time name="dav">   26.56   26.84</time>
   <time name="total">   79.67   80.81</time>
   <energy>
    <i name="e_fr_energy">    -37.19116170 </i>
    <i name="e_wo_entrp">    -37.19116170 </i>
    <i name="e_0_energy">    -37.19116170 </i>
   </energy>
  </scstep>
  <scstep>
   <time name="dav">   26.50   26.65</time>
   <time name="total">   80.04   80.54</time>
   <energy>
    <i name="e_fr_energy">    -37.17772744 </i>
    <i name="e_wo_entrp">    -37.17772744 </i>
    <i name="e_0_energy">    -37.17772744 </i>
   </energy>
  </scstep>
  <scstep>
   <time name="dav">   29.33   29.68</time>
   <time name="total">   83.10   83.66</time>
   <energy>
    <i name="e_fr_energy">    -37.17430774 </i>
    <i name="e_wo_entrp">    -37.17430774 </i>
    <i name="e_0_energy">    -37.17430774 </i>
   </energy>
  </scstep>
  <scstep>
   <time name="dav">   27.48   27.67</time>
   <time name="total">   81.15   81.58</time>
   <energy>
    <i name="e_fr_energy">    -37.19705407 </i>
    <i name="e_wo_entrp">    -37.19705407 </i>
    <i name="e_0_energy">    -37.19705407 </i>
   </energy>
  </scstep>
  <scstep>
   <time name="dav">   28.15   28.25</time>
   <time name="total">   81.97   82.17</time>
   <energy>
    <i name="e_fr_energy">    -37.20671502 </i>
    <i name="e_wo_entrp">    -37.20671502 </i>
    <i name="e_0_energy">    -37.20671502 </i>
   </energy>
  </scstep>
  <scstep>
   <time name="dav">   30.01   30.07</time>
   <time name="total">   83.80   84.02</time>
   <energy>
    <i name="e_fr_energy">    -37.20749981 </i>
    <i name="e_wo_entrp">    -37.20749981 </i>
    <i name="e_0_energy">    -37.20749981 </i>
   </energy>
  </scstep>
  <scstep>
   <time name="dav">   25.30   25.66</time>
   <time name="total">   78.98   79.53</time>
   <energy>
    <i name="e_fr_energy">    -37.20902555 </i>
    <i name="e_wo_entrp">    -37.20902555 </i>
    <i name="e_0_energy">    -37.20902555 </i>
   </energy>
  </scstep>
  <scstep>
   <time name="dav">   25.90   26.08</time>
   <time name="total">   79.56   80.16</time>
   <energy>
    <i name="e_fr_energy">    -37.20975926 </i>
    <i name="e_wo_entrp">    -37.20975926 </i>
    <i name="e_0_energy">    -37.20975926 </i>
   </energy>
  </scstep>
  <scstep>
   <time name="dav">   25.29   25.40</time>
   <time name="total">   78.92   79.30</time>
   <energy>
    <i name="e_fr_energy">    -37.21215300 </i>
    <i name="e_wo_entrp">    -37.21215300 </i>
    <i name="e_0_energy">    -37.21215300 </i>
   </energy>
  </scstep>
  <scstep>
   <time name="dav">   26.74   27.07</time>
   <time name="total">   80.38   80.92</time>
   <energy>
    <i name="e_fr_energy">    -37.21111975 </i>
    <i name="e_wo_entrp">    -37.21111975 </i>
    <i name="e_0_energy">    -37.21111975 </i>
   </energy>
  </scstep>
  <scstep>
   <time name="dav">   25.22   25.34</time>
   <time name="total">   78.65   79.25</time>
   <energy>
    <i name="e_fr_energy">    -37.21136267 </i>
    <i name="e_wo_entrp">    -37.21136267 </i>
    <i name="e_0_energy">    -37.21136267 </i>
   </energy>
  </scstep>
  <scstep>
   <time name="dav">   22.04   22.28</time>
   <time name="total">   73.30   73.90</time>
   <energy>
    <i name="alphaZ">     53.82926773 </i>
    <i name="ewald">  10056.21137566 </i>
    <i name="hartreedc"> -13659.13741092 </i>
    <i name="XCdc">     49.62728963 </i>
    <i name="pawpsdc">   2588.32185192 </i>
    <i name="pawaedc">  -2613.64349803 </i>
    <i name="eentropy">      0.00000000 </i>
    <i name="bandstr">   -509.06842993 </i>
    <i name="atom">   3996.64816900 </i>
    <i name="e_fr_energy">    -37.21138495 </i>
    <i name="e_wo_entrp">    -37.21138495 </i>
    <i name="e_0_energy">    -37.21138495 </i>
   </energy>
  </scstep>
  <structure>
   <crystal>
    <varray name="basis" >
     <v>       6.23364871       0.00000011       0.00000000 </v>
     <v>       3.11682391       5.39849794       0.00000000 </v>
     <v>      -0.00000000       0.00000000      22.17513139 </v>
    </varray>
    <i name="volume">    746.24504715 </i>
    <varray name="rec_basis" >
     <v>       0.16041969      -0.09261834       0.00000000 </v>
     <v>      -0.00000000       0.18523671      -0.00000000 </v>
     <v>       0.00000000       0.00000000       0.04509556 </v>
    </varray>
   </crystal>
   <varray name="positions" >
    <v>       0.33333300       0.33333300       0.50002210 </v>
    <v>       0.66666700       0.66666700       0.50014242 </v>
    <v>       0.00000000      -0.00000000       0.44736231 </v>
    <v>       0.00000000       0.00000000       0.55178400 </v>
    <v>       0.62985060       0.00038251       0.57145079 </v>
    <v>       0.00038251       0.36976788       0.57145079 </v>
    <v>       0.36976788       0.62985060       0.57145079 </v>
    <v>       0.36781752       0.99960245       0.42865250 </v>
    <v>       0.99960245       0.63257903       0.42865250 </v>
    <v>       0.63257903       0.36781752       0.42865250 </v>
   </varray>
  </structure>
  <varray name="forces" >
   <v>      -0.00000000      -0.00000000       0.03009080 </v>
   <v>      -0.00000000      -0.00000000       0.03093656 </v>
   <v>      -0.00000000      -0.00000000      -0.62674075 </v>
   <v>      -0.00000000      -0.00000000       0.26318440 </v>
   <v>      -0.64529313      -0.00591405      -0.13557259 </v>
   <v>       0.31752481       0.56179725      -0.13557259 </v>
   <v>       0.32776832      -0.55588319      -0.13557259 </v>
   <v>      -0.26034392       0.00296376       0.23641559 </v>
   <v>       0.13273864       0.22398256       0.23641559 </v>
   <v>       0.12760529      -0.22694632       0.23641559 </v>
  </varray>
  <varray name="stress" >
   <v>      -0.53256168       0.00000075      -0.00000000 </v>
   <v>      -0.00000068      -0.53256162       0.00000000 </v>
   <v>       0.00000000       0.00000000      -1.15635157 </v>
  </varray>
  <energy>
   <i name="e_fr_energy">    -37.21138495 </i>
   <i name="e_wo_entrp">    -37.21138495 </i>
   <i name="e_0_energy">      0.00000000 </i>
  </energy>
  <time name="totalsc"> 1335.09 1343.35</time>
 </calculation>
 <calculation>
  <scstep>
   <time name="dav">   24.40   24.47</time>
   <time name="total">   78.23   78.43</time>
   <energy>
    <i name="alphaZ">     54.03847978 </i>
    <i name="ewald">  10084.51916133 </i>
    <i name="hartreedc"> -13691.53239474 </i>
    <i name="XCdc">     49.84699689 </i>
    <i name="pawpsdc">   2588.25899004 </i>
    <i name="pawaedc">  -2613.58337331 </i>
    <i name="eentropy">      0.00000000 </i>
    <i name="bandstr">   -505.41965807 </i>
    <i name="atom">   3996.64816900 </i>
    <i name="e_fr_energy">    -37.22362908 </i>
    <i name="e_wo_entrp">    -37.22362908 </i>
    <i name="e_0_energy">    -37.22362908 </i>
   </energy>
  </scstep>
  <scstep>
   <time name="dav">   24.88   25.11</time>
   <time name="total">   78.49   78.99</time>
   <energy>
    <i name="e_fr_energy">    -37.26362815 </i>
    <i name="e_wo_entrp">    -37.26362815 </i>
    <i name="e_0_energy">    -37.26362815 </i>
   </energy>
  </scstep>
  <scstep>
   <time name="dav">   24.33   24.38</time>
   <time name="total">   78.07   78.26</time>
   <energy>
    <i name="e_fr_energy">    -37.21303724 </i>
    <i name="e_wo_entrp">    -37.21303724 </i>
    <i name="e_0_energy">    -37.21303724 </i>
   </energy>
  </scstep>
  <scstep>
   <time name="dav">   29.56   29.67</time>
   <time name="total">   83.42   83.64</time>
   <energy>
    <i name="e_fr_energy">    -37.21623092 </i>
    <i name="e_wo_entrp">    -37.21623092 </i>
    <i name="e_0_energy">    -37.21623092 </i>
   </energy>
  </scstep>
  <scstep>
   <time name="dav">   25.89   26.06</time>
   <time name="total">   79.64   79.89</time>
   <energy>
    <i name="e_fr_energy">    -37.21327174 </i>
    <i name="e_wo_entrp">    -37.21327174 </i>
    <i name="e_0_energy">    -37.21327174 </i>
   </energy>
  </scstep>
  <scstep>
   <time name="dav">   24.19   24.27</time>
   <time name="total">   78.02   78.20</time>
   <energy>
    <i name="e_fr_energy">    -37.21357070 </i>
    <i name="e_wo_entrp">    -37.21357070 </i>
    <i name="e_0_energy">    -37.21357070 </i>
   </energy>
  </scstep>
  <scstep>
   <time name="dav">   17.20   17.30</time>
   <time name="total">   68.51   68.81</time>
   <energy>
    <i name="alphaZ">     54.03847978 </i>
    <i name="ewald">  10084.51916133 </i>
    <i name="hartreedc"> -13688.69221654 </i>
    <i name="XCdc">     49.72584260 </i>
    <i name="pawpsdc">   2590.42688743 </i>
    <i name="pawaedc">  -2615.79047222 </i>
    <i name="eentropy">      0.00000000 </i>
    <i name="bandstr">   -508.08948932 </i>
    <i name="atom">   3996.64816900 </i>
    <i name="e_fr_energy">    -37.21363796 </i>
    <i name="e_wo_entrp">    -37.21363796 </i>
    <i name="e_0_energy">    -37.21363796 </i>
   </energy>
  </scstep>
  <structure>
   <crystal>
    <varray name="basis" >
     <v>       6.22409533       0.00000011       0.00000000 </v>
     <v>       3.11204722       5.39022447       0.00000000 </v>
     <v>      -0.00000000       0.00000000      22.15714134 </v>
    </varray>
    <i name="volume">    743.35593077 </i>
    <varray name="rec_basis" >
     <v>       0.16066592      -0.09276050       0.00000000 </v>
     <v>      -0.00000000       0.18552103      -0.00000000 </v>
     <v>       0.00000000       0.00000000       0.04513218 </v>
    </varray>
   </crystal>
   <varray name="positions" >
    <v>       0.33333300       0.33333300       0.50002356 </v>
    <v>       0.66666700       0.66666700       0.50014343 </v>
    <v>       0.00000000      -0.00000000       0.44734944 </v>
    <v>       0.00000000       0.00000000       0.55178400 </v>
    <v>       0.62990618       0.00038192       0.57141607 </v>
    <v>       0.00038192       0.36971290       0.57141607 </v>
    <v>       0.36971290       0.62990618       0.57141607 </v>
    <v>       0.36772484       0.99960281       0.42868877 </v>
    <v>       0.99960281       0.63267135       0.42868877 </v>
    <v>       0.63267135       0.36772484       0.42868877 </v>
   </varray>
  </structure>
  <varray name="forces" >
   <v>       0.00000000      -0.00000000       0.02974998 </v>
   <v>       0.00000000      -0.00000000       0.03126435 </v>
   <v>       0.00000000      -0.00000000      -0.62791894 </v>
   <v>       0.00000000      -0.00000000       0.26391911 </v>
   <v>      -0.67637240      -0.00807881      -0.10682356 </v>
   <v>       0.33118971       0.58979506      -0.10682356 </v>
   <v>       0.34518269      -0.58171625      -0.10682356 </v>
   <v>      -0.24288699       0.00535550       0.20781872 </v>
   <v>       0.12608148       0.20766854       0.20781872 </v>
   <v>       0.11680551      -0.21302404       0.20781872 </v>
  </varray>
  <varray name="stress" >
   <v>       0.16752557       0.00000199       0.00000000 </v>
   <v>      -0.00000201       0.16752556      -0.00000000 </v>
   <v>       0.00000000      -0.00000000      -1.07724639 </v>
  </varray>
  <energy>
   <i name="e_fr_energy">    -37.21363796 </i>
   <i name="e_wo_entrp">    -37.21363796 </i>
   <i name="e_0_energy">      0.00000000 </i>
  </energy>
  <time name="totalsc">  679.36  681.73</time>
 </calculation>
 <calculation>
  <scstep>
   <time name="dav">   22.97   23.11</time>
   <time name="total">   76.66   77.05</time>
   <energy>
    <i name="alphaZ">     54.21867163 </i>
    <i name="ewald">  10070.02515306 </i>
    <i name="hartreedc"> -13680.25049676 </i>
    <i name="XCdc">     49.94843739 </i>
    <i name="pawpsdc">   2590.67452494 </i>
    <i name="pawaedc">  -2616.05421519 </i>
    <i name="eentropy">      0.00000000 </i>
    <i name="bandstr">   -502.48592870 </i>
    <i name="atom">   3996.64816900 </i>
    <i name="e_fr_energy">    -37.27568464 </i>
    <i name="e_wo_entrp">    -37.27568464 </i>
    <i name="e_0_energy">    -37.27568464 </i>
   </energy>
  </scstep>
  <scstep>
   <time name="dav">   25.64   25.76</time>
   <time name="total">   79.39   79.72</time>
   <energy>
    <i name="e_fr_energy">    -37.31653375 </i>
    <i name="e_wo_entrp">    -37.31653375 </i>
    <i name="e_0_energy">    -37.31653375 </i>
   </energy>
  </scstep>
  <scstep>
   <time name="dav">   24.77   24.84</time>
   <time name="total">   78.42   78.79</time>
   <energy>
    <i name="e_fr_energy">    -37.28657500 </i>
    <i name="e_wo_entrp">    -37.28657500 </i>
    <i name="e_0_energy">    -37.28657500 </i>
   </energy>
  </scstep>
  <scstep>
   <time name="dav">   26.63   26.77</time>
   <time name="total">   80.55   80.78</time>
   <energy>
    <i name="e_fr_energy">    -37.28593356 </i>
    <i name="e_wo_entrp">    -37.28593356 </i>
    <i name="e_0_energy">    -37.28593356 </i>
   </energy>
  </scstep>
  <scstep>
   <time name="dav">   28.63   28.78</time>
   <time name="total">   82.27   82.81</time>
   <energy>
    <i name="e_fr_energy">    -37.28540395 </i>
    <i name="e_wo_entrp">    -37.28540395 </i>
    <i name="e_0_energy">    -37.28540395 </i>
   </energy>
  </scstep>
  <scstep>
   <time name="dav">   22.60   22.89</time>
   <time name="total">   76.45   76.93</time>
   <energy>
    <i name="e_fr_energy">    -37.28564046 </i>
    <i name="e_wo_entrp">    -37.28564046 </i>
    <i name="e_0_energy">    -37.28564046 </i>
   </energy>
  </scstep>
  <scstep>
   <time name="dav">   20.49   20.74</time>
   <time name="total">   74.40   74.73</time>
   <energy>
    <i name="e_fr_energy">    -37.28544883 </i>
    <i name="e_wo_entrp">    -37.28544883 </i>
    <i name="e_0_energy">    -37.28544883 </i>
   </energy>
  </scstep>
  <scstep>
   <time name="dav">   17.63   17.88</time>
   <time name="total">   68.77   69.53</time>
   <energy>
    <i name="alphaZ">     54.21867163 </i>
    <i name="ewald">  10070.02515306 </i>
    <i name="hartreedc"> -13676.24444370 </i>
    <i name="XCdc">     49.79421328 </i>
    <i name="pawpsdc">   2594.48925837 </i>
    <i name="pawaedc">  -2619.93439168 </i>
    <i name="eentropy">      0.00000000 </i>
    <i name="bandstr">   -506.28214704 </i>
    <i name="atom">   3996.64816900 </i>
    <i name="e_fr_energy">    -37.28551709 </i>
    <i name="e_wo_entrp">    -37.28551709 </i>
    <i name="e_0_energy">    -37.28551709 </i>
   </energy>
  </scstep>
  <structure>
   <crystal>
    <varray name="basis" >
     <v>       6.22226652       0.00000013      -0.00000000 </v>
     <v>       3.11113279       5.38864069      -0.00000000 </v>
     <v>       0.00000000      -0.00000000      22.09648687 </v>
    </varray>
    <i name="volume">    740.88544094 </i>
    <varray name="rec_basis" >
     <v>       0.16071314      -0.09278777      -0.00000000 </v>
     <v>      -0.00000000       0.18557556       0.00000000 </v>
     <v>      -0.00000000       0.00000000       0.04525606 </v>
    </varray>
   </crystal>
   <varray name="positions" >
    <v>       0.33333300       0.33333300       0.50008793 </v>
    <v>       0.66666700       0.66666700       0.50021083 </v>
    <v>       0.00000000      -0.00000000       0.44599948 </v>
    <v>       0.00000000       0.00000000       0.55178400 </v>
    <v>       0.62481553       0.00031056       0.57117082 </v>
    <v>       0.00031056       0.37487490       0.57117082 </v>
    <v>       0.37487490       0.62481553       0.57117082 </v>
    <v>       0.36580643       0.99965009       0.42915090 </v>
    <v>       0.99965009       0.63454249       0.42915090 </v>
    <v>       0.63454249       0.36580643       0.42915090 </v>
   </varray>
  </structure>
  <varray name="forces" >
   <v>       0.00000000       0.00000000       0.03250244 </v>
   <v>       0.00000000       0.00000000       0.03216099 </v>
   <v>       0.00000000       0.00000000      -0.17202438 </v>
   <v>       0.00000000       0.00000000       0.23290424 </v>
   <v>      -0.34545986      -0.00510460      -0.11487117 </v>
   <v>       0.16830920       0.30172930      -0.11487117 </v>
   <v>       0.17715066      -0.29662470      -0.11487117 </v>
   <v>      -0.07639949       0.00524845       0.07302341 </v>
   <v>       0.04274503       0.06353967       0.07302341 </v>
   <v>       0.03365446      -0.06878812       0.07302341 </v>
  </varray>
  <varray name="stress" >
   <v>       0.24526612       0.00000074      -0.00000000 </v>
   <v>      -0.00000077       0.24526609       0.00000000 </v>
   <v>       0.00000000       0.00000000      -1.18029398 </v>
  </varray>
  <energy>
   <i name="e_fr_energy">    -37.28551709 </i>
   <i name="e_wo_entrp">    -37.28551709 </i>
   <i name="e_0_energy">      0.00000000 </i>
  </energy>
  <time name="totalsc">  752.14  755.97</time>
 </calculation>
 <calculation>
  <scstep>
   <time name="dav">   22.80   23.09</time>
   <time name="total">   76.51   76.87</time>
   <energy>
    <i name="alphaZ">     54.37172930 </i>
    <i name="ewald">  10057.76303891 </i>
    <i name="hartreedc"> -13668.90481706 </i>
    <i name="XCdc">     49.98655308 </i>
    <i name="pawpsdc">   2594.59717180 </i>
    <i name="pawaedc">  -2620.04282293 </i>
    <i name="eentropy">      0.00000000 </i>
    <i name="bandstr">   -501.71743462 </i>
    <i name="atom">   3996.64816900 </i>
    <i name="e_fr_energy">    -37.29841253 </i>
    <i name="e_wo_entrp">    -37.29841253 </i>
    <i name="e_0_energy">    -37.29841253 </i>
   </energy>
  </scstep>
  <scstep>
   <time name="dav">   23.62   23.70</time>
   <time name="total">   77.21   77.60</time>
   <energy>
    <i name="e_fr_energy">    -37.32821283 </i>
    <i name="e_wo_entrp">    -37.32821283 </i>
    <i name="e_0_energy">    -37.32821283 </i>
   </energy>
  </scstep>
  <scstep>
   <time name="dav">   22.75   23.14</time>
   <time name="total">   76.21   77.00</time>
   <energy>
    <i name="e_fr_energy">    -37.30638615 </i>
    <i name="e_wo_entrp">    -37.30638615 </i>
    <i name="e_0_energy">    -37.30638615 </i>
   </energy>
  </scstep>
  <scstep>
   <time name="dav">   25.52   25.70</time>
   <time name="total">   79.11   79.51</time>
   <energy>
    <i name="e_fr_energy">    -37.30584007 </i>
    <i name="e_wo_entrp">    -37.30584007 </i>
    <i name="e_0_energy">    -37.30584007 </i>
   </energy>
  </scstep>
  <scstep>
   <time name="dav">   25.61   25.74</time>
   <time name="total">   79.26   79.55</time>
   <energy>
    <i name="e_fr_energy">    -37.30689592 </i>
    <i name="e_wo_entrp">    -37.30689592 </i>
    <i name="e_0_energy">    -37.30689592 </i>
   </energy>
  </scstep>
  <scstep>
   <time name="dav">   24.20   24.41</time>
   <time name="total">   78.05   78.28</time>
   <energy>
    <i name="e_fr_energy">    -37.30548927 </i>
    <i name="e_wo_entrp">    -37.30548927 </i>
    <i name="e_0_energy">    -37.30548927 </i>
   </energy>
  </scstep>
  <scstep>
   <time name="dav">   21.34   21.46</time>
   <time name="total">   72.64   73.02</time>
   <energy>
    <i name="alphaZ">     54.37172930 </i>
    <i name="ewald">  10057.76303891 </i>
    <i name="hartreedc"> -13665.29160219 </i>
    <i name="XCdc">     49.85714585 </i>
    <i name="pawpsdc">   2597.89306715 </i>
    <i name="pawaedc">  -2623.39222350 </i>
    <i name="eentropy">      0.00000000 </i>
    <i name="bandstr">   -505.15481907 </i>
    <i name="atom">   3996.64816900 </i>
    <i name="e_fr_energy">    -37.30549456 </i>
    <i name="e_wo_entrp">    -37.30549456 </i>
    <i name="e_0_energy">    -37.30549456 </i>
   </energy>
  </scstep>
  <structure>
   <crystal>
    <varray name="basis" >
     <v>       6.22072117       0.00000016      -0.00000000 </v>
     <v>       3.11036010       5.38730239      -0.00000000 </v>
     <v>       0.00000000      -0.00000000      22.04523361 </v>
    </varray>
    <i name="volume">    738.79983125 </i>
    <varray name="rec_basis" >
     <v>       0.16075307      -0.09281082      -0.00000000 </v>
     <v>      -0.00000000       0.18562166       0.00000000 </v>
     <v>      -0.00000000       0.00000000       0.04536128 </v>
    </varray>
   </crystal>
   <varray name="positions" >
    <v>       0.33333300       0.33333300       0.50014247 </v>
    <v>       0.66666700       0.66666700       0.50026793 </v>
    <v>       0.00000000      -0.00000000       0.44485564 </v>
    <v>       0.00000000       0.00000000       0.55178400 </v>
    <v>       0.62051265       0.00025025       0.57096302 </v>
    <v>       0.00025025       0.37923810       0.57096302 </v>
    <v>       0.37923810       0.62051265       0.57096302 </v>
    <v>       0.36418488       0.99969006       0.42954247 </v>
    <v>       0.99969006       0.63612406       0.42954247 </v>
    <v>       0.63612406       0.36418488       0.42954247 </v>
   </varray>
  </structure>
  <varray name="forces" >
   <v>       0.00000000       0.00000000       0.03505382 </v>
   <v>       0.00000000       0.00000000       0.03326105 </v>
   <v>       0.00000000       0.00000000       0.17556392 </v>
   <v>       0.00000000       0.00000000       0.21546179 </v>
   <v>      -0.10060238      -0.00454213      -0.11198097 </v>
   <v>       0.04636758       0.08939527      -0.11198097 </v>
   <v>       0.05423479      -0.08485315      -0.11198097 </v>
   <v>       0.07492979       0.00595161      -0.04113256 </v>
   <v>      -0.03231065      -0.06786690      -0.04113256 </v>
   <v>      -0.04261914       0.06191530      -0.04113256 </v>
  </varray>
  <varray name="stress" >
   <v>       0.47999282       0.00000007       0.00000000 </v>
   <v>      -0.00000014       0.47999277       0.00000000 </v>
   <v>       0.00000000       0.00000000      -1.29739977 </v>
  </varray>
  <energy>
   <i name="e_fr_energy">    -37.30549456 </i>
   <i name="e_wo_entrp">    -37.30549456 </i>
   <i name="e_0_energy">      0.00000000 </i>
  </energy>
  <time name="totalsc">  674.17  677.55</time>
 </calculation>
 <calculation>
  <scstep>
   <time name="dav">   23.06   23.14</time>
   <time name="total">   76.72   77.02</time>
   <energy>
    <i name="alphaZ">     54.42733028 </i>
[...]
        <r>  0.0006  0.0096  0.0121  0.0016  0.0000  0.0000  0.0001  0.0001  0.0000 </r>
        <r>  0.0007  0.0110  0.0091  0.0126  0.0006  0.0001  0.0002  0.0002  0.0000 </r>
        <r>  0.0011  0.0060  0.0125  0.0080  0.0001  0.0000  0.0001  0.0001  0.0001 </r>
       </set>
       <set comment="band 30">
        <r>  0.0016  0.0019  0.0037  0.0027  0.0190  0.0018  0.0073  0.0041  0.0098 </r>
        <r>  0.0003  0.0004  0.0009  0.0014  0.0438  0.0048  0.2901  0.0751  0.1894 </r>
        <r>  0.0002  0.0011  0.0043  0.0022  0.0000  0.0000  0.0000  0.0000  0.0000 </r>
        <r>  0.0001  0.0075  0.0020  0.0035  0.0000  0.0001  0.0003  0.0002  0.0005 </r>
        <r>  0.0001  0.0003  0.0208  0.0037  0.0002  0.0000  0.0000  0.0000  0.0002 </r>
        <r>  0.0019  0.0092  0.0091  0.0023  0.0002  0.0000  0.0003  0.0002  0.0001 </r>
        <r>  0.0002  0.0013  0.0234  0.0130  0.0001  0.0000  0.0003  0.0001  0.0001 </r>
        <r>  0.0001  0.0123  0.0193  0.0020  0.0002  0.0001  0.0001  0.0001  0.0002 </r>
        <r>  0.0012  0.0002  0.0156  0.0030  0.0001  0.0001  0.0003  0.0001  0.0001 </r>
        <r>  0.0000  0.0003  0.0145  0.0009  0.0001  0.0000  0.0000  0.0000  0.0002 </r>
       </set>
       <set comment="band 31">
        <r>  0.0000  0.0090  0.0013  0.0092  0.0358  0.0061  0.0076  0.0020  0.0215 </r>
        <r>  0.0002  0.0030  0.0004  0.0042  0.0190  0.0039  0.2889  0.0174  0.1133 </r>
        <r>  0.0005  0.0006  0.0021  0.0001  0.0000  0.0000  0.0000  0.0000  0.0000 </r>
        <r>  0.0002  0.0011  0.0013  0.0029  0.0000  0.0000  0.0003  0.0001  0.0001 </r>
        <r>  0.0002  0.0324  0.0146  0.0041  0.0004  0.0002  0.0002  0.0000  0.0000 </r>
        <r>  0.0004  0.0120  0.0039  0.0116  0.0001  0.0000  0.0001  0.0002  0.0000 </r>
        <r>  0.0001  0.0062  0.0065  0.0251  0.0000  0.0001  0.0001  0.0001  0.0002 </r>
        <r>  0.0000  0.0309  0.0083  0.0013  0.0001  0.0001  0.0001  0.0000  0.0000 </r>
        <r>  0.0001  0.0074  0.0029  0.0329  0.0000  0.0001  0.0000  0.0001  0.0001 </r>
        <r>  0.0000  0.0106  0.0164  0.0218  0.0001  0.0000  0.0001  0.0001  0.0002 </r>
       </set>
       <set comment="band 32">
        <r>  0.0000  0.0001  0.0000  0.0000  0.0083  0.0621  0.0000  0.1703  0.0636 </r>
        <r>  0.0000  0.0005  0.0003  0.0003  0.0264  0.0101  0.0152  0.0190  0.0353 </r>
        <r>  0.0020  0.0002  0.0042  0.0016  0.0000  0.0000  0.0000  0.0000  0.0000 </r>
        <r>  0.0042  0.0034  0.0194  0.0007  0.0004  0.0002  0.0012  0.0001  0.0004 </r>
        <r>  0.0046  0.0198  0.0263  0.0067  0.0001  0.0003  0.0000  0.0005  0.0001 </r>
        <r>  0.0062  0.0008  0.0417  0.0081  0.0001  0.0003  0.0000  0.0005  0.0000 </r>
        <r>  0.0003  0.0160  0.0001  0.0033  0.0000  0.0000  0.0000  0.0006  0.0000 </r>
        <r>  0.0006  0.0038  0.0026  0.0114  0.0001  0.0002  0.0000  0.0003  0.0000 </r>
        <r>  0.0047  0.0044  0.0462  0.0017  0.0000  0.0004  0.0000  0.0001  0.0002 </r>
        <r>  0.0040  0.0077  0.0357  0.0192  0.0000  0.0002  0.0000  0.0006  0.0002 </r>
       </set>
       <set comment="band 33">
        <r>  0.0002  0.0007  0.0001  0.0002  0.0901  0.1111  0.0007  0.0343  0.0178 </r>
        <r>  0.0001  0.0000  0.0007  0.0004  0.0283  0.0294  0.0170  0.0430  0.0351 </r>
        <r>  0.0027  0.0017  0.0027  0.0016  0.0000  0.0000  0.0000  0.0000  0.0000 </r>
        <r>  0.0041  0.0014  0.0085  0.0067  0.0003  0.0002  0.0017  0.0002  0.0010 </r>
        <r>  0.0006  0.0115  0.0159  0.0068  0.0003  0.0001  0.0001  0.0003  0.0002 </r>
        <r>  0.0012  0.0011  0.0069  0.0138  0.0000  0.0003  0.0000  0.0005  0.0006 </r>
        <r>  0.0080  0.0031  0.0513  0.0413  0.0000  0.0004  0.0000  0.0002  0.0003 </r>
        <r>  0.0057  0.0212  0.0518  0.0061  0.0004  0.0002  0.0000  0.0005  0.0000 </r>
        <r>  0.0014  0.0118  0.0104  0.0004  0.0003  0.0004  0.0000  0.0003  0.0003 </r>
        <r>  0.0001  0.0017  0.0073  0.0067  0.0001  0.0002  0.0000  0.0002  0.0003 </r>
       </set>
       <set comment="band 34">
        <r>  0.0001  0.0003  0.0007  0.0003  0.0178  0.0035  0.0114  0.0017  0.0059 </r>
        <r>  0.0001  0.0002  0.0001  0.0000  0.0934  0.1484  0.0015  0.1281  0.0489 </r>
        <r>  0.0061  0.0008  0.0005  0.0015  0.0000  0.0000  0.0000  0.0000  0.0000 </r>
        <r>  0.0108  0.0009  0.0001  0.0034  0.0003  0.0004  0.0011  0.0003  0.0005 </r>
        <r>  0.0057  0.0165  0.0352  0.0173  0.0001  0.0006  0.0000  0.0001  0.0002 </r>
        <r>  0.0016  0.0180  0.0127  0.0013  0.0005  0.0004  0.0000  0.0002  0.0001 </r>
        <r>  0.0034  0.0064  0.0242  0.0049  0.0003  0.0002  0.0000  0.0005  0.0003 </r>
        <r>  0.0022  0.0103  0.0222  0.0038  0.0003  0.0003  0.0001  0.0002  0.0004 </r>
        <r>  0.0006  0.0056  0.0107  0.0104  0.0002  0.0000  0.0000  0.0004  0.0003 </r>
        <r>  0.0042  0.0137  0.0306  0.0107  0.0004  0.0004  0.0000  0.0001  0.0000 </r>
       </set>
       <set comment="band 35">
        <r>  0.0006  0.0010  0.0004  0.0001  0.0009  0.0469  0.0000  0.0527  0.0046 </r>
        <r>  0.0006  0.0001  0.0005  0.0004  0.0283  0.0980  0.0003  0.1081  0.0246 </r>
        <r>  0.0004  0.0004  0.0008  0.0012  0.0000  0.0000  0.0000  0.0000  0.0000 </r>
        <r>  0.0037  0.0008  0.0027  0.0029  0.0002  0.0000  0.0003  0.0000  0.0005 </r>
        <r>  0.0018  0.0685  0.0012  0.0055  0.0006  0.0003  0.0001  0.0000  0.0004 </r>
        <r>  0.0004  0.0096  0.0010  0.0530  0.0006  0.0004  0.0000  0.0005  0.0008 </r>
        <r>  0.0018  0.0210  0.0025  0.0339  0.0000  0.0000  0.0000  0.0004  0.0010 </r>
        <r>  0.0016  0.0508  0.0045  0.0004  0.0005  0.0002  0.0000  0.0001  0.0001 </r>
        <r>  0.0001  0.0166  0.0004  0.0307  0.0002  0.0001  0.0000  0.0006  0.0006 </r>
        <r>  0.0009  0.0068  0.0010  0.0513  0.0000  0.0001  0.0000  0.0001  0.0006 </r>
       </set>
       <set comment="band 36">
        <r>  0.0002  0.0012  0.0004  0.0006  0.0003  0.0078  0.0010  0.0016  0.0047 </r>
        <r>  0.0001  0.0009  0.0004  0.0013  0.0057  0.0023  0.0007  0.0372  0.0105 </r>
        <r>  0.0439  0.0018  0.0017  0.0006  0.0000  0.0000  0.0000  0.0000  0.0000 </r>
        <r>  0.0947  0.0013  0.0078  0.0005  0.0001  0.0001  0.0026  0.0000  0.0000 </r>
        <r>  0.0039  0.0039  0.0001  0.0627  0.0004  0.0000  0.0003  0.0001  0.0019 </r>
        <r>  0.0042  0.0625  0.0075  0.0130  0.0024  0.0000  0.0001  0.0000  0.0009 </r>
        <r>  0.0027  0.0283  0.0007  0.0584  0.0021  0.0001  0.0003  0.0000  0.0003 </r>
        <r>  0.0022  0.0099  0.0061  0.0253  0.0000  0.0001  0.0001  0.0000  0.0020 </r>
        <r>  0.0051  0.0397  0.0095  0.0201  0.0016  0.0001  0.0001  0.0001  0.0008 </r>
        <r>  0.0038  0.0097  0.0109  0.0197  0.0016  0.0000  0.0002  0.0001  0.0003 </r>
       </set>
       <set comment="band 37">
        <r>  0.0001  0.0004  0.0000  0.0011  0.0107  0.0213  0.0001  0.0140  0.0056 </r>
        <r>  0.0001  0.0005  0.0000  0.0012  0.0079  0.0412  0.0002  0.0222  0.0082 </r>
        <r>  0.0486  0.0019  0.0648  0.0006  0.0000  0.0000  0.0000  0.0000  0.0000 </r>
        <r>  0.0259  0.0002  0.0444  0.0000  0.0000  0.0001  0.0008  0.0000  0.0000 </r>
        <r>  0.0001  0.0001  0.0219  0.0186  0.0001  0.0000  0.0004  0.0003  0.0007 </r>
        <r>  0.0001  0.0116  0.0072  0.0032  0.0004  0.0007  0.0002  0.0002  0.0002 </r>
        <r>  0.0002  0.0124  0.0214  0.0087  0.0007  0.0002  0.0004  0.0001  0.0001 </r>
        <r>  0.0018  0.0017  0.0074  0.0623  0.0001  0.0000  0.0013  0.0002  0.0042 </r>
        <r>  0.0018  0.0357  0.0004  0.0114  0.0027  0.0005  0.0006  0.0003  0.0008 </r>
        <r>  0.0013  0.0358  0.0082  0.0246  0.0039  0.0002  0.0012  0.0000  0.0005 </r>
       </set>
       <set comment="band 38">
        <r>  0.0268  0.0005  0.0029  0.0012  0.0018  0.0005  0.0023  0.0013  0.0017 </r>
        <r>  0.0257  0.0004  0.0028  0.0014  0.0025  0.0008  0.0026  0.0015  0.0020 </r>
        <r>  0.0011  0.0929  0.0006  0.0300  0.0000  0.0000  0.0000  0.0000  0.0000 </r>
        <r>  0.0001  0.0156  0.0008  0.0053  0.0022  0.0038  0.0000  0.0012  0.0008 </r>
        <r>  0.0007  0.0004  0.0005  0.0034  0.0014  0.0013  0.0000  0.0004  0.0006 </r>
        <r>  0.0043  0.0146  0.0006  0.0049  0.0008  0.0012  0.0003  0.0004  0.0003 </r>
        <r>  0.0006  0.0028  0.0004  0.0012  0.0011  0.0006  0.0000  0.0012  0.0009 </r>
        <r>  0.0031  0.0030  0.0033  0.0126  0.0097  0.0011  0.0002  0.0010  0.0013 </r>
        <r>  0.0220  0.0680  0.0074  0.0228  0.0034  0.0024  0.0012  0.0007  0.0011 </r>
        <r>  0.0032  0.0053  0.0034  0.0105  0.0053  0.0007  0.0002  0.0014  0.0056 </r>
       </set>
       <set comment="band 39">
        <r>  0.0232  0.0027  0.0021  0.0020  0.0042  0.0031  0.0014  0.0006  0.0017 </r>
        <r>  0.0239  0.0030  0.0023  0.0018  0.0050  0.0025  0.0017  0.0032  0.0026 </r>
        <r>  0.0000  0.0209  0.0000  0.0641  0.0000  0.0000  0.0000  0.0000  0.0000 </r>
        <r>  0.0000  0.0101  0.0000  0.0301  0.0014  0.0013  0.0000  0.0040  0.0040 </r>
        <r>  0.0055  0.0118  0.0000  0.0248  0.0013  0.0005  0.0004  0.0011  0.0023 </r>
        <r>  0.0000  0.0007  0.0000  0.0023  0.0011  0.0003  0.0000  0.0010  0.0033 </r>
        <r>  0.0055  0.0352  0.0000  0.0011  0.0015  0.0010  0.0005  0.0005  0.0020 </r>
        <r>  0.0080  0.0157  0.0026  0.0525  0.0020  0.0004  0.0005  0.0027  0.0021 </r>
        <r>  0.0000  0.0045  0.0000  0.0121  0.0020  0.0002  0.0000  0.0005  0.0061 </r>
        <r>  0.0081  0.0687  0.0022  0.0002  0.0012  0.0025  0.0005  0.0006  0.0030 </r>
       </set>
       <set comment="band 40">
        <r>  0.0080  0.0026  0.0022  0.0017  0.0045  0.0007  0.0007  0.0023  0.0040 </r>
        <r>  0.0080  0.0024  0.0021  0.0016  0.0016  0.0037  0.0008  0.0010  0.0089 </r>
        <r>  0.0155  0.0051  0.0582  0.0015  0.0000  0.0000  0.0000  0.0000  0.0000 </r>
        <r>  0.0196  0.0265  0.0939  0.0096  0.0038  0.0001  0.0092  0.0000  0.0014 </r>
        <r>  0.0003  0.0004  0.0123  0.0041  0.0027  0.0006  0.0015  0.0041  0.0017 </r>
        <r>  0.0063  0.0083  0.0107  0.0024  0.0013  0.0020  0.0000  0.0007  0.0004 </r>
        <r>  0.0002  0.0022  0.0122  0.0017  0.0033  0.0047  0.0014  0.0001  0.0013 </r>
        <r>  0.0001  0.0008  0.0104  0.0012  0.0011  0.0000  0.0003  0.0042  0.0006 </r>
        <r>  0.0043  0.0003  0.0201  0.0001  0.0001  0.0012  0.0001  0.0004  0.0000 </r>
        <r>  0.0001  0.0005  0.0102  0.0018  0.0015  0.0030  0.0003  0.0013  0.0003 </r>
       </set>
       <set comment="band 41">
        <r>  0.0174  0.0009  0.0014  0.0006  0.0010  0.0019  0.0023  0.0018  0.0037 </r>
        <r>  0.0168  0.0014  0.0014  0.0002  0.0057  0.0002  0.0029  0.0047  0.0002 </r>
        <r>  0.0039  0.0137  0.0200  0.0065  0.0000  0.0000  0.0000  0.0000  0.0000 </r>
        <r>  0.0127  0.0772  0.0298  0.0329  0.0107  0.0000  0.0006  0.0000  0.0046 </r>
        <r>  0.0034  0.0005  0.0007  0.0012  0.0074  0.0000  0.0001  0.0010  0.0029 </r>
        <r>  0.0177  0.0421  0.0224  0.0127  0.0049  0.0004  0.0027  0.0001  0.0019 </r>
        <r>  0.0021  0.0000  0.0010  0.0017  0.0050  0.0006  0.0000  0.0004  0.0054 </r>
        <r>  0.0015  0.0029  0.0037  0.0001  0.0035  0.0011  0.0004  0.0011  0.0002 </r>
        <r>  0.0053  0.0080  0.0093  0.0020  0.0008  0.0026  0.0014  0.0009  0.0005 </r>
        <r>  0.0009  0.0007  0.0032  0.0025  0.0013  0.0019  0.0002  0.0003  0.0028 </r>
       </set>
       <set comment="band 42">
        <r>  0.0124  0.0004  0.0027  0.0006  0.0019  0.0036  0.0023  0.0042  0.0031 </r>
        <r>  0.0113  0.0006  0.0025  0.0002  0.0014  0.0060  0.0025  0.0037  0.0037 </r>
        <r>  0.0000  0.0137  0.0000  0.0371  0.0000  0.0000  0.0000  0.0000  0.0000 </r>
        <r>  0.0000  0.0328  0.0001  0.0735  0.0041  0.0001  0.0000  0.0002  0.0088 </r>
        <r>  0.0087  0.0134  0.0023  0.0233  0.0037  0.0001  0.0019  0.0000  0.0060 </r>
        <r>  0.0001  0.0031  0.0001  0.0136  0.0033  0.0000  0.0000  0.0001  0.0090 </r>
        <r>  0.0101  0.0365  0.0023  0.0003  0.0040  0.0001  0.0020  0.0000  0.0057 </r>
        <r>  0.0057  0.0073  0.0027  0.0169  0.0024  0.0002  0.0014  0.0001  0.0018 </r>
        <r>  0.0000  0.0042  0.0000  0.0151  0.0021  0.0002  0.0000  0.0004  0.0059 </r>
        <r>  0.0061  0.0231  0.0031  0.0008  0.0006  0.0002  0.0015  0.0000  0.0030 </r>
       </set>
       <set comment="band 43">
        <r>  0.0510  0.0039  0.0058  0.0020  0.0014  0.0004  0.0044  0.0002  0.0018 </r>
        <r>  0.0475  0.0015  0.0056  0.0041  0.0012  0.0006  0.0043  0.0002  0.0023 </r>
        <r>  0.0003  0.0112  0.0010  0.0033  0.0000  0.0000  0.0000  0.0000  0.0000 </r>
        <r>  0.0006  0.0223  0.0018  0.0082  0.0007  0.0006  0.0010  0.0002  0.0003 </r>
        <r>  0.0001  0.0110  0.0004  0.0011  0.0007  0.0075  0.0004  0.0006  0.0012 </r>
        <r>  0.0031  0.0044  0.0098  0.0013  0.0013  0.0012  0.0050  0.0004  0.0005 </r>
        <r>  0.0000  0.0008  0.0005  0.0114  0.0013  0.0038  0.0003  0.0042  0.0004 </r>
        <r>  0.0004  0.0112  0.0010  0.0020  0.0031  0.0141  0.0000  0.0008  0.0000 </r>
        <r>  0.0022  0.0035  0.0145  0.0013  0.0010  0.0047  0.0035  0.0015  0.0003 </r>
        <r>  0.0005  0.0006  0.0009  0.0128  0.0006  0.0052  0.0001  0.0096  0.0025 </r>
       </set>
       <set comment="band 44">
        <r>  0.0043  0.0001  0.0006  0.0076  0.0005  0.0002  0.0003  0.0003  0.0000 </r>
        <r>  0.0037  0.0045  0.0007  0.0023  0.0002  0.0004  0.0005  0.0002  0.0003 </r>
        <r>  0.0015  0.0016  0.0010  0.0004  0.0000  0.0000  0.0000  0.0000  0.0000 </r>
        <r>  0.0027  0.0037  0.0023  0.0016  0.0005  0.0001  0.0025  0.0000  0.0002 </r>
        <r>  0.0003  0.0005  0.0023  0.0013  0.0003  0.0021  0.0005  0.0001  0.0000 </r>
        <r>  0.0015  0.0056  0.0031  0.0015  0.0005  0.0001  0.0038  0.0000  0.0002 </r>
        <r>  0.0002  0.0017  0.0017  0.0004  0.0001  0.0008  0.0003  0.0014  0.0002 </r>
        <r>  0.0015  0.0006  0.0024  0.0014  0.0009  0.0009  0.0012  0.0011  0.0002 </r>
        <r>  0.0022  0.0052  0.0063  0.0018  0.0002  0.0006  0.0016  0.0003  0.0000 </r>
        <r>  0.0017  0.0012  0.0020  0.0005  0.0001  0.0004  0.0012  0.0020  0.0011 </r>
       </set>
       <set comment="band 45">
        <r>  0.0112  0.0017  0.0017  0.0013  0.0015  0.0002  0.0016  0.0002  0.0021 </r>
        <r>  0.0094  0.0028  0.0022  0.0005  0.0015  0.0003  0.0016  0.0001  0.0021 </r>
        <r>  0.0000  0.0001  0.0000  0.0007  0.0000  0.0000  0.0000  0.0000  0.0000 </r>
        <r>  0.0000  0.0019  0.0000  0.0037  0.0001  0.0001  0.0000  0.0004  0.0003 </r>
        <r>  0.0037  0.0028  0.0062  0.0017  0.0001  0.0007  0.0034  0.0008  0.0002 </r>
        <r>  0.0000  0.0013  0.0000  0.0052  0.0001  0.0008  0.0000  0.0022  0.0001 </r>
        <r>  0.0038  0.0035  0.0061  0.0004  0.0001  0.0004  0.0036  0.0014  0.0002 </r>
        <r>  0.0010  0.0011  0.0067  0.0004  0.0002  0.0014  0.0006  0.0019  0.0001 </r>
        <r>  0.0000  0.0013  0.0000  0.0042  0.0001  0.0014  0.0000  0.0041  0.0003 </r>
        <r>  0.0011  0.0001  0.0084  0.0017  0.0001  0.0007  0.0007  0.0020  0.0001 </r>
       </set>
       <set comment="band 46">
        <r>  0.0020  0.0020  0.0007  0.0009  0.0001  0.0000  0.0014  0.0000  0.0002 </r>
        <r>  0.0029  0.0012  0.0004  0.0019  0.0002  0.0000  0.0017  0.0000  0.0001 </r>
        <r>  0.0000  0.0015  0.0000  0.0056  0.0000  0.0000  0.0000  0.0000  0.0000 </r>
        <r>  0.0000  0.0014  0.0000  0.0037  0.0001  0.0000  0.0000  0.0000  0.0003 </r>
        <r>  0.0006  0.0002  0.0011  0.0030  0.0001  0.0002  0.0013  0.0002  0.0004 </r>
        <r>  0.0000  0.0002  0.0000  0.0005  0.0002  0.0002  0.0000  0.0006  0.0006 </r>
        <r>  0.0005  0.0022  0.0011  0.0009  0.0002  0.0000  0.0014  0.0005  0.0003 </r>
        <r>  0.0027  0.0010  0.0053  0.0054  0.0001  0.0002  0.0035  0.0001  0.0003 </r>
        <r>  0.0000  0.0009  0.0000  0.0019  0.0002  0.0004  0.0000  0.0011  0.0005 </r>
        <r>  0.0024  0.0064  0.0046  0.0002  0.0001  0.0000  0.0032  0.0004  0.0004 </r>
       </set>
       <set comment="band 47">
        <r>  0.0129  0.0011  0.0050  0.0019  0.0009  0.0001  0.0000  0.0002  0.0019 </r>
        <r>  0.0141  0.0018  0.0046  0.0012  0.0010  0.0004  0.0000  0.0000  0.0026 </r>
        <r>  0.0011  0.0106  0.0053  0.0036  0.0000  0.0000  0.0000  0.0000  0.0000 </r>
        <r>  0.0002  0.0017  0.0112  0.0005  0.0002  0.0029  0.0005  0.0009  0.0001 </r>
        <r>  0.0003  0.0014  0.0024  0.0000  0.0005  0.0061  0.0001  0.0001  0.0001 </r>
        <r>  0.0014  0.0000  0.0136  0.0000  0.0008  0.0032  0.0012  0.0012  0.0003 </r>
        <r>  0.0003  0.0004  0.0029  0.0012  0.0001  0.0022  0.0001  0.0037  0.0005 </r>
        <r>  0.0002  0.0033  0.0049  0.0020  0.0016  0.0011  0.0000  0.0002  0.0011 </r>
        <r>  0.0004  0.0024  0.0009  0.0008  0.0037  0.0039  0.0036  0.0012  0.0012 </r>
        <r>  0.0002  0.0002  0.0042  0.0045  0.0005  0.0001  0.0000  0.0013  0.0021 </r>
       </set>
       <set comment="band 48">
        <r>  0.0707  0.0036  0.0058  0.0035  0.0004  0.0000  0.0013  0.0004  0.0001 </r>
        <r>  0.0665  0.0030  0.0029  0.0030  0.0003  0.0001  0.0013  0.0001  0.0003 </r>
        <r>  0.0001  0.0022  0.0003  0.0133  0.0000  0.0000  0.0000  0.0000  0.0000 </r>
        <r>  0.0000  0.0041  0.0010  0.0083  0.0002  0.0011  0.0000  0.0004  0.0002 </r>
        <r>  0.0020  0.0044  0.0172  0.0013  0.0003  0.0010  0.0008  0.0014  0.0006 </r>
        <r>  0.0000  0.0032  0.0001  0.0136  0.0000  0.0037  0.0001  0.0082  0.0004 </r>
        <r>  0.0028  0.0036  0.0149  0.0023  0.0006  0.0004  0.0017  0.0043  0.0003 </r>
        <r>  0.0062  0.0020  0.0123  0.0040  0.0021  0.0028  0.0001  0.0027  0.0017 </r>
        <r>  0.0000  0.0082  0.0000  0.0185  0.0023  0.0053  0.0001  0.0119  0.0028 </r>
        <r>  0.0062  0.0066  0.0102  0.0001  0.0024  0.0060  0.0000  0.0010  0.0007 </r>
       </set>
      </set>
     </set>
    </set>
   </array>
  </projected>
 </calculation>
 <structure name="finalpos" >
  <crystal>
   <varray name="basis" >
    <v>       6.22699908      -0.00000068      -0.00000000 </v>
    <v>       3.11349977       5.39273880      -0.00000000 </v>
    <v>      -0.00000000      -0.00000000      22.86802109 </v>
   </varray>
   <i name="volume">    767.92144936 </i>
   <varray name="rec_basis" >
    <v>       0.16059099      -0.09271727       0.00000000 </v>
    <v>       0.00000002       0.18543452       0.00000000 </v>
    <v>       0.00000000       0.00000000       0.04372919 </v>
   </varray>
  </crystal>
  <varray name="positions" >
   <v>       0.33333300       0.33333300       0.49079799 </v>
   <v>       0.66666700       0.66666700       0.49040439 </v>
   <v>       0.00000000      -0.00000000       0.44747732 </v>
   <v>       0.00000000       0.00000000       0.55178400 </v>
   <v>       0.61046625      -0.00045338       0.55881390 </v>
   <v>      -0.00045338       0.38998813       0.55881390 </v>
   <v>       0.38998813       0.61046625       0.55881390 </v>
   <v>       0.35384260       0.00099856       0.42352166 </v>
   <v>       0.00099856       0.64515784       0.42352166 </v>
   <v>       0.64515784       0.35384260       0.42352166 </v>
  </varray>
  <varray name="selective"  type="logical" >
   <v type="logical" >  T  T  T </v>
   <v type="logical" >  T  T  T </v>
   <v type="logical" >  T  T  T </v>
   <v type="logical" >  F  F  F </v>
   <v type="logical" >  T  T  T </v>
   <v type="logical" >  T  T  T </v>
   <v type="logical" >  T  T  T </v>
   <v type="logical" >  T  T  T </v>
   <v type="logical" >  T  T  T </v>
   <v type="logical" >  T  T  T </v>
  </varray>
  <nose>
   <v>      -3.00000000       0.00000000       0.00010000       0.00010000 </v>
  </nose>
 </structure>
</modeling>
