unknown system                          
           1
     6.907777   -0.000000    0.000000
     3.453888    5.982310    0.000000
     0.000000    0.000000   23.444588
   Ni   P    Ge   Se
   2   1   1   6
Direct configuration=     1
   0.33333300  0.33333300  0.49992500
   0.66666700  0.66666700  0.50007500
   0.00000000  0.00000000  0.44821600
   0.00000000  0.00000000  0.55178400
   0.62635700  0.00042000  0.57375200
   0.00042000  0.37322400  0.57375200
   0.37322400  0.62635700  0.57375200
   0.37364300  0.99958000  0.42624800
   0.99958000  0.62677600  0.42624800
   0.62677600  0.37364300  0.42624800
unknown system                          
           1
     6.160148    0.000000    0.000000
     3.080073    5.334844    0.000000
    -0.000000    0.000000   22.036721
   Ni   P    Ge   Se
   2   1   1   6
Direct configuration=     2
   0.33333300  0.33333300  0.50003342
   0.66666700  0.66666700  0.50015028
   0.00000000 -0.00000000  0.44726274
   0.00000000  0.00000000  0.55178400
   0.63028224  0.00037788  0.57118238
   0.00037788  0.36934088  0.57118238
   0.36934088  0.63028224  0.57118238
   0.36709778  0.99960522  0.42893295
   0.99960522  0.63329600  0.42893295
   0.63329600  0.36709778  0.42893295
unknown system                          
           1
     6.210789    0.000000    0.000000
     3.105394    5.378701    0.000000
    -0.000000    0.000000   22.132085
   Ni   P    Ge   Se
   2   1   1   6
Direct configuration=     3
   0.33333300  0.33333300  0.50002561
   0.66666700  0.66666700  0.50014485
   0.00000000 -0.00000000  0.44733144
   0.00000000  0.00000000  0.55178400
   0.62998409  0.00038108  0.57136756
   0.00038108  0.36963583  0.57136756
   0.36963583  0.62998409  0.57136756
   0.36759494  0.99960331  0.42873946
   0.99960331  0.63280076  0.42873946
   0.63280076  0.36759494  0.42873946
unknown system                          
           1
     6.233649    0.000000    0.000000
     3.116824    5.398498    0.000000
    -0.000000    0.000000   22.175131
   Ni   P    Ge   Se
   2   1   1   6
Direct configuration=     4
   0.33333300  0.33333300  0.50002210
   0.66666700  0.66666700  0.50014242
   0.00000000 -0.00000000  0.44736231
   0.00000000  0.00000000  0.55178400
   0.62985060  0.00038251  0.57145079
   0.00038251  0.36976788  0.57145079
   0.36976788  0.62985060  0.57145079
   0.36781752  0.99960245  0.42865250
   0.99960245  0.63257903  0.42865250
   0.63257903  0.36781752  0.42865250
unknown system                          
           1
     6.224095    0.000000    0.000000
     3.112047    5.390224    0.000000
    -0.000000    0.000000   22.157141
   Ni   P    Ge   Se
   2   1   1   6
Direct configuration=     5
   0.33333300  0.33333300  0.50002356
   0.66666700  0.66666700  0.50014343
   0.00000000 -0.00000000  0.44734944
   0.00000000  0.00000000  0.55178400
   0.62990618  0.00038192  0.57141607
   0.00038192  0.36971290  0.57141607
   0.36971290  0.62990618  0.57141607
   0.36772484  0.99960281  0.42868877
   0.99960281  0.63267135  0.42868877
   0.63267135  0.36772484  0.42868877
unknown system                          
           1
     6.222267    0.000000   -0.000000
     3.111133    5.388641   -0.000000
     0.000000   -0.000000   22.096487
   Ni   P    Ge   Se
   2   1   1   6
Direct configuration=     6
   0.33333300  0.33333300  0.50008793
   0.66666700  0.66666700  0.50021083
   0.00000000 -0.00000000  0.44599948
   0.00000000  0.00000000  0.55178400
   0.62481553  0.00031056  0.57117082
   0.00031056  0.37487490  0.57117082
   0.37487490  0.62481553  0.57117082
   0.36580643  0.99965009  0.42915090
   0.99965009  0.63454249  0.42915090
   0.63454249  0.36580643  0.42915090
unknown system                          
           1
     6.220721    0.000000   -0.000000
     3.110360    5.387302   -0.000000
     0.000000   -0.000000   22.045234
   Ni   P    Ge   Se
   2   1   1   6
Direct configuration=     7
   0.33333300  0.33333300  0.50014247
   0.66666700  0.66666700  0.50026793
   0.00000000 -0.00000000  0.44485564
   0.00000000  0.00000000  0.55178400
   0.62051265  0.00025025  0.57096302
   0.00025025  0.37923810  0.57096302
   0.37923810  0.62051265  0.57096302
   0.36418488  0.99969006  0.42954247
   0.99969006  0.63612406  0.42954247
   0.63612406  0.36418488  0.42954247
unknown system                          
           1
     6.228270    0.000000    0.000000
     3.114134    5.393840   -0.000000
     0.000000   -0.000000   21.969364
   Ni   P    Ge   Se
   2   1   1   6
Direct configuration=     8
   0.33333300  0.33333300  0.50023357
   0.66666700  0.66666700  0.50035467
   0.00000000 -0.00000000  0.44523496
   0.00000000  0.00000000  0.55178400
   0.61940639  0.00020025  0.57067017
   0.00020025  0.38039436  0.57067017
   0.38039436  0.61940639  0.57067017
   0.36473406  0.99975346  0.42946031
   0.99975346  0.63551148  0.42946031
   0.63551148  0.36473406  0.42946031
unknown system                          
           1
     6.229799    0.000000    0.000000
     3.114899    5.395164    0.000000
     0.000000   -0.000000   21.953994
   Ni   P    Ge   Se
   2   1   1   6
Direct configuration=     9
   0.33333300  0.33333300  0.50025209
   0.66666700  0.66666700  0.50037230
   0.00000000 -0.00000000  0.44531208
   0.00000000  0.00000000  0.55178400
   0.61918254  0.00019013  0.57061063
   0.00019013  0.38062833  0.57061063
   0.38062833  0.61918254  0.57061063
   0.36484519  0.99976629  0.42944361
   0.99976629  0.63538753  0.42944361
   0.63538753  0.36484519  0.42944361
unknown system                          
           1
     6.228293    0.000000   -0.000000
     3.114146    5.393859   -0.000000
    -0.000000   -0.000000   21.964519
   Ni   P    Ge   Se
   2   1   1   6
Direct configuration=    10
   0.33333300  0.33333300  0.50018626
   0.66666700  0.66666700  0.50029310
   0.00000000 -0.00000000  0.44517020
   0.00000000  0.00000000  0.55178400
   0.61880927  0.00014372  0.57039238
   0.00014372  0.38104800  0.57039238
   0.38104800  0.61880927  0.57039238
   0.36494676  0.99980814  0.42935476
   0.99980814  0.63524411  0.42935476
   0.63524411  0.36494676  0.42935476
unknown system                          
           1
     6.223774    0.000000   -0.000000
     3.111887    5.389946   -0.000000
    -0.000000   -0.000000   21.996094
   Ni   P    Ge   Se
   2   1   1   6
Direct configuration=    11
   0.33333300  0.33333300  0.49998885
   0.66666700  0.66666700  0.50005562
   0.00000000 -0.00000000  0.44474478
   0.00000000  0.00000000  0.55178400
   0.61768919  0.00000447  0.56973793
   0.00000447  0.38230734  0.56973793
   0.38230734  0.61768919  0.56973793
   0.36525154  0.99993371  0.42908832
   0.99993371  0.63481375  0.42908832
   0.63481375  0.36525154  0.42908832
unknown system                          
           1
     6.223502    0.000000   -0.000000
     3.111751    5.389711   -0.000000
    -0.000000   -0.000000   22.023591
   Ni   P    Ge   Se
   2   1   1   6
Direct configuration=    12
   0.33333300  0.33333300  0.49973505
   0.66666700  0.66666700  0.49977231
   0.00000000 -0.00000000  0.44475936
   0.00000000  0.00000000  0.55178400
   0.61770383 -0.00001136  0.56955189
  -0.00001136  0.38230853  0.56955189
   0.38230853  0.61770383  0.56955189
   0.36522272  0.99997660  0.42896157
   0.99997660  0.63479968  0.42896157
   0.63479968  0.36522272  0.42896157
unknown system                          
           1
     6.222685   -0.000000   -0.000000
     3.111342    5.389003   -0.000000
    -0.000000   -0.000000   22.106084
   Ni   P    Ge   Se
   2   1   1   6
Direct configuration=    13
   0.33333300  0.33333300  0.49897461
   0.66666700  0.66666700  0.49892345
   0.00000000 -0.00000000  0.44480306
   0.00000000  0.00000000  0.55178400
   0.61774775 -0.00005883  0.56899446
  -0.00005883  0.38231208  0.56899446
   0.38231208  0.61774775  0.56899446
   0.36513628  0.00010527  0.42858181
   0.00010527  0.63475745  0.42858181
   0.63475745  0.36513628  0.42858181
unknown system                          
           1
     6.221053   -0.000000   -0.000000
     3.110526    5.387589   -0.000000
    -0.000000   -0.000000   22.271070
   Ni   P    Ge   Se
   2   1   1   6
Direct configuration=    14
   0.33333300  0.33333300  0.49745940
   0.66666700  0.66666700  0.49723206
   0.00000000 -0.00000000  0.44489013
   0.00000000  0.00000000  0.55178400
   0.61783560 -0.00015379  0.56788375
  -0.00015379  0.38231919  0.56788375
   0.38231919  0.61783560  0.56788375
   0.36496337  0.00036266  0.42782513
   0.00036266  0.63467298  0.42782513
   0.63467298  0.36496337  0.42782513
unknown system                          
           1
     6.220241   -0.000000   -0.000000
     3.110120    5.386887   -0.000000
    -0.000000   -0.000000   22.279975
   Ni   P    Ge   Se
   2   1   1   6
Direct configuration=    15
   0.33333300  0.33333300  0.49733250
   0.66666700  0.66666700  0.49709466
   0.00000000 -0.00000000  0.44494707
   0.00000000  0.00000000  0.55178400
   0.61779371 -0.00016058  0.56774868
  -0.00016058  0.38236787  0.56774868
   0.38236787  0.61779371  0.56774868
   0.36486858  0.00038130  0.42775644
   0.00038130  0.63474913  0.42775644
   0.63474913  0.36486858  0.42775644
unknown system                          
           1
     6.217807   -0.000000   -0.000000
     3.108903    5.384778   -0.000000
    -0.000000   -0.000000   22.306690
   Ni   P    Ge   Se
   2   1   1   6
Direct configuration=    16
   0.33333300  0.33333300  0.49695194
   0.66666700  0.66666700  0.49668262
   0.00000000 -0.00000000  0.44511782
   0.00000000  0.00000000  0.55178400
   0.61766803 -0.00018094  0.56734363
  -0.00018094  0.38251391  0.56734363
   0.38251391  0.61766803  0.56734363
   0.36458417  0.00043722  0.42755048
   0.00043722  0.63497761  0.42755048
   0.63497761  0.36458417  0.42755048
unknown system                          
           1
     6.212938   -0.000000   -0.000000
     3.106469    5.380562   -0.000000
    -0.000000   -0.000000   22.360121
   Ni   P    Ge   Se
   2   1   1   6
Direct configuration=    17
   0.33333300  0.33333300  0.49619173
   0.66666700  0.66666700  0.49585953
   0.00000000 -0.00000000  0.44545892
   0.00000000  0.00000000  0.55178400
   0.61741658 -0.00022169  0.56653450
  -0.00022169  0.38280611  0.56653450
   0.38280611  0.61741658  0.56653450
   0.36401514  0.00054910  0.42713905
   0.00054910  0.63543475  0.42713905
   0.63543475  0.36401514  0.42713905
unknown system                          
           1
     6.203201   -0.000000   -0.000000
     3.101600    5.372129   -0.000000
    -0.000000   -0.000000   22.466982
   Ni   P    Ge   Se
   2   1   1   6
Direct configuration=    18
   0.33333300  0.33333300  0.49467496
   0.66666700  0.66666700  0.49421728
   0.00000000 -0.00000000  0.44613948
   0.00000000  0.00000000  0.55178400
   0.61691328 -0.00030326  0.56492011
  -0.00030326  0.38339097  0.56492011
   0.38339097  0.61691328  0.56492011
   0.36287619  0.00077305  0.42631814
   0.00077305  0.63634976  0.42631814
   0.63634976  0.36287619  0.42631814
unknown system                          
           1
     6.207214   -0.000000   -0.000000
     3.103607    5.375604   -0.000000
    -0.000000   -0.000000   22.500359
   Ni   P    Ge   Se
   2   1   1   6
Direct configuration=    19
   0.33333300  0.33333300  0.49430065
   0.66666700  0.66666700  0.49384380
   0.00000000 -0.00000000  0.44634303
   0.00000000  0.00000000  0.55178400
   0.61635447 -0.00032535  0.56437000
  -0.00032535  0.38397188  0.56437000
   0.38397188  0.61635447  0.56437000
   0.36215039  0.00081832  0.42604675
   0.00081832  0.63703029  0.42604675
   0.63703029  0.36215039  0.42604675
unknown system                          
           1
     6.219253   -0.000001   -0.000000
     3.109627    5.386031   -0.000000
    -0.000000   -0.000000   22.600490
   Ni   P    Ge   Se
   2   1   1   6
Direct configuration=    20
   0.33333300  0.33333300  0.49317940
   0.66666700  0.66666700  0.49272504
   0.00000000 -0.00000000  0.44695276
   0.00000000  0.00000000  0.55178400
   0.61467911 -0.00039157  0.56272213
  -0.00039157  0.38571346  0.56272213
   0.38571346  0.61467911  0.56272213
   0.35997439  0.00095405  0.42523377
   0.00095405  0.63907057  0.42523377
   0.63907057  0.35997439  0.42523377
unknown system                          
           1
     6.243331   -0.000001   -0.000000
     3.121666    5.406883   -0.000000
    -0.000000   -0.000000   22.800751
   Ni   P    Ge   Se
   2   1   1   6
Direct configuration=    21
   0.33333300  0.33333300  0.49094684
   0.66666700  0.66666700  0.49049742
   0.00000000 -0.00000000  0.44816684
   0.00000000  0.00000000  0.55178400
   0.61133488 -0.00052375  0.55944098
  -0.00052375  0.38918987  0.55944098
   0.38918987  0.61133488  0.55944098
   0.35563081  0.00122497  0.42361501
   0.00122497  0.64314322  0.42361501
   0.64314322  0.35563081  0.42361501
unknown system                          
           1
     6.235709   -0.000001   -0.000000
     3.117855    5.400282   -0.000000
    -0.000000   -0.000000   22.737360
   Ni   P    Ge   Se
   2   1   1   6
Direct configuration=    22
   0.33333300  0.33333300  0.49164733
   0.66666700  0.66666700  0.49119636
   0.00000000 -0.00000000  0.44778591
   0.00000000  0.00000000  0.55178400
   0.61238939 -0.00048207  0.56047048
  -0.00048207  0.38809368  0.56047048
   0.38809368  0.61238939  0.56047048
   0.35700043  0.00113954  0.42412292
   0.00113954  0.64185903  0.42412292
   0.64185903  0.35700043  0.42412292
unknown system                          
           1
     6.228454   -0.000001   -0.000000
     3.114227    5.393999   -0.000000
    -0.000000   -0.000000   22.804442
   Ni   P    Ge   Se
   2   1   1   6
Direct configuration=    23
   0.33333300  0.33333300  0.49091203
   0.66666700  0.66666700  0.49050803
   0.00000000 -0.00000000  0.44769119
   0.00000000  0.00000000  0.55178400
   0.61093526 -0.00048753  0.55913576
  -0.00048753  0.38955327  0.55913576
   0.38955327  0.61093526  0.55913576
   0.35442343  0.00115079  0.42363503
   0.00115079  0.64442479  0.42363503
   0.64442479  0.35442343  0.42363503
unknown system                          
           1
     6.226913   -0.000001   -0.000000
     3.113457    5.392665   -0.000000
    -0.000000   -0.000000   22.818688
   Ni   P    Ge   Se
   2   1   1   6
Direct configuration=    24
   0.33333300  0.33333300  0.49075633
   0.66666700  0.66666700  0.49036229
   0.00000000 -0.00000000  0.44767113
   0.00000000  0.00000000  0.55178400
   0.61062609 -0.00048869  0.55885315
  -0.00048869  0.38986360  0.55885315
   0.38986360  0.61062609  0.55885315
   0.35387552  0.00115318  0.42353172
   0.00115318  0.64497030  0.42353172
   0.64497030  0.35387552  0.42353172
unknown system                          
           1
     6.227001   -0.000001   -0.000000
     3.113501    5.392740   -0.000000
    -0.000000   -0.000000   22.869065
   Ni   P    Ge   Se
   2   1   1   6
Direct configuration=    25
   0.33333300  0.33333300  0.49079886
   0.66666700  0.66666700  0.49040528
   0.00000000 -0.00000000  0.44747323
   0.00000000  0.00000000  0.55178400
   0.61046287 -0.00045264  0.55881307
  -0.00045264  0.38999077  0.55881307
   0.38999077  0.61046287  0.55881307
   0.35384191  0.00099529  0.42352145
   0.00099529  0.64516181  0.42352145
   0.64516181  0.35384191  0.42352145
unknown system                          
           1
     6.226999   -0.000001   -0.000000
     3.113500    5.392739   -0.000000
    -0.000000   -0.000000   22.868021
   Ni   P    Ge   Se
   2   1   1   6
Direct configuration=    26
   0.33333300  0.33333300  0.49079799
   0.66666700  0.66666700  0.49040439
   0.00000000 -0.00000000  0.44747732
   0.00000000  0.00000000  0.55178400
   0.61046625 -0.00045338  0.55881390
  -0.00045338  0.38998813  0.55881390
   0.38998813  0.61046625  0.55881390
   0.35384260  0.00099856  0.42352166
   0.00099856  0.64515784  0.42352166
   0.64515784  0.35384260  0.42352166
