 vasp.5.4.4.18Apr17-6-g9f103f2a35 (build May  1 2020 15:48:39) complex           
 executed on             LinuxGNU date 2020.06.27  20:48:54
 running on   16 total cores
 distrk:  each k-point on   16 cores,    1 groups
 distr:  one band on NCORES_PER_BAND=   1 cores,   16 groups


--------------------------------------------------------------------------------------------------------


 INCAR:
 POTCAR:   PAW_PBE Co 06Sep2000                   
 POTCAR:   PAW_PBE Ge 05Jan2001                   
 POTCAR:    PAW_PBE P 17Jan2003                   
 POTCAR:   PAW_PBE Te 08Apr2002                   

 ----------------------------------------------------------------------------- 
|                                                                             |
|           W    W    AA    RRRRR   N    N  II  N    N   GGGG   !!!           |
|           W    W   A  A   R    R  NN   N  II  NN   N  G    G  !!!           |
|           W    W  A    A  R    R  N N  N  II  N N  N  G       !!!           |
|           W WW W  AAAAAA  RRRRR   N  N N  II  N  N N  G  GGG   !            |
|           WW  WW  A    A  R   R   N   NN  II  N   NN  G    G                |
|           W    W  A    A  R    R  N    N  II  N    N   GGGG   !!!           |
|                                                                             |
|      For optimal performance we recommend to set                            |
|        NCORE= 4 - approx SQRT( number of cores)                             |
|      NCORE specifies how many cores store one orbital (NPAR=cpu/NCORE).     |
|      This setting can  greatly improve the performance of VASP for DFT.     |
|      The default,   NCORE=1            might be grossly inefficient         |
|      on modern multi-core architectures or massively parallel machines.     |
|      Do your own testing !!!!                                               |
|      Unfortunately you need to use the default for GW and RPA calculations. |
|      (for HF NCORE is supported but not extensively tested yet)             |
|                                                                             |
 ----------------------------------------------------------------------------- 


 ----------------------------------------------------------------------------- 
|                                                                             |
|  ADVICE TO THIS USER RUNNING 'VASP/VAMP'   (HEAR YOUR MASTER'S VOICE ...):  |
|                                                                             |
|      You have switched on vdW-DFT.                                          |
|      This routine was written and supplied by Jiri Klimes.                  |
|      We recommed that you carefully read and cite the following             |
|      publication                                                            |
|      J. Klimes, D.R. Bowler, A. Michelides                                  |
|        J. Phys.: Cond Matt. 22 022201 (2010)                                |
|      J. Klimes, D.R. Bowler, A. Michelides                                  |
|        Phys. Rev. B. 83, 195131 (2011)                                      |
|      and references therein.                                                |
|                                                                             |
 ----------------------------------------------------------------------------- 

 POTCAR:   PAW_PBE Co 06Sep2000                   
   VRHFIN =Co: d8 s1                                                            
   LEXCH  = PE                                                                  
   EATOM  =   813.5563 eV,   59.7947 Ry                                         
                                                                                
   TITEL  = PAW_PBE Co 06Sep2000                                                
   LULTRA =        F    use ultrasoft PP ?                                      
   IUNSCR =        1    unscreen: 0-lin 1-nonlin 2-no                           
   RPACOR =    2.000    partial core radius                                     
   POMASS =   58.933; ZVAL   =    9.000    mass and valenz                      
   RCORE  =    2.300    outmost cutoff radius                                   
   RWIGS  =    2.460; RWIGS  =    1.302    wigner-seitz radius (au A)           
   ENMAX  =  267.969; ENMIN  =  200.977 eV                                      
   RCLOC  =    1.697    cutoff for local pot                                    
   LCOR   =        T    correct aug charges                                     
   LPAW   =        T    paw PP                                                  
   EAUG   =  477.818                                                            
   DEXC   =    -.016                                                            
   RMAX   =    2.817    core radius for proj-oper                               
   RAUG   =    1.300    factor for augmentation sphere                          
   RDEP   =    2.393    radius for radial grids                                 
   QCUT   =   -4.438; QGAM   =    8.876    optimization parameters              
                                                                                
   Description                                                                  
     l     E      TYP  RCUT    TYP  RCUT                                        
     2   .000     23  2.300                                                     
     2   .000     23  2.300                                                     
     0   .000     23  2.300                                                     
     0   .000     23  2.300                                                     
     1  -.200     23  2.300                                                     
     1   .000     23  2.300                                                     
     3   .000      7   .000                                                     
  local pseudopotential read in
  partial core-charges read in
  atomic valenz-charges read in
  non local Contribution for L=           2  read in
    real space projection operators read in
  non local Contribution for L=           2  read in
    real space projection operators read in
  non local Contribution for L=           0  read in
    real space projection operators read in
  non local Contribution for L=           0  read in
    real space projection operators read in
  non local Contribution for L=           1  read in
    real space projection operators read in
  non local Contribution for L=           1  read in
    real space projection operators read in
    PAW grid and wavefunctions read in

   number of l-projection  operators is LMAX  =           6
   number of lm-projection operators is LMMAX =          18

 POTCAR:   PAW_PBE Ge 05Jan2001                   
   VRHFIN =Ge: s2p2                                                             
   LEXCH  = PE                                                                  
   EATOM  =   104.9960 eV,    7.7170 Ry                                         
                                                                                
   TITEL  = PAW_PBE Ge 05Jan2001                                                
   LULTRA =        F    use ultrasoft PP ?                                      
   IUNSCR =        1    unscreen: 0-lin 1-nonlin 2-no                           
   RPACOR =    2.170    partial core radius                                     
   POMASS =   72.610; ZVAL   =    4.000    mass and valenz                      
   RCORE  =    2.300    outmost cutoff radius                                   
   RWIGS  =    2.300; RWIGS  =    1.217    wigner-seitz radius (au A)           
   ENMAX  =  173.807; ENMIN  =  130.355 eV                                      
   ICORE  =        3    local potential                                         
   LCOR   =        T    correct aug charges                                     
   LPAW   =        T    paw PP                                                  
   EAUG   =  385.843                                                            
   DEXC   =    -.138                                                            
   RMAX   =    3.497    core radius for proj-oper                               
   RAUG   =    1.300    factor for augmentation sphere                          
   RDEP   =    2.318    radius for radial grids                                 
   QCUT   =   -3.574; QGAM   =    7.148    optimization parameters              
                                                                                
   Description                                                                  
     l     E      TYP  RCUT    TYP  RCUT                                        
     0   .000     23  2.300                                                     
     0   .000     23  2.300                                                     
     1   .000     23  2.300                                                     
     1   .000     23  2.300                                                     
     2   .000     23  2.300                                                     
     3  -.100      7  2.300                                                     
  local pseudopotential read in
  partial core-charges read in
  atomic valenz-charges read in
  non local Contribution for L=           0  read in
    real space projection operators read in
  non local Contribution for L=           0  read in
    real space projection operators read in
  non local Contribution for L=           1  read in
    real space projection operators read in
  non local Contribution for L=           1  read in
    real space projection operators read in
  non local Contribution for L=           2  read in
    real space projection operators read in
    PAW grid and wavefunctions read in

   number of l-projection  operators is LMAX  =           5
   number of lm-projection operators is LMMAX =          13

 POTCAR:    PAW_PBE P 17Jan2003                   
   VRHFIN =P : s2p3                                                             
   LEXCH  = PE                                                                  
   EATOM  =   176.0430 eV,   12.9388 Ry                                         
                                                                                
   TITEL  = PAW_PBE P 17Jan2003                                                 
   LULTRA =        F    use ultrasoft PP ?                                      
   IUNSCR =        1    unscreen: 0-lin 1-nonlin 2-no                           
   RPACOR =    1.500    partial core radius                                     
   POMASS =   30.974; ZVAL   =    5.000    mass and valenz                      
   RCORE  =    1.900    outmost cutoff radius                                   
   RWIGS  =    2.330; RWIGS  =    1.233    wigner-seitz radius (au A)           
   ENMAX  =  270.000; ENMIN  =  191.280 eV                                      
   ICORE  =        2    local potential                                         
   LCOR   =        T    correct aug charges                                     
   LPAW   =        T    paw PP                                                  
   EAUG   =  342.924                                                            
   DEXC   =    -.002                                                            
   RMAX   =    2.887    core radius for proj-oper                               
   RAUG   =    1.300    factor for augmentation sphere                          
   RDEP   =    1.931    radius for radial grids                                 
   QCUT   =   -4.330; QGAM   =    8.659    optimization parameters              
                                                                                
   Description                                                                  
     l     E      TYP  RCUT    TYP  RCUT                                        
     0   .000     23  1.900                                                     
     0   .000     23  1.900                                                     
     1   .000     23  1.900                                                     
     1   .000     23  1.900                                                     
     2   .000     23  1.900                                                     
  local pseudopotential read in
  partial core-charges read in
  atomic valenz-charges read in
  non local Contribution for L=           0  read in
    real space projection operators read in
  non local Contribution for L=           0  read in
    real space projection operators read in
  non local Contribution for L=           1  read in
    real space projection operators read in
  non local Contribution for L=           1  read in
    real space projection operators read in
    PAW grid and wavefunctions read in

   number of l-projection  operators is LMAX  =           4
   number of lm-projection operators is LMMAX =           8

 POTCAR:   PAW_PBE Te 08Apr2002                   
   VRHFIN =Te: s2p4                                                             
   LEXCH  = PE                                                                  
   EATOM  =   223.2721 eV,   16.4100 Ry                                         
                                                                                
   TITEL  = PAW_PBE Te 08Apr2002                                                
   LULTRA =        F    use ultrasoft PP ?                                      
   IUNSCR =        1    unscreen: 0-lin 1-nonlin 2-no                           
   RPACOR =    2.200    partial core radius                                     
   POMASS =  127.600; ZVAL   =    6.000    mass and valenz                      
   RCORE  =    2.300    outmost cutoff radius                                   
   RWIGS  =    2.900; RWIGS  =    1.535    wigner-seitz radius (au A)           
   ENMAX  =  174.982; ENMIN  =  131.236 eV                                      
   ICORE  =        3    local potential                                         
   LCOR   =        T    correct aug charges                                     
   LPAW   =        T    paw PP                                                  
   EAUG   =  368.792                                                            
   DEXC   =    -.169                                                            
   RMAX   =    3.486    core radius for proj-oper                               
   RAUG   =    1.300    factor for augmentation sphere                          
   RDEP   =    2.397    radius for radial grids                                 
   QCUT   =   -3.586; QGAM   =    7.172    optimization parameters              
                                                                                
   Description                                                                  
     l     E      TYP  RCUT    TYP  RCUT                                        
     0   .000     23  2.300                                                     
     0   .000     23  2.300                                                     
     1   .000     23  2.300                                                     
     1   .000     23  2.300                                                     
     2   .000     23  2.300                                                     
     3  -.100     23  2.300                                                     
  local pseudopotential read in
  partial core-charges read in
  atomic valenz-charges read in
  non local Contribution for L=           0  read in
    real space projection operators read in
  non local Contribution for L=           0  read in
    real space projection operators read in
  non local Contribution for L=           1  read in
    real space projection operators read in
  non local Contribution for L=           1  read in
    real space projection operators read in
  non local Contribution for L=           2  read in
    real space projection operators read in
    PAW grid and wavefunctions read in

   number of l-projection  operators is LMAX  =           5
   number of lm-projection operators is LMMAX =          13

 Optimization of the real space projectors (new method)

 maximal supplied QI-value         = 16.25
 optimisation between [QCUT,QGAM] = [ 11.54, 23.24] = [ 37.28,151.24] Ry 
 Optimized for a Real-space Cutoff    1.53 Angstroem

   l    n(q)    QCUT    max X(q) W(low)/X(q) W(high)/X(q)  e(spline) 
   2     10    11.539     4.599    0.83E-05    0.15E-04    0.45E-07
   2     10    11.539    18.158    0.10E-03    0.14E-03    0.24E-06
   0     11    11.539    15.740    0.19E-04    0.12E-05    0.17E-07
   0     11    11.539    47.662    0.48E-04    0.15E-04    0.31E-06
   1     10    11.539     5.777    0.11E-04    0.46E-05    0.25E-07
   1     10    11.539     8.007    0.46E-04    0.29E-04    0.11E-06
 Optimization of the real space projectors (new method)

 maximal supplied QI-value         = 16.25
 optimisation between [QCUT,QGAM] = [ 11.54, 23.24] = [ 37.28,151.24] Ry 
 Optimized for a Real-space Cutoff    1.28 Angstroem

   l    n(q)    QCUT    max X(q) W(low)/X(q) W(high)/X(q)  e(spline) 
   0      9    11.539     8.651    0.22E-04    0.16E-04    0.10E-07
   0      9    11.539    33.192    0.11E-03    0.16E-03    0.65E-07
   1      8    11.539     5.899    0.37E-04    0.28E-04    0.43E-07
   1      8    11.539    27.289    0.22E-03    0.28E-04    0.14E-06
   2      8    11.539     4.673    0.11E-03    0.18E-03    0.58E-07
 Optimization of the real space projectors (new method)

 maximal supplied QI-value         = 19.84
 optimisation between [QCUT,QGAM] = [ 11.51, 23.22] = [ 37.09,150.92] Ry 
 Optimized for a Real-space Cutoff    1.21 Angstroem

   l    n(q)    QCUT    max X(q) W(low)/X(q) W(high)/X(q)  e(spline) 
   0      8    11.508     6.651    0.19E-04    0.31E-05    0.49E-08
   0      8    11.508    90.285    0.95E-04    0.17E-03    0.51E-07
   1      8    11.508     4.328    0.14E-04    0.32E-04    0.22E-07
   1      8    11.508    54.583    0.16E-03    0.71E-04    0.89E-07
 Optimization of the real space projectors (new method)

 maximal supplied QI-value         = 16.25
 optimisation between [QCUT,QGAM] = [ 11.54, 23.24] = [ 37.28,151.24] Ry 
 Optimized for a Real-space Cutoff    1.36 Angstroem

   l    n(q)    QCUT    max X(q) W(low)/X(q) W(high)/X(q)  e(spline) 
   0      9    11.539     7.090    0.13E-04    0.25E-05    0.51E-08
   0      9    11.539   101.654    0.53E-04    0.69E-04    0.12E-06
   1      9    11.539     5.276    0.20E-04    0.98E-05    0.24E-07
   1      9    11.539    81.891    0.24E-03    0.13E-04    0.15E-06
   2      9    11.539     5.599    0.30E-04    0.97E-04    0.54E-07

 ----------------------------------------------------------------------------- 
|                                                                             |
|  ADVICE TO THIS USER RUNNING 'VASP/VAMP'   (HEAR YOUR MASTER'S VOICE ...):  |
|                                                                             |
|      You enforced a specific xc-type in the INCAR file,                     |
|      a different type was found on the POTCAR file                          |
|          I HOPE YOU KNOW, WHAT YOU ARE  DOING                               |
|                                                                             |
 ----------------------------------------------------------------------------- 

 PAW_PBE Co 06Sep2000                   :
 energy of atom  1       EATOM= -813.5563
 kinetic energy error for atom=    0.0028 (will be added to EATOM!!)
 PAW_PBE Ge 05Jan2001                   :
 energy of atom  2       EATOM= -104.9960
 kinetic energy error for atom=    0.0002 (will be added to EATOM!!)
  PAW_PBE P 17Jan2003                   :
 energy of atom  3       EATOM= -176.0430
 kinetic energy error for atom=    0.0011 (will be added to EATOM!!)
 PAW_PBE Te 08Apr2002                   :
 energy of atom  4       EATOM= -223.2721
 kinetic energy error for atom=    0.0007 (will be added to EATOM!!)


 POSCAR: Co2 Ge P Te6                            
  positions in direct lattice
  velocities in cartesian coordinates
  No initial velocities read in
 exchange correlation table for  LEXCH =       42
   RHO(1)=    0.500       N(1)  =     2000
   RHO(2)=  100.500       N(2)  =     4000



--------------------------------------------------------------------------------------------------------


 ion  position               nearest neighbor table
   1  0.333  0.333  0.500-   6 2.78   5 2.78   7 2.78   8 2.78  10 2.78   9 2.78
   2  0.667  0.667  0.500-   9 2.78   8 2.78  10 2.78   5 2.78   7 2.78   6 2.78
   3  0.000  0.000  0.448-   4 2.43   8 2.63  10 2.63   9 2.63
   4  0.000  0.000  0.552-   3 2.43   5 2.63   7 2.63   6 2.63
   5  0.626  0.000  0.574-   4 2.63   1 2.78   2 2.78
   6  0.000  0.373  0.574-   4 2.63   1 2.78   2 2.78
   7  0.373  0.626  0.574-   4 2.63   1 2.78   2 2.78
   8  0.374  1.000  0.426-   3 2.63   2 2.78   1 2.78
   9  1.000  0.627  0.426-   3 2.63   2 2.78   1 2.78
  10  0.627  0.374  0.426-   3 2.63   2 2.78   1 2.78

  LATTYP: Found a hexagonal cell.
 ALAT       =     6.9077769333
 C/A-ratio  =     3.3939410937
  
  Lattice vectors:
  
 A1 = (   3.4538890000,  -5.9823100000,   0.0000000000)
 A2 = (  -6.9077770000,   0.0000000000,   0.0000000000)
 A3 = (   0.0000000000,   0.0000000000, -23.4445880000)


Analysis of symmetry for initial positions (statically):
=====================================================================
 Subroutine PRICEL returns:
 Original cell was already a primitive cell.
 

 Routine SETGRP: Setting up the symmetry group for a 
 hexagonal supercell.


 Subroutine GETGRP returns: Found  3 space group operations
 (whereof  3 operations were pure point group operations)
 out of a pool of 24 trial point group operations.


The static configuration has the point symmetry C_3 .


Analysis of symmetry for dynamics (positions and initial velocities):
=====================================================================
 Subroutine PRICEL returns:
 Original cell was already a primitive cell.
 

 Routine SETGRP: Setting up the symmetry group for a 
 hexagonal supercell.


 Subroutine GETGRP returns: Found  3 space group operations
 (whereof  3 operations were pure point group operations)
 out of a pool of 24 trial point group operations.


The dynamic configuration has the point symmetry C_3 .


Analysis of constrained symmetry for selective dynamics:
=====================================================================
 Subroutine PRICEL returns:
 Original cell was already a primitive cell.
 

 Routine SETGRP: Setting up the symmetry group for a 
 hexagonal supercell.


 Subroutine GETGRP returns: Found  3 space group operations
 (whereof  3 operations were pure point group operations)
 out of a pool of 24 trial point group operations.


The constrained configuration has the point symmetry C_3 .


Analysis of structural, dynamic, and magnetic symmetry:
=====================================================================
 Subroutine PRICEL returns:
 Original cell was already a primitive cell.
 

 Routine SETGRP: Setting up the symmetry group for a 
 hexagonal supercell.


 Subroutine GETGRP returns: Found  3 space group operations
 (whereof  3 operations were pure point group operations)
 out of a pool of 24 trial point group operations.


The magnetic configuration has the point symmetry C_3 .


 Subroutine INISYM returns: Found  3 space group operations
 (whereof  3 operations are pure point group operations),
 and found     1 'primitive' translations



 KPOINTS: Kpoints from vasprun.xml                

Automatic generation of k-mesh.
Space group operators:
 irot       det(A)        alpha          n_x          n_y          n_z        tau_x        tau_y        tau_z
    1     1.000000     0.000000     1.000000     0.000000     0.000000     0.000000     0.000000     0.000000
    2     1.000000   120.000000     0.000000     0.000000     1.000000     0.000000     0.000000     0.000000
    3     1.000000   120.000000     0.000000     0.000000    -1.000000     0.000000     0.000000     0.000000
 
 Subroutine IBZKPT returns following result:
 ===========================================
 
 Found      5 irreducible k-points:
 
 Following reciprocal coordinates:
            Coordinates               Weight
  0.000000  0.000000  0.000000      1.000000
  0.200000  0.000000  0.000000      6.000000
  0.400000  0.000000  0.000000      6.000000
  0.400000  0.200000  0.000000      6.000000
 -0.400000  0.200000  0.000000      6.000000
 
 Following cartesian coordinates:
            Coordinates               Weight
  0.000000  0.000000  0.000000      1.000000
  0.028953 -0.016716  0.000000      6.000000
  0.057906 -0.033432  0.000000      6.000000
  0.057906  0.000000  0.000000      6.000000
 -0.057906  0.066864  0.000000      6.000000
 
 TETIRR: Found     15 inequivalent tetrahedra from      150


--------------------------------------------------------------------------------------------------------




 Dimension of arrays:
   k-points           NKPTS =      5   k-points in BZ     NKDIM =      5   number of bands    NBANDS=     48
   number of dos      NEDOS =    301   number of ions     NIONS =     10
   non local maximal  LDIM  =      6   non local SUM 2l+1 LMDIM =     18
   total plane-waves  NPLWV = 524880
   max r-space proj   IRMAX =   8238   max aug-charges    IRDMAX=  31706
   dimension x,y,z NGX =    54 NGY =   54 NGZ =  180
   dimension x,y,z NGXF=   108 NGYF=  108 NGZF=  360
   support grid    NGXF=   108 NGYF=  108 NGZF=  360
   ions per type =               2   1   1   6
   NGX,Y,Z   is equivalent  to a cutoff of  13.00, 13.00, 12.76 a.u.
   NGXF,Y,Z  is equivalent  to a cutoff of  25.99, 25.99, 25.53 a.u.

 SYSTEM =  unknown system                          
 POSCAR =  Co2 Ge P Te6                            

 Startparameter for this run:
   NWRITE =      2    write-flag & timer
   PREC   = accura    normal or accurate (medium, high low for compatibility)
   ISTART =      0    job   : 0-new  1-cont  2-samecut
   ICHARG =      2    charge: 1-file 2-atom 10-const
   ISPIN  =      2    spin polarized calculation?
   LNONCOLLINEAR =      F non collinear calculations
   LSORBIT =      F    spin-orbit coupling
   INIWAV =      1    electr: 0-lowe 1-rand  2-diag
   LASPH  =      F    aspherical Exc in radial PAW
   METAGGA=      F    non-selfconsistent MetaGGA calc.

 Electronic Relaxation 1
   ENCUT  =  520.0 eV  38.22 Ry    6.18 a.u.  12.84 12.84 43.59*2*pi/ulx,y,z
   ENINI  =  520.0     initial cutoff
   ENAUG  =  477.8 eV  augmentation charge cutoff
   NELM   =    400;   NELMIN=  2; NELMDL=  0     # of ELM steps 
   EDIFF  = 0.1E-03   stopping-criterion for ELM
   LREAL  =      T    real-space projection
   NLSPLINE    = F    spline interpolate recip. space projectors
   LCOMPAT=      F    compatible to vasp.4.4
   GGA_COMPAT  = T    GGA compatible to vasp.4.4-vasp.4.6
   LMAXPAW     = -100 max onsite density
   LMAXMIX     =    2 max onsite mixed and CHGCAR
   VOSKOWN=      0    Vosko Wilk Nusair interpolation
   ROPT   =   -0.00025  -0.00025  -0.00025  -0.00025
 Ionic relaxation
   EDIFFG = 0.1E-02   stopping-criterion for IOM
   NSW    =     99    number of steps for IOM
   NBLOCK =      1;   KBLOCK =     99    inner block; outer block 
   IBRION =      2    ionic relax: 0-MD 1-quasi-New 2-CG
   NFREE  =      1    steps in history (QN), initial steepest desc. (CG)
   ISIF   =      3    stress and relaxation
   IWAVPR =     11    prediction:  0-non 1-charg 2-wave 3-comb
   ISYM   =      2    0-nonsym 1-usesym 2-fastsym
   LCORR  =      T    Harris-Foulkes like correction to forces

   POTIM  = 0.5000    time-step for ionic-motion
   TEIN   =    0.0    initial temperature
   TEBEG  =    0.0;   TEEND  =   0.0 temperature during run
   SMASS  =  -3.00    Nose mass-parameter (am)
   estimated Nose-frequenzy (Omega)   =  0.10E-29 period in steps =****** mass=  -0.109E-26a.u.
   SCALEE = 1.0000    scale energy and forces
   NPACO  =    256;   APACO  = 16.0  distance and # of slots for P.C.
   PSTRESS=    0.0 pullay stress

  Mass of Ions in am
   POMASS =  58.93 72.61 30.97127.60
  Ionic Valenz
   ZVAL   =   9.00  4.00  5.00  6.00
  Atomic Wigner-Seitz radii
   RWIGS  =  -1.00 -1.00 -1.00 -1.00
  virtual crystal weights 
   VCA    =   1.00  1.00  1.00  1.00
   NELECT =      63.0000    total number of electrons
   NUPDOWN=      -1.0000    fix difference up-down

 DOS related values:
   EMIN   =  10.00;   EMAX   =-10.00  energy-range for DOS
   EFERMI =   0.00
   ISMEAR =    -5;   SIGMA  =   0.05  broadening in eV -4-tet -1-fermi 0-gaus

 Electronic relaxation 2 (details)
   IALGO  =     38    algorithm
   LDIAG  =      T    sub-space diagonalisation (order eigenvalues)
   LSUBROT=      F    optimize rotation matrix (better conditioning)
   TURBO    =      0    0=normal 1=particle mesh
   IRESTART =      0    0=no restart 2=restart with 2 vectors
   NREBOOT  =      0    no. of reboots
   NMIN     =      0    reboot dimension
   EREF     =   0.00    reference energy to select bands
   IMIX   =      4    mixing-type and parameters
     AMIX     =   0.40;   BMIX     =  1.00
     AMIX_MAG =   1.60;   BMIX_MAG =  1.00
     AMIN     =   0.01
     WC   =   100.;   INIMIX=   1;  MIXPRE=   1;  MAXMIX= -45

 Intra band minimization:
   WEIMIN = 0.0010     energy-eigenvalue tresh-hold
   EBREAK =  0.52E-06  absolut break condition
   DEPER  =   0.30     relativ break condition  

   TIME   =   0.40     timestep for ELM

  volume/ion in A,a.u.               =      96.88       653.80
  Fermi-wavevector in a.u.,A,eV,Ry     =   0.658322  1.244048  5.896601  0.433388
  Thomas-Fermi vector in A             =   1.730108

 Write flags
   LWAVE        =      F    write WAVECAR
   LDOWNSAMPLE  =      F    k-point downsampling of WAVECAR
   LCHARG       =      T    write CHGCAR
   LVTOT        =      F    write LOCPOT, total local potential
   LVHAR        =      F    write LOCPOT, Hartree potential only
   LELF         =      F    write electronic localiz. function (ELF)
   LORBIT       =     11    0 simple, 1 ext, 2 COOP (PROOUT), +10 PAW based schemes


 Dipole corrections
   LMONO  =      F    monopole corrections only (constant potential shift)
   LDIPOL =      F    correct potential (dipole corrections)
   IDIPOL =      0    1-x, 2-y, 3-z, 4-all directions 
   EPSILON=  1.0000000 bulk dielectric constant

 Exchange correlation treatment:
   GGA     =    BO    GGA type
   LEXCH   =    42    internal setting for exchange type
   VOSKOWN=      0    Vosko Wilk Nusair interpolation
   LHFCALC =     F    Hartree Fock is set to
   LHFONE  =     F    Hartree Fock one center treatment
   AEXX    =    0.0000 exact exchange contribution

 vdW DFT:
   LUSE_VDW   =     T    switch on vdW DFT
   Zab_VDW    =-.8491    correlation parameter
   PARAM1     =0.1833
   PARAM2     =0.2200
   PARAM3     =0.0000
   -- rVV10 --
   BPARAM     = 6.3000
   CPARAM     = 0.0093

 Linear response parameters
   LEPSILON=     F    determine dielectric tensor
   LRPA    =     F    only Hartree local field effects (RPA)
   LNABLA  =     F    use nabla operator in PAW spheres
   LVEL    =     F    velocity operator in full k-point grid
   LINTERFAST=   F  fast interpolation
   KINTER  =     0    interpolate to denser k-point grid
   CSHIFT  =0.1000    complex shift for real part using Kramers Kronig
   OMEGAMAX=  -1.0    maximum frequency
   DEG_THRESHOLD= 0.2000000E-02 threshold for treating states as degnerate
   RTIME   =   -0.100 relaxation time in fs
  (WPLASMAI=    0.000 imaginary part of plasma frequency in eV, 0.658/RTIME)
   DFIELD  = 0.0000000 0.0000000 0.0000000 field for delta impulse in time

 Orbital magnetization related:
   ORBITALMAG=     F  switch on orbital magnetization
   LCHIMAG   =     F  perturbation theory with respect to B field
   DQ        =  0.001000  dq finite difference perturbation B field
   LLRAUG    =     F  two centre corrections for induced B field



--------------------------------------------------------------------------------------------------------


 conjugate gradient relaxation of ions
   using selective dynamics as specified on POSCAR
 charge density and potential will be updated during run
 spin polarized calculation
 Variant of blocked Davidson
 Davidson routine will perform the subspace rotation
 perform sub-space diagonalisation
    after iterative eigenvector-optimisation
 modified Broyden-mixing scheme, WC =      100.0
 initial mixing is a Kerker type mixing with AMIX =  0.4000 and BMIX =      1.0000
 Hartree-type preconditioning will be used
 using additional bands           16
 real space projection scheme for non local part
 use partial core corrections
 calculate Harris-corrections to forces   (improved forces if not selfconsistent)
 use gradient corrections 
 use of overlap-Matrix (Vanderbilt PP)
 Fermi weights with tetrahedron method with Bloechl corrections


--------------------------------------------------------------------------------------------------------


  energy-cutoff  :      520.00
  volume of cell :      968.84
      direct lattice vectors                 reciprocal lattice vectors
     6.907777000 -0.000000000  0.000000000     0.144764372 -0.083579742  0.000000000
     3.453888000  5.982310000  0.000000000     0.000000000  0.167159509 -0.000000000
     0.000000000  0.000000000 23.444588000    -0.000000000  0.000000000  0.042653767

  length of vectors
     6.907777000  6.907776433 23.444588000     0.167159495  0.167159509  0.042653767



 k-points in units of 2pi/SCALE and weight: Kpoints from vasprun.xml                
   0.00000000  0.00000000  0.00000000       0.040
   0.02895287 -0.01671595  0.00000000       0.240
   0.05790575 -0.03343190  0.00000000       0.240
   0.05790575  0.00000000  0.00000000       0.240
  -0.05790575  0.06686380  0.00000000       0.240

 k-points in reciprocal lattice and weights: Kpoints from vasprun.xml                
   0.00000000  0.00000000  0.00000000       0.040
   0.20000000  0.00000000  0.00000000       0.240
   0.40000000  0.00000000  0.00000000       0.240
   0.40000000  0.20000000  0.00000000       0.240
  -0.40000000  0.20000000  0.00000000       0.240

 position of ions in fractional coordinates (direct lattice) 
   0.33333300  0.33333300  0.49992500
   0.66666700  0.66666700  0.50007500
   0.00000000  0.00000000  0.44821600
   0.00000000  0.00000000  0.55178400
   0.62635700  0.00042000  0.57375200
   0.00042000  0.37322400  0.57375200
   0.37322400  0.62635700  0.57375200
   0.37364300  0.99958000  0.42624800
   0.99958000  0.62677600  0.42624800
   0.62677600  0.37364300  0.42624800

 position of ions in cartesian coordinates  (Angst):
   3.45388488  1.99410134 11.72053566
   6.90778012  3.98820866 11.72405234
   0.00000000  0.00000000 10.50823946
   0.00000000  0.00000000 12.93634854
   4.32818511  0.00251257 13.45137925
   1.29197516  2.23274167 13.45137925
   4.74151509  3.74706174 13.45137925
   6.03347989  5.97979743  9.99320875
   9.06968984  3.74956833  9.99320875
   5.62014991  2.23524826  9.99320875



--------------------------------------------------------------------------------------------------------


 k-point  1 :   0.0000 0.0000 0.0000  plane waves:   26073
 k-point  2 :   0.2000 0.0000 0.0000  plane waves:   26070
 k-point  3 :   0.4000 0.0000 0.0000  plane waves:   26086
 k-point  4 :   0.4000 0.2000 0.0000  plane waves:   26085
 k-point  5 :  -0.4000 0.2000 0.0000  plane waves:   26115

 maximum and minimum number of plane-waves per node :     26115    26070

 maximum number of plane-waves:     26115
 maximum index in each direction: 
   IXMAX=   13   IYMAX=   12   IZMAX=   43
   IXMIN=  -13   IYMIN=  -13   IZMIN=  -43


 serial   3D FFT for wavefunctions
 parallel 3D FFT for charge:
    minimum data exchange during FFTs selected (reduces bandwidth)


 total amount of memory used by VASP MPI-rank0   131047. kBytes
=======================================================================

   base      :      30000. kBytes
   nonlr-proj:       8547. kBytes
   fftplans  :      11247. kBytes
   grid      :      68332. kBytes
   one-center:        311. kBytes
   wavefun   :      12610. kBytes

     INWAV:  cpu time    0.0000: real time    0.0000
 Broyden mixing: mesh for mixing (old mesh)
   NGX = 25   NGY = 25   NGZ = 87
  (NGX  =108   NGY  =108   NGZ  =360)
  gives a total of  54375 points

 initial charge density was supplied:
 charge density of overlapping atoms calculated
 number of electron      63.0000000 magnetization       9.7800000
 keeping initial charge density in first step


--------------------------------------------------------------------------------------------------------


 Maximum index for non-local projection operator         7925
 Maximum index for augmentation-charges         2278 (set IRDMAX)


--------------------------------------------------------------------------------------------------------


 First call to EWALD:  gamma=   0.179
 Maximum number of real-space cells 4x 4x 1
 Maximum number of reciprocal cells 2x 2x 6

    FEWALD:  cpu time    0.0000: real time    0.0014


--------------------------------------- Iteration      1(   1)  ---------------------------------------


vdW kernel read from vdw_kernel.bindat
  0.0000  0.2424  0.5071  0.7962  1.1119  1.4567  1.8333  2.2446  2.6937  3.1842
  3.7199  4.3049  4.9438  5.6415  6.4036  7.2358  8.1446  9.1372 10.2212 11.4050
 12.6979 14.1099 15.6519 17.3360 19.1751 21.1837 23.3773 25.7729 28.3892 31.2465
 34.3669 37.7748 41.4965 45.5611 50.0000

    POTLOK:  cpu time   53.0400: real time   53.0882
    SETDIJ:  cpu time    0.0560: real time    0.0557
     EDDAV:  cpu time   23.1200: real time   23.3019
 BZINTS: Fermi energy:  5.612893; 63.000000 electrons
         Band energy:  21.036256;  BLOECHL correction: -0.025138
       DOS:  cpu time    0.0040: real time    0.0049
    --------------------------------------------
      LOOP:  cpu time   76.2200: real time   76.4508

 eigenvalue-minimisations  :   960
 total energy-change (2. order) : 0.4008090E+03  (-0.1888875E+04)
 number of electron      63.0000000 magnetization       9.7800000
 augmentation part       63.0000000 magnetization       9.7800000

 Free energy of the ion-electron system (eV)
  ---------------------------------------------------
  alpha Z        PSCENC =        19.04255889
  Ewald energy   TEWEN  =      7794.22900203
  -Hartree energ DENC   =    -10707.59485939
  -exchange      EXHF   =         0.00000000
  -V(xc)+E(xc)   XCENC  =      -147.95362439
  PAW double counting   =      1985.00275397    -1825.67613142
  entropy T*S    EENTRO =         0.00000000
  eigenvalues    EBANDS =        21.03625594
  atomic energy  EATOM  =      3262.72306219
  Solvation  Ediel_sol  =         0.00000000
  ---------------------------------------------------
  free energy    TOTEN  =       400.80901782 eV

  energy without entropy =      400.80901782  energy(sigma->0) =      400.80901782


--------------------------------------------------------------------------------------------------------




--------------------------------------- Iteration      1(   2)  ---------------------------------------


     EDDAV:  cpu time   30.2000: real time   30.5466
 BZINTS: Fermi energy: -1.003695; 63.000000 electrons
         Band energy:-368.161221;  BLOECHL correction: -0.030645
       DOS:  cpu time    0.0040: real time    0.0051
    --------------------------------------------
      LOOP:  cpu time   30.2040: real time   30.5517

 eigenvalue-minimisations  :  1312
 total energy-change (2. order) :-0.3891975E+03  (-0.3670299E+03)
 number of electron      63.0000000 magnetization       9.7800000
 augmentation part       63.0000000 magnetization       9.7800000

 Free energy of the ion-electron system (eV)
  ---------------------------------------------------
  alpha Z        PSCENC =        19.04255889
  Ewald energy   TEWEN  =      7794.22900203
  -Hartree energ DENC   =    -10707.59485939
  -exchange      EXHF   =         0.00000000
  -V(xc)+E(xc)   XCENC  =      -147.95362439
  PAW double counting   =      1985.00275397    -1825.67613142
  entropy T*S    EENTRO =         0.00000000
  eigenvalues    EBANDS =      -368.16122144
  atomic energy  EATOM  =      3262.72306219
  Solvation  Ediel_sol  =         0.00000000
  ---------------------------------------------------
  free energy    TOTEN  =        11.61154043 eV

  energy without entropy =       11.61154043  energy(sigma->0) =       11.61154043


--------------------------------------------------------------------------------------------------------




--------------------------------------- Iteration      1(   3)  ---------------------------------------


     EDDAV:  cpu time   29.8120: real time   30.0993
 BZINTS: Fermi energy: -1.569984; 63.000000 electrons
         Band energy:-414.631298;  BLOECHL correction: -0.015217
       DOS:  cpu time    0.0040: real time    0.0053
    --------------------------------------------
      LOOP:  cpu time   29.8160: real time   30.1046

 eigenvalue-minimisations  :  1280
 total energy-change (2. order) :-0.4647008E+02  (-0.4534237E+02)
 number of electron      63.0000000 magnetization       9.7800000
 augmentation part       63.0000000 magnetization       9.7800000

 Free energy of the ion-electron system (eV)
  ---------------------------------------------------
  alpha Z        PSCENC =        19.04255889
  Ewald energy   TEWEN  =      7794.22900203
  -Hartree energ DENC   =    -10707.59485939
  -exchange      EXHF   =         0.00000000
  -V(xc)+E(xc)   XCENC  =      -147.95362439
  PAW double counting   =      1985.00275397    -1825.67613142
  entropy T*S    EENTRO =         0.00000000
  eigenvalues    EBANDS =      -414.63129824
  atomic energy  EATOM  =      3262.72306219
  Solvation  Ediel_sol  =         0.00000000
  ---------------------------------------------------
  free energy    TOTEN  =       -34.85853637 eV

  energy without entropy =      -34.85853637  energy(sigma->0) =      -34.85853637


--------------------------------------------------------------------------------------------------------




--------------------------------------- Iteration      1(   4)  ---------------------------------------


     EDDAV:  cpu time   30.0280: real time   30.1528
 BZINTS: Fermi energy: -1.585540; 63.000000 electrons
         Band energy:-416.517789;  BLOECHL correction: -0.014600
       DOS:  cpu time    0.0040: real time    0.0050
    --------------------------------------------
      LOOP:  cpu time   30.0320: real time   30.1578

 eigenvalue-minimisations  :  1296
 total energy-change (2. order) :-0.1886490E+01  (-0.1881558E+01)
 number of electron      63.0000000 magnetization       9.7800000
 augmentation part       63.0000000 magnetization       9.7800000

 Free energy of the ion-electron system (eV)
  ---------------------------------------------------
  alpha Z        PSCENC =        19.04255889
  Ewald energy   TEWEN  =      7794.22900203
  -Hartree energ DENC   =    -10707.59485939
  -exchange      EXHF   =         0.00000000
  -V(xc)+E(xc)   XCENC  =      -147.95362439
  PAW double counting   =      1985.00275397    -1825.67613142
  entropy T*S    EENTRO =         0.00000000
  eigenvalues    EBANDS =      -416.51778853
  atomic energy  EATOM  =      3262.72306219
  Solvation  Ediel_sol  =         0.00000000
  ---------------------------------------------------
  free energy    TOTEN  =       -36.74502666 eV

  energy without entropy =      -36.74502666  energy(sigma->0) =      -36.74502666


--------------------------------------------------------------------------------------------------------




--------------------------------------- Iteration      1(   5)  ---------------------------------------


     EDDAV:  cpu time   33.9080: real time   33.9895
 BZINTS: Fermi energy: -1.586425; 63.000000 electrons
         Band energy:-416.553208;  BLOECHL correction: -0.014786
       DOS:  cpu time    0.0040: real time    0.0053
    CHARGE:  cpu time    2.0840: real time    2.0939
    MIXING:  cpu time    0.0400: real time    0.0398
    --------------------------------------------
      LOOP:  cpu time   36.0360: real time   36.1284

 eigenvalue-minimisations  :  1472
 total energy-change (2. order) :-0.3541962E-01  (-0.3532888E-01)
 number of electron      62.9999993 magnetization       9.4261880
 augmentation part       -0.5032321 magnetization       7.0008782

 Broyden mixing:
  rms(total) = 0.19133E+01    rms(broyden)= 0.19132E+01
  rms(prec ) = 0.20652E+01
  weight for this iteration     100.00

 Free energy of the ion-electron system (eV)
  ---------------------------------------------------
  alpha Z        PSCENC =        19.04255889
  Ewald energy   TEWEN  =      7794.22900203
  -Hartree energ DENC   =    -10707.59485939
  -exchange      EXHF   =         0.00000000
  -V(xc)+E(xc)   XCENC  =      -147.95362439
  PAW double counting   =      1985.00275397    -1825.67613142
  entropy T*S    EENTRO =         0.00000000
  eigenvalues    EBANDS =      -416.55320816
  atomic energy  EATOM  =      3262.72306219
  Solvation  Ediel_sol  =         0.00000000
  ---------------------------------------------------
  free energy    TOTEN  =       -36.78044628 eV

  energy without entropy =      -36.78044628  energy(sigma->0) =      -36.78044628


--------------------------------------------------------------------------------------------------------




--------------------------------------- Iteration      1(   6)  ---------------------------------------


    POTLOK:  cpu time   52.3000: real time   52.3856
    SETDIJ:  cpu time    0.0560: real time    0.0560
     EDDAV:  cpu time   25.9680: real time   26.2087
 BZINTS: Fermi energy: -3.148176; 63.000000 electrons
         Band energy:-559.525712;  BLOECHL correction: -0.062309
       DOS:  cpu time    0.0080: real time    0.0069
    CHARGE:  cpu time    2.1080: real time    2.1254
    MIXING:  cpu time    0.0400: real time    0.0411
    --------------------------------------------
      LOOP:  cpu time   80.4800: real time   80.8237

 eigenvalue-minimisations  :  1104
 total energy-change (2. order) :-0.2975762E+02  (-0.2525943E+02)
 number of electron      62.9999987 magnetization       9.1607803
 augmentation part        7.1710994 magnetization       8.3995205

 Broyden mixing:
  rms(total) = 0.45333E+01    rms(broyden)= 0.45332E+01
  rms(prec ) = 0.48221E+01
  weight for this iteration     100.00

 eigenvalues of (default mixing * dielectric matrix)
  average eigenvalue GAMMA=   0.2538
  0.2538

 Free energy of the ion-electron system (eV)
  ---------------------------------------------------
  alpha Z        PSCENC =        19.04255889
  Ewald energy   TEWEN  =      7794.22900203
  -Hartree energ DENC   =    -10614.11831139
  -exchange      EXHF   =         0.00000000
  -V(xc)+E(xc)   XCENC  =      -149.04524478
  PAW double counting   =      1850.89419790    -1670.73761675
  entropy T*S    EENTRO =         0.00000000
  eigenvalues    EBANDS =      -559.52571246
  atomic energy  EATOM  =      3262.72306219
  Solvation  Ediel_sol  =         0.00000000
  ---------------------------------------------------
  free energy    TOTEN  =       -66.53806436 eV

  energy without entropy =      -66.53806436  energy(sigma->0) =      -66.53806436


--------------------------------------------------------------------------------------------------------




--------------------------------------- Iteration      1(   7)  ---------------------------------------


    POTLOK:  cpu time   51.7080: real time   52.0800
    SETDIJ:  cpu time    0.0520: real time    0.0514
     EDDAV:  cpu time   25.5240: real time   25.7262
 BZINTS: Fermi energy: -2.862663; 63.000000 electrons
         Band energy:-453.292861;  BLOECHL correction: -0.041087
       DOS:  cpu time    0.0040: real time    0.0065
    CHARGE:  cpu time    2.1080: real time    2.1061
    MIXING:  cpu time    0.0400: real time    0.0421
    --------------------------------------------
      LOOP:  cpu time   79.4360: real time   80.0122

 eigenvalue-minimisations  :  1088
 total energy-change (2. order) : 0.2898532E+02  (-0.3899095E+01)
 number of electron      62.9999989 magnetization       8.8451541
 augmentation part        4.7697961 magnetization       8.4998892

 Broyden mixing:
  rms(total) = 0.21360E+01    rms(broyden)= 0.21360E+01
  rms(prec ) = 0.22930E+01
  weight for this iteration     100.00

 eigenvalues of (default mixing * dielectric matrix)
  average eigenvalue GAMMA=   0.4931
  0.4931  0.4931

 Free energy of the ion-electron system (eV)
  ---------------------------------------------------
  alpha Z        PSCENC =        19.04255889
  Ewald energy   TEWEN  =      7794.22900203
  -Hartree energ DENC   =    -10674.14960428
  -exchange      EXHF   =         0.00000000
  -V(xc)+E(xc)   XCENC  =      -148.97135232
  PAW double counting   =      1961.64684824    -1798.78040176
  entropy T*S    EENTRO =         0.00000000
  eigenvalues    EBANDS =      -453.29286127
  atomic energy  EATOM  =      3262.72306219
  Solvation  Ediel_sol  =         0.00000000
  ---------------------------------------------------
  free energy    TOTEN  =       -37.55274828 eV

  energy without entropy =      -37.55274828  energy(sigma->0) =      -37.55274828


--------------------------------------------------------------------------------------------------------




--------------------------------------- Iteration      1(   8)  ---------------------------------------


    POTLOK:  cpu time   52.0760: real time   52.2329
    SETDIJ:  cpu time    0.0600: real time    0.0613
     EDDAV:  cpu time   34.0080: real time   34.1132
 BZINTS: Fermi energy: -2.559892; 63.000000 electrons
         Band energy:-428.133494;  BLOECHL correction: -0.013538
       DOS:  cpu time    0.0040: real time    0.0070
    CHARGE:  cpu time    2.1040: real time    2.1055
    MIXING:  cpu time    0.0400: real time    0.0410
    --------------------------------------------
      LOOP:  cpu time   88.2920: real time   88.5608

 eigenvalue-minimisations  :  1488
 total energy-change (2. order) : 0.3107383E+01  (-0.7341694E+00)
 number of electron      62.9999991 magnetization       9.3807203
 augmentation part        2.9411705 magnetization       9.5109367

 Broyden mixing:
  rms(total) = 0.10759E+01    rms(broyden)= 0.10758E+01
  rms(prec ) = 0.11113E+01
  weight for this iteration     100.00

 eigenvalues of (default mixing * dielectric matrix)
  average eigenvalue GAMMA=   0.4554
  0.4514  0.4514  0.4635

 Free energy of the ion-electron system (eV)
  ---------------------------------------------------
  alpha Z        PSCENC =        19.04255889
  Ewald energy   TEWEN  =      7794.22900203
  -Hartree energ DENC   =    -10694.00385973
  -exchange      EXHF   =         0.00000000
  -V(xc)+E(xc)   XCENC  =      -148.72024757
  PAW double counting   =      2003.46977976    -1843.05216710
  entropy T*S    EENTRO =         0.00000000
  eigenvalues    EBANDS =      -428.13349411
  atomic energy  EATOM  =      3262.72306219
  Solvation  Ediel_sol  =         0.00000000
  ---------------------------------------------------
  free energy    TOTEN  =       -34.44536564 eV

  energy without entropy =      -34.44536564  energy(sigma->0) =      -34.44536564


--------------------------------------------------------------------------------------------------------




--------------------------------------- Iteration      1(   9)  ---------------------------------------


    POTLOK:  cpu time   51.2520: real time   51.3572
    SETDIJ:  cpu time    0.0520: real time    0.0518
     EDDAV:  cpu time   25.8520: real time   26.0886
 BZINTS: Fermi energy: -2.558249; 63.000000 electrons
         Band energy:-431.462453;  BLOECHL correction: -0.016353
       DOS:  cpu time    0.0040: real time    0.0071
    CHARGE:  cpu time    2.1320: real time    2.1402
    MIXING:  cpu time    0.0400: real time    0.0416
    --------------------------------------------
      LOOP:  cpu time   79.3320: real time   79.6865

 eigenvalue-minimisations  :  1120
 total energy-change (2. order) :-0.4614713E-01  (-0.1162260E+00)
 number of electron      62.9999991 magnetization       9.3503961
 augmentation part        2.6628326 magnetization       8.6775539

 Broyden mixing:
  rms(total) = 0.10593E+01    rms(broyden)= 0.10592E+01
  rms(prec ) = 0.10954E+01
  weight for this iteration     100.00

 eigenvalues of (default mixing * dielectric matrix)
  average eigenvalue GAMMA=   0.3348
  0.4478  0.4478  0.2217  0.2217

 Free energy of the ion-electron system (eV)
  ---------------------------------------------------
  alpha Z        PSCENC =        19.04255889
  Ewald energy   TEWEN  =      7794.22900203
  -Hartree energ DENC   =    -10689.98092989
  -exchange      EXHF   =         0.00000000
  -V(xc)+E(xc)   XCENC  =      -148.31031417
  PAW double counting   =      1987.23796324    -1827.97040254
  entropy T*S    EENTRO =         0.00000000
  eigenvalues    EBANDS =      -431.46245252
  atomic energy  EATOM  =      3262.72306219
  Solvation  Ediel_sol  =         0.00000000
  ---------------------------------------------------
  free energy    TOTEN  =       -34.49151277 eV

  energy without entropy =      -34.49151277  energy(sigma->0) =      -34.49151277


--------------------------------------------------------------------------------------------------------




--------------------------------------- Iteration      1(  10)  ---------------------------------------


    POTLOK:  cpu time   51.1800: real time   51.5295
    SETDIJ:  cpu time    0.0600: real time    0.0623
     EDDAV:  cpu time   26.8040: real time   27.1012
 BZINTS: Fermi energy: -2.534920; 63.000000 electrons
         Band energy:-431.557980;  BLOECHL correction: -0.015811
       DOS:  cpu time    0.0080: real time    0.0069
    CHARGE:  cpu time    2.1440: real time    2.1528
    MIXING:  cpu time    0.0440: real time    0.0429
    --------------------------------------------
      LOOP:  cpu time   80.2400: real time   80.8956

 eigenvalue-minimisations  :  1168
 total energy-change (2. order) :-0.6976098E-01  (-0.1270253E-01)
 number of electron      62.9999991 magnetization       9.1291368
 augmentation part        2.6195784 magnetization       8.4846107

 Broyden mixing:
  rms(total) = 0.11026E+01    rms(broyden)= 0.11026E+01
  rms(prec ) = 0.11467E+01
  weight for this iteration     100.00

 eigenvalues of (default mixing * dielectric matrix)
  average eigenvalue GAMMA=   0.4294
  0.5826  0.5826  0.4418  0.4418  0.0981

 Free energy of the ion-electron system (eV)
  ---------------------------------------------------
  alpha Z        PSCENC =        19.04255889
  Ewald energy   TEWEN  =      7794.22900203
  -Hartree energ DENC   =    -10690.07835035
  -exchange      EXHF   =         0.00000000
  -V(xc)+E(xc)   XCENC  =      -148.33758201
  PAW double counting   =      1987.58956337    -1828.17154756
  entropy T*S    EENTRO =         0.00000000
  eigenvalues    EBANDS =      -431.55798031
  atomic energy  EATOM  =      3262.72306219
  Solvation  Ediel_sol  =         0.00000000
  ---------------------------------------------------
  free energy    TOTEN  =       -34.56127375 eV

  energy without entropy =      -34.56127375  energy(sigma->0) =      -34.56127375


--------------------------------------------------------------------------------------------------------




--------------------------------------- Iteration      1(  11)  ---------------------------------------


    POTLOK:  cpu time   50.8760: real time   51.0608
    SETDIJ:  cpu time    0.0520: real time    0.0509
     EDDAV:  cpu time   24.6120: real time   24.8067
 BZINTS: Fermi energy: -2.598526; 63.000000 electrons
         Band energy:-431.128763;  BLOECHL correction: -0.013508
       DOS:  cpu time    0.0040: real time    0.0070
    CHARGE:  cpu time    2.1120: real time    2.1245
    MIXING:  cpu time    0.0440: real time    0.0433
    --------------------------------------------
      LOOP:  cpu time   77.7000: real time   78.0932

 eigenvalue-minimisations  :  1056
 total energy-change (2. order) :-0.1525773E-01  (-0.7967202E-01)
 number of electron      62.9999991 magnetization       8.8794229
 augmentation part        2.9002095 magnetization       8.7874948

 Broyden mixing:
  rms(total) = 0.12088E+01    rms(broyden)= 0.12087E+01
  rms(prec ) = 0.12473E+01
  weight for this iteration     100.00

 eigenvalues of (default mixing * dielectric matrix)
  average eigenvalue GAMMA=   0.5778
  0.8058  0.8650  0.8650  0.4254  0.4254  0.0803

 Free energy of the ion-electron system (eV)
  ---------------------------------------------------
  alpha Z        PSCENC =        19.04255889
  Ewald energy   TEWEN  =      7794.22900203
  -Hartree energ DENC   =    -10690.70838735
  -exchange      EXHF   =         0.00000000
  -V(xc)+E(xc)   XCENC  =      -148.47957170
  PAW double counting   =      1990.13228712    -1830.38671933
  entropy T*S    EENTRO =         0.00000000
  eigenvalues    EBANDS =      -431.12876333
  atomic energy  EATOM  =      3262.72306219
  Solvation  Ediel_sol  =         0.00000000
  ---------------------------------------------------
  free energy    TOTEN  =       -34.57653149 eV

  energy without entropy =      -34.57653149  energy(sigma->0) =      -34.57653149


--------------------------------------------------------------------------------------------------------




--------------------------------------- Iteration      1(  12)  ---------------------------------------


    POTLOK:  cpu time   50.8240: real time   50.9988
    SETDIJ:  cpu time    0.0480: real time    0.0499
     EDDAV:  cpu time   24.5160: real time   24.7270
 BZINTS: Fermi energy: -2.633038; 63.000000 electrons
         Band energy:-432.230985;  BLOECHL correction: -0.015211
       DOS:  cpu time    0.0080: real time    0.0052
    CHARGE:  cpu time    2.1040: real time    2.1220
    MIXING:  cpu time    0.0440: real time    0.0439
    --------------------------------------------
      LOOP:  cpu time   77.5440: real time   77.9468

 eigenvalue-minimisations  :  1056
 total energy-change (2. order) :-0.1767074E+00  (-0.5583240E-01)
 number of electron      62.9999991 magnetization       9.1576710
 augmentation part        3.1328410 magnetization       9.0895759

 Broyden mixing:
  rms(total) = 0.12624E+01    rms(broyden)= 0.12624E+01
  rms(prec ) = 0.13134E+01
  weight for this iteration     100.00

 eigenvalues of (default mixing * dielectric matrix)
  average eigenvalue GAMMA=   0.7809
  1.6593  1.1943  1.1943  0.4352  0.4352  0.4677  0.0802

 Free energy of the ion-electron system (eV)
  ---------------------------------------------------
  alpha Z        PSCENC =        19.04255889
  Ewald energy   TEWEN  =      7794.22900203
  -Hartree energ DENC   =    -10690.22949113
  -exchange      EXHF   =         0.00000000
  -V(xc)+E(xc)   XCENC  =      -148.59711323
  PAW double counting   =      1998.07956166    -1837.76983457
  entropy T*S    EENTRO =         0.00000000
  eigenvalues    EBANDS =      -432.23098470
  atomic energy  EATOM  =      3262.72306219
  Solvation  Ediel_sol  =         0.00000000
  ---------------------------------------------------
  free energy    TOTEN  =       -34.75323886 eV

  energy without entropy =      -34.75323886  energy(sigma->0) =      -34.75323886


--------------------------------------------------------------------------------------------------------




--------------------------------------- Iteration      1(  13)  ---------------------------------------


    POTLOK:  cpu time   50.7200: real time   50.8548
    SETDIJ:  cpu time    0.0520: real time    0.0506
     EDDAV:  cpu time   32.2200: real time   32.3938
 BZINTS: Fermi energy: -2.327430; 63.000000 electrons
         Band energy:-429.643823;  BLOECHL correction: -0.011395
       DOS:  cpu time    0.0040: real time    0.0073
    CHARGE:  cpu time    2.1320: real time    2.1352
    MIXING:  cpu time    0.0440: real time    0.0446
    --------------------------------------------
      LOOP:  cpu time   85.1720: real time   85.4864

 eigenvalue-minimisations  :  1424
 total energy-change (2. order) : 0.5413097E+00  (-0.2100256E+00)
 number of electron      62.9999991 magnetization      10.0023697
 augmentation part        1.9485562 magnetization       8.0355145

 Broyden mixing:
  rms(total) = 0.99178E+00    rms(broyden)= 0.99152E+00
  rms(prec ) = 0.10822E+01
  weight for this iteration     100.00

 eigenvalues of (default mixing * dielectric matrix)
  average eigenvalue GAMMA=   0.8252
  2.3263  1.1122  1.1122  0.5571  0.5571  0.4285  0.4285  0.0801

 Free energy of the ion-electron system (eV)
  ---------------------------------------------------
  alpha Z        PSCENC =        19.04255889
  Ewald energy   TEWEN  =      7794.22900203
  -Hartree energ DENC   =    -10692.69313412
  -exchange      EXHF   =         0.00000000
  -V(xc)+E(xc)   XCENC  =      -147.23565602
  PAW double counting   =      2014.87036648    -1855.50430597
  entropy T*S    EENTRO =         0.00000000
  eigenvalues    EBANDS =      -429.64382261
  atomic energy  EATOM  =      3262.72306219
  Solvation  Ediel_sol  =         0.00000000
  ---------------------------------------------------
  free energy    TOTEN  =       -34.21192913 eV

  energy without entropy =      -34.21192913  energy(sigma->0) =      -34.21192913


--------------------------------------------------------------------------------------------------------




--------------------------------------- Iteration      1(  14)  ---------------------------------------


    POTLOK:  cpu time   50.7920: real time   50.9042
    SETDIJ:  cpu time    0.0480: real time    0.0510
     EDDAV:  cpu time   28.3480: real time   28.7073
 BZINTS: Fermi energy: -2.349471; 63.000000 electrons
         Band energy:-433.096497;  BLOECHL correction: -0.006362
       DOS:  cpu time    0.0040: real time    0.0074
    CHARGE:  cpu time    2.1120: real time    2.1243
    MIXING:  cpu time    0.0520: real time    0.0533
    --------------------------------------------
      LOOP:  cpu time   81.3560: real time   81.8476

 eigenvalue-minimisations  :  1248
 total energy-change (2. order) : 0.1034943E+01  (-0.9937563E-01)
 number of electron      62.9999991 magnetization      10.4382771
 augmentation part        2.2119746 magnetization       9.3868260

 Broyden mixing:
  rms(total) = 0.15759E+01    rms(broyden)= 0.15759E+01
  rms(prec ) = 0.15825E+01
  weight for this iteration     100.00

 eigenvalues of (default mixing * dielectric matrix)
  average eigenvalue GAMMA=   0.8186
  2.8316  1.1071  1.1071  0.5724  0.5724  0.4159  0.4159  0.2648  0.0801

 Free energy of the ion-electron system (eV)
  ---------------------------------------------------
  alpha Z        PSCENC =        19.04255889
  Ewald energy   TEWEN  =      7794.22900203
  -Hartree energ DENC   =    -10688.09809411
  -exchange      EXHF   =         0.00000000
  -V(xc)+E(xc)   XCENC  =      -145.71903902
  PAW double counting   =      2005.56312631    -1847.82110514
  entropy T*S    EENTRO =         0.00000000
  eigenvalues    EBANDS =      -433.09649700
  atomic energy  EATOM  =      3262.72306219
  Solvation  Ediel_sol  =         0.00000000
  ---------------------------------------------------
  free energy    TOTEN  =       -33.17698584 eV

  energy without entropy =      -33.17698584  energy(sigma->0) =      -33.17698584


--------------------------------------------------------------------------------------------------------




--------------------------------------- Iteration      1(  15)  ---------------------------------------


    POTLOK:  cpu time   50.5440: real time   51.3192
    SETDIJ:  cpu time    0.0480: real time    0.0510
     EDDAV:  cpu time   31.3680: real time   31.7298
 BZINTS: Fermi energy: -2.303156; 63.000000 electrons
         Band energy:-556.211181;  BLOECHL correction: -0.005200
       DOS:  cpu time    0.0040: real time    0.0054
    CHARGE:  cpu time    2.1400: real time    2.1433
    MIXING:  cpu time    0.0480: real time    0.0482
    --------------------------------------------
      LOOP:  cpu time   84.1520: real time   85.2969

 eigenvalue-minimisations  :  1392
 total energy-change (2. order) :-0.1213482E+03  (-0.1108454E+03)
 number of electron      62.9999992 magnetization      10.4229270
 augmentation part        1.4817482 magnetization       7.9761299

 Broyden mixing:
  rms(total) = 0.23482E+01    rms(broyden)= 0.23397E+01
  rms(prec ) = 0.24281E+01
  weight for this iteration     100.00

 eigenvalues of (default mixing * dielectric matrix)
  average eigenvalue GAMMA=   0.7362
  2.8086  1.1085  1.1085  0.5735  0.5735  0.4164  0.4164  0.2630  0.0801  0.0140

 Free energy of the ion-electron system (eV)
  ---------------------------------------------------
  alpha Z        PSCENC =        19.04255889
  Ewald energy   TEWEN  =      7794.22900203
  -Hartree energ DENC   =    -10687.11386899
  -exchange      EXHF   =         0.00000000
  -V(xc)+E(xc)   XCENC  =      -144.22390417
  PAW double counting   =      2005.42430114    -1848.39512082
  entropy T*S    EENTRO =         0.00000000
  eigenvalues    EBANDS =      -556.21118074
  atomic energy  EATOM  =      3262.72306219
  Solvation  Ediel_sol  =         0.00000000
  ---------------------------------------------------
  free energy    TOTEN  =      -154.52515048 eV

  energy without entropy =     -154.52515048  energy(sigma->0) =     -154.52515048


--------------------------------------------------------------------------------------------------------




--------------------------------------- Iteration      1(  16)  ---------------------------------------


    POTLOK:  cpu time   50.8720: real time   50.9136
    SETDIJ:  cpu time    0.0520: real time    0.0529
     EDDAV:  cpu time   24.8800: real time   25.1048
 BZINTS: Fermi energy: -2.231258; 63.000000 electrons
         Band energy:-433.452995;  BLOECHL correction: -0.009329
       DOS:  cpu time    0.0080: real time    0.0073
    CHARGE:  cpu time    2.0880: real time    2.0982
    MIXING:  cpu time    0.0480: real time    0.0475
    --------------------------------------------
      LOOP:  cpu time   77.9480: real time   78.2242

 eigenvalue-minimisations  :  1072
 total energy-change (2. order) : 0.1226874E+03  (-0.7176969E+02)
 number of electron      62.9999991 magnetization       9.5834068
 augmentation part        1.8053388 magnetization       7.7379321

 Broyden mixing:
  rms(total) = 0.15837E+01    rms(broyden)= 0.15756E+01
  rms(prec ) = 0.16048E+01
  weight for this iteration     100.00

 eigenvalues of (default mixing * dielectric matrix)
  average eigenvalue GAMMA=   0.6794
  1.1952  1.1952  1.2730  1.2730  0.6621  0.6621  0.4295  0.4295  0.2652  0.0801
  0.0084

 Free energy of the ion-electron system (eV)
  ---------------------------------------------------
  alpha Z        PSCENC =        19.04255889
  Ewald energy   TEWEN  =      7794.22900203
  -Hartree energ DENC   =    -10687.33093533
  -exchange      EXHF   =         0.00000000
  -V(xc)+E(xc)   XCENC  =      -144.07038440
  PAW double counting   =      2005.72924475    -1848.70733905
  entropy T*S    EENTRO =         0.00000000
  eigenvalues    EBANDS =      -433.45299517
  atomic energy  EATOM  =      3262.72306219
  Solvation  Ediel_sol  =         0.00000000
  ---------------------------------------------------
  free energy    TOTEN  =       -31.83778610 eV

  energy without entropy =      -31.83778610  energy(sigma->0) =      -31.83778610


--------------------------------------------------------------------------------------------------------




--------------------------------------- Iteration      1(  17)  ---------------------------------------


    POTLOK:  cpu time   50.4960: real time   51.4691
    SETDIJ:  cpu time    0.0560: real time    0.0566
     EDDAV:  cpu time   33.9680: real time   34.2464
 BZINTS: Fermi energy: -2.251556; 63.000000 electrons
         Band energy:-442.975073;  BLOECHL correction: -0.004881
       DOS:  cpu time    0.0040: real time    0.0067
    CHARGE:  cpu time    2.1320: real time    2.1438
    MIXING:  cpu time    0.0480: real time    0.0489
    --------------------------------------------
      LOOP:  cpu time   86.7040: real time   87.9715

 eigenvalue-minimisations  :  1488
 total energy-change (2. order) :-0.1459330E+02  (-0.1257732E+02)
 number of electron      62.9999992 magnetization       9.5819127
 augmentation part        1.4173319 magnetization       9.1507832

 Broyden mixing:
  rms(total) = 0.20595E+01    rms(broyden)= 0.20469E+01
  rms(prec ) = 0.21381E+01
  weight for this iteration     100.00

 eigenvalues of (default mixing * dielectric matrix)
  average eigenvalue GAMMA=   0.6227
  1.1949  1.1949  1.2728  1.2728  0.6621  0.6621  0.4295  0.4295  0.2652  0.0801
  0.0084  0.0005

 Free energy of the ion-electron system (eV)
  ---------------------------------------------------
  alpha Z        PSCENC =        19.04255889
  Ewald energy   TEWEN  =      7794.22900203
  -Hartree energ DENC   =    -10691.79487494
  -exchange      EXHF   =         0.00000000
  -V(xc)+E(xc)   XCENC  =      -145.41978252
  PAW double counting   =      2017.10947609    -1859.34545471
  entropy T*S    EENTRO =         0.00000000
  eigenvalues    EBANDS =      -442.97507256
  atomic energy  EATOM  =      3262.72306219
  Solvation  Ediel_sol  =         0.00000000
  ---------------------------------------------------
  free energy    TOTEN  =       -46.43108554 eV

  energy without entropy =      -46.43108554  energy(sigma->0) =      -46.43108554


--------------------------------------------------------------------------------------------------------




--------------------------------------- Iteration      1(  18)  ---------------------------------------


    POTLOK:  cpu time   50.9560: real time   51.3500
    SETDIJ:  cpu time    0.0960: real time    0.0950
     EDDAV:  cpu time   30.0880: real time   30.4975
 BZINTS: Fermi energy: -2.248161; 63.000000 electrons
         Band energy:-442.167472;  BLOECHL correction: -0.005100
       DOS:  cpu time    0.0040: real time    0.0057
    CHARGE:  cpu time    1.9760: real time    2.1231
    MIXING:  cpu time    0.0480: real time    0.0493
    --------------------------------------------
      LOOP:  cpu time   83.1680: real time   84.1206

 eigenvalue-minimisations  :  1312
 total energy-change (2. order) : 0.1029184E+01  (-0.8272030E+02)
 number of electron      62.9999992 magnetization       9.5789031
 augmentation part        1.4074586 magnetization       9.1268032

 Broyden mixing:
  rms(total) = 0.18539E+01    rms(broyden)= 0.18358E+01
  rms(prec ) = 0.19249E+01
  weight for this iteration     100.00

 eigenvalues of (default mixing * dielectric matrix)
  average eigenvalue GAMMA=   0.5749
  1.1945  1.1945  1.2726  1.2726  0.6620  0.6620  0.4295  0.4295  0.2651  0.0801
  0.0084  0.0017  0.0006

 Free energy of the ion-electron system (eV)
  ---------------------------------------------------
  alpha Z        PSCENC =        19.04255889
  Ewald energy   TEWEN  =      7794.22900203
  -Hartree energ DENC   =    -10691.78162747
  -exchange      EXHF   =         0.00000000
  -V(xc)+E(xc)   XCENC  =      -145.15215038
  PAW double counting   =      2017.11753884    -1859.41281441
  entropy T*S    EENTRO =         0.00000000
  eigenvalues    EBANDS =      -442.16747172
  atomic energy  EATOM  =      3262.72306219
  Solvation  Ediel_sol  =         0.00000000
  ---------------------------------------------------
  free energy    TOTEN  =       -45.40190203 eV

  energy without entropy =      -45.40190203  energy(sigma->0) =      -45.40190203


--------------------------------------------------------------------------------------------------------




--------------------------------------- Iteration      1(  19)  ---------------------------------------


    POTLOK:  cpu time   50.5640: real time   50.8677
    SETDIJ:  cpu time    0.0520: real time    0.0508
     EDDAV:  cpu time   24.4080: real time   24.6640
 BZINTS: Fermi energy: -2.186058; 63.000000 electrons
         Band energy:-429.597262;  BLOECHL correction: -0.008529
       DOS:  cpu time    0.0040: real time    0.0066
    CHARGE:  cpu time    2.0840: real time    2.1019
    MIXING:  cpu time    0.0520: real time    0.0520
    --------------------------------------------
      LOOP:  cpu time   77.1640: real time   77.7429

 eigenvalue-minimisations  :  1056
 total energy-change (2. order) : 0.1259136E+02  (-0.6167850E+02)
 number of electron      62.9999992 magnetization       8.0144266
 augmentation part        1.7204774 magnetization       6.1298232

 Broyden mixing:
  rms(total) = 0.12732E+01    rms(broyden)= 0.12639E+01
  rms(prec ) = 0.13122E+01
  weight for this iteration     100.00

 eigenvalues of (default mixing * dielectric matrix)
  average eigenvalue GAMMA=   0.6739
  1.4336  1.4336  1.4956  1.4956  0.9561  0.8423  0.5722  0.4322  0.4322  0.2481
  0.0801  0.0084  0.0027  0.0020

 Free energy of the ion-electron system (eV)
  ---------------------------------------------------
  alpha Z        PSCENC =        19.04255889
  Ewald energy   TEWEN  =      7794.22900203
  -Hartree energ DENC   =    -10691.74685084
  -exchange      EXHF   =         0.00000000
  -V(xc)+E(xc)   XCENC  =      -145.17056315
  PAW double counting   =      2017.11164396    -1859.40213431
  entropy T*S    EENTRO =         0.00000000
  eigenvalues    EBANDS =      -429.59726175
  atomic energy  EATOM  =      3262.72306219
  Solvation  Ediel_sol  =         0.00000000
  ---------------------------------------------------
  free energy    TOTEN  =       -32.81054297 eV

  energy without entropy =      -32.81054297  energy(sigma->0) =      -32.81054297


--------------------------------------------------------------------------------------------------------




--------------------------------------- Iteration      1(  20)  ---------------------------------------


    POTLOK:  cpu time   50.7240: real time   50.8429
    SETDIJ:  cpu time    0.0520: real time    0.0507
     EDDAV:  cpu time   29.5120: real time   29.6823
 BZINTS: Fermi energy: -2.114046; 63.000000 electrons
         Band energy:-422.754768;  BLOECHL correction: -0.008049
       DOS:  cpu time    0.0080: real time    0.0074
    CHARGE:  cpu time    2.1120: real time    2.1222
    MIXING:  cpu time    0.0520: real time    0.0717
    --------------------------------------------
      LOOP:  cpu time   82.4600: real time   82.7772

 eigenvalue-minimisations  :  1296
 total energy-change (2. order) :-0.1385832E+01  (-0.3763980E-01)
 number of electron      62.9999991 magnetization       6.5033663
 augmentation part        1.7378026 magnetization       5.3847157

 Broyden mixing:
  rms(total) = 0.92257E+00    rms(broyden)= 0.92203E+00
  rms(prec ) = 0.93731E+00
  weight for this iteration     100.00

 eigenvalues of (default mixing * dielectric matrix)
  average eigenvalue GAMMA=   0.7109
  2.0323  1.4332  1.4332  1.1758  1.0237  1.0237  0.7634  0.5766  0.4322  0.4322
  0.2437  0.0801  0.0084  0.0027  0.0020

 Free energy of the ion-electron system (eV)
  ---------------------------------------------------
  alpha Z        PSCENC =        19.04255889
  Ewald energy   TEWEN  =      7794.22900203
  -Hartree energ DENC   =    -10698.74589811
  -exchange      EXHF   =         0.00000000
  -V(xc)+E(xc)   XCENC  =      -146.79042420
  PAW double counting   =      2032.03458702    -1873.93449525
  entropy T*S    EENTRO =         0.00000000
  eigenvalues    EBANDS =      -422.75476794
  atomic energy  EATOM  =      3262.72306219
  Solvation  Ediel_sol  =         0.00000000
  ---------------------------------------------------
  free energy    TOTEN  =       -34.19637538 eV

  energy without entropy =      -34.19637538  energy(sigma->0) =      -34.19637538


--------------------------------------------------------------------------------------------------------




--------------------------------------- Iteration      1(  21)  ---------------------------------------


    POTLOK:  cpu time   50.5520: real time   50.8839
    SETDIJ:  cpu time    0.0520: real time    0.0520
     EDDAV:  cpu time   30.3560: real time   30.4724
 BZINTS: Fermi energy: -2.134281; 63.000000 electrons
         Band energy:-420.644848;  BLOECHL correction:  0.000000
       DOS:  cpu time    0.0000: real time    0.0034
    CHARGE:  cpu time    2.1080: real time    2.1166
    MIXING:  cpu time    0.0520: real time    0.0536
    --------------------------------------------
      LOOP:  cpu time   83.1200: real time   83.5820

 eigenvalue-minimisations  :  1328
 total energy-change (2. order) :-0.4922634E+00  (-0.3249110E-01)
 number of electron      62.9999991 magnetization       5.3637269
 augmentation part        1.8818358 magnetization       4.3453766

 Broyden mixing:
  rms(total) = 0.68842E+00    rms(broyden)= 0.68838E+00
  rms(prec ) = 0.70598E+00
  weight for this iteration     100.00

 eigenvalues of (default mixing * dielectric matrix)
  average eigenvalue GAMMA=   0.7625
  1.4338  1.4338  1.9545  1.9545  1.0149  1.0149  1.0314  0.4320  0.4320  0.5801
  0.5801  0.2448  0.0801  0.0084  0.0027  0.0020

 Free energy of the ion-electron system (eV)
  ---------------------------------------------------
  alpha Z        PSCENC =        19.04255889
  Ewald energy   TEWEN  =      7794.22900203
  -Hartree energ DENC   =    -10700.89167211
  -exchange      EXHF   =         0.00000000
  -V(xc)+E(xc)   XCENC  =      -147.44489014
  PAW double counting   =      2036.82031134    -1878.52216298
  entropy T*S    EENTRO =         0.00000000
  eigenvalues    EBANDS =      -420.64484799
  atomic energy  EATOM  =      3262.72306219
  Solvation  Ediel_sol  =         0.00000000
  ---------------------------------------------------
  free energy    TOTEN  =       -34.68863877 eV

  energy without entropy =      -34.68863877  energy(sigma->0) =      -34.68863877


--------------------------------------------------------------------------------------------------------




--------------------------------------- Iteration      1(  22)  ---------------------------------------


    POTLOK:  cpu time   50.8360: real time   50.8926
    SETDIJ:  cpu time    0.0520: real time    0.0507
     EDDAV:  cpu time   32.4640: real time   32.7289
 BZINTS: Fermi energy: -2.184747; 62.972844 electrons
         Band energy:-420.834910;  BLOECHL correction: -0.014701
       DOS:  cpu time    0.0080: real time    0.0092
    CHARGE:  cpu time    2.1080: real time    2.1236
    MIXING:  cpu time    0.0560: real time    0.0556
    --------------------------------------------
      LOOP:  cpu time   85.5240: real time   85.8607

 eigenvalue-minimisations  :  1440
 total energy-change (2. order) :-0.1157611E+00  (-0.1684387E-01)
 number of electron      62.9728435 magnetization       4.0052581
 augmentation part        2.0773517 magnetization       3.0127431

 Broyden mixing:
  rms(total) = 0.53989E+00    rms(broyden)= 0.53989E+00
  rms(prec ) = 0.55249E+00
  weight for this iteration     100.00

 eigenvalues of (default mixing * dielectric matrix)
  average eigenvalue GAMMA=   0.8554
  2.7355  2.7355  1.4206  1.4206  1.0856  1.0856  0.8309  0.8309  0.4320  0.4320
  0.6215  0.5729  0.2447  0.0801  0.0084  0.0027  0.0020

 Free energy of the ion-electron system (eV)
  ---------------------------------------------------
  alpha Z        PSCENC =        19.04255889
  Ewald energy   TEWEN  =      7794.22900203
  -Hartree energ DENC   =    -10700.76405376
  -exchange      EXHF   =         0.00000000
  -V(xc)+E(xc)   XCENC  =      -147.92655713
[...]
     34      -0.5996      0.00000
     35      -0.3609      0.00000
     36      -0.3179      0.00000
     37       0.1991      0.00000
     38       1.0084      0.00000
     39       1.0251      0.00000
     40       1.6630      0.00000
     41       1.9661      0.00000
     42       2.0313      0.00000
     43       2.6713      0.00000
     44       2.8892      0.00000
     45       2.9735      0.00000
     46       3.4676      0.00000
     47       3.5828      0.00000
     48       3.7384      0.00000

 k-point     5 :      -0.4000    0.2000    0.0000
  band No.  band energies     occupation 
      1     -14.7533      1.00000
      2     -13.6983      1.00000
      3     -13.3753      1.00000
      4     -13.2315      1.00000
      5     -12.7734      1.00000
      6     -12.6547      1.00000
      7     -10.7805      1.00000
      8      -9.1171      1.00000
      9      -6.8417      1.00000
     10      -6.4237      1.00000
     11      -6.1090      1.00000
     12      -5.5330      1.00000
     13      -5.4988      1.00000
     14      -4.9647      1.00000
     15      -4.8864      1.00000
     16      -4.6382      1.00000
     17      -4.5308      1.00000
     18      -4.2855      1.00000
     19      -4.1912      1.00000
     20      -3.9840      1.00000
     21      -3.9770      1.00000
     22      -3.4662      1.00000
     23      -3.1952      1.00000
     24      -2.9324      1.00000
     25      -2.7516      1.00000
     26      -2.7280      1.00000
     27      -2.4694      1.00000
     28      -2.3550      1.00000
     29      -2.2642      1.00000
     30      -2.2403      1.00000
     31      -2.2217      1.00000
     32      -1.2599      0.00427
     33      -0.9016      0.00000
     34      -0.8862      0.00000
     35      -0.5280      0.00000
     36      -0.2532      0.00000
     37       0.0680      0.00000
     38       0.5071      0.00000
     39       0.9797      0.00000
     40       1.5135      0.00000
     41       1.8116      0.00000
     42       1.8325      0.00000
     43       2.9796      0.00000
     44       3.1945      0.00000
     45       3.1964      0.00000
     46       3.3739      0.00000
     47       3.3938      0.00000
     48       3.9919      0.00000


--------------------------------------------------------------------------------------------------------


 soft charge-density along one line, spin component           1
         0         1         2         3         4         5         6         7         8         9
 total charge-density along one line

 soft charge-density along one line, spin component           2
         0         1         2         3         4         5         6         7         8         9
 total charge-density along one line

 pseudopotential strength for first ion, spin component:           1
 -9.524  -0.089  -0.000   0.014  -0.000   0.697   0.031   0.000
 -0.089  -9.558   0.000  -0.000   0.014   0.031   0.709  -0.000
 -0.000   0.000  -9.390   0.000   0.000   0.000  -0.000   0.650
  0.014  -0.000   0.000  -9.558   0.089  -0.005   0.000  -0.000
 -0.000   0.014   0.000   0.089  -9.524   0.000  -0.005  -0.000
  0.697   0.031   0.000  -0.005   0.000   0.775  -0.012  -0.000
  0.031   0.709  -0.000   0.000  -0.005  -0.012   0.771   0.000
  0.000  -0.000   0.650  -0.000  -0.000  -0.000   0.000   0.792
 -0.005   0.000  -0.000   0.709  -0.031   0.002  -0.000   0.000
  0.000  -0.005  -0.000  -0.031   0.697  -0.000   0.002   0.000
  0.000  -0.000  -0.007  -0.000   0.000  -0.000  -0.000   0.002
 -0.000   0.000   0.001   0.000  -0.000   0.000  -0.000  -0.000
 -0.000   0.002   0.000  -0.000   0.002   0.000  -0.001  -0.000
 -0.000  -0.000   0.003  -0.000  -0.000  -0.000   0.000  -0.001
  0.002  -0.000   0.000   0.002   0.000  -0.000  -0.000  -0.000
 -0.000  -0.001  -0.000   0.000  -0.002  -0.000   0.000   0.000
  0.000   0.000  -0.001   0.000   0.000  -0.000  -0.000   0.000
 -0.002   0.000  -0.000  -0.001   0.000   0.000  -0.000   0.000
 pseudopotential strength for first ion, spin component:           2
 -9.387  -0.057  -0.000  -0.015  -0.000   0.646   0.020   0.000
 -0.057  -9.408   0.000  -0.000  -0.015   0.020   0.654  -0.000
 -0.000   0.000  -9.298   0.000   0.000   0.000  -0.000   0.615
 -0.015  -0.000   0.000  -9.408   0.057   0.005   0.000  -0.000
 -0.000  -0.015   0.000   0.057  -9.387   0.000   0.005  -0.000
  0.646   0.020   0.000   0.005   0.000   0.793  -0.008  -0.000
  0.020   0.654  -0.000   0.000   0.005  -0.008   0.790   0.000
  0.000  -0.000   0.615  -0.000  -0.000  -0.000   0.000   0.805
  0.005   0.000  -0.000   0.654  -0.020  -0.002  -0.000   0.000
  0.000   0.005  -0.000  -0.020   0.646  -0.000  -0.002   0.000
  0.000  -0.000  -0.004  -0.000   0.000  -0.000  -0.000   0.002
 -0.000   0.000   0.000   0.000  -0.000   0.000  -0.000  -0.000
  0.000   0.002   0.000  -0.000   0.001  -0.000  -0.001  -0.000
 -0.000  -0.000   0.003  -0.000  -0.000  -0.000   0.000  -0.001
  0.001  -0.000   0.000   0.002  -0.000  -0.000  -0.000  -0.000
 -0.000  -0.001  -0.000   0.000  -0.002   0.000   0.000   0.000
  0.000   0.000  -0.001   0.000   0.000  -0.000  -0.000   0.000
 -0.002   0.000  -0.000  -0.001   0.000   0.000  -0.000   0.000
 total augmentation occupancy for first ion, spin component:           1
  1.671  -0.245   0.000   0.001  -0.000   0.113   0.109   0.000   0.005   0.000   0.000  -0.000  -0.000   0.000   0.019   0.000
 -0.245   1.479  -0.000  -0.000   0.001   0.112   0.204   0.000   0.000   0.005   0.000   0.000   0.000   0.000   0.002   0.000
  0.000  -0.000   1.905  -0.000  -0.000   0.000   0.000   0.007   0.000  -0.000   0.003  -0.002  -0.000   0.007   0.000   0.000
  0.001  -0.000  -0.000   1.479   0.245   0.005  -0.000   0.000   0.204  -0.112   0.000   0.000  -0.002   0.000   0.000   0.000
 -0.000   0.001  -0.000   0.245   1.671  -0.000   0.005  -0.000  -0.109   0.113  -0.000   0.000   0.019  -0.000   0.000  -0.000
  0.113   0.112   0.000   0.005  -0.000   0.072   0.043   0.000  -0.003  -0.000  -0.000  -0.000  -0.001  -0.000   0.011  -0.000
  0.109   0.204   0.000  -0.000   0.005   0.043   0.108   0.000  -0.000  -0.003   0.000  -0.000   0.001   0.000  -0.001  -0.000
  0.000   0.000   0.007   0.000  -0.000   0.000   0.000   0.053   0.000  -0.000  -0.004  -0.002  -0.000  -0.001   0.000   0.000
  0.005   0.000   0.000   0.204  -0.109  -0.003  -0.000   0.000   0.108  -0.043   0.000   0.000   0.001   0.000   0.001  -0.000
  0.000   0.005  -0.000  -0.112   0.113  -0.000  -0.003  -0.000  -0.043   0.072   0.000   0.000   0.011   0.000   0.001  -0.002
  0.000  -0.000   0.003   0.000  -0.000  -0.000   0.000  -0.004   0.000   0.000   1.033  -0.279   0.000   0.001   0.000   0.000
 -0.000   0.000  -0.002   0.000   0.000  -0.000   0.000  -0.002   0.000   0.000  -0.279   0.127   0.000  -0.001   0.000   0.000
 -0.000   0.000  -0.000  -0.002   0.019  -0.001   0.001  -0.000   0.001   0.011   0.000   0.000   0.184  -0.000  -0.000  -0.013
  0.000   0.000   0.007   0.000  -0.000  -0.000   0.000  -0.001   0.000   0.000   0.001  -0.001  -0.000   0.180  -0.000   0.000
  0.019   0.002   0.000   0.000   0.000   0.011  -0.001   0.000   0.001   0.001   0.000   0.000  -0.000  -0.000   0.184   0.000
  0.000   0.000   0.000   0.000  -0.000  -0.000  -0.000   0.000  -0.000  -0.002   0.000   0.000  -0.013   0.000   0.000   0.001
  0.000   0.000   0.000  -0.000  -0.000  -0.000   0.000  -0.000  -0.000   0.000  -0.000   0.000   0.000  -0.013   0.000  -0.000
 -0.000  -0.000  -0.000   0.000  -0.000  -0.002   0.000  -0.000  -0.000   0.000  -0.000   0.000  -0.000   0.000  -0.013  -0.000
 total augmentation occupancy for first ion, spin component:           2
  0.035   0.024   0.000  -0.022  -0.000  -0.019  -0.006  -0.000   0.009  -0.002  -0.000  -0.000   0.002  -0.000  -0.002   0.000
  0.024   0.044   0.000  -0.000  -0.022  -0.005  -0.019  -0.000  -0.002   0.007   0.000   0.000   0.002   0.000  -0.000   0.000
  0.000   0.000   0.000  -0.000  -0.000  -0.000  -0.000  -0.008   0.000   0.000  -0.000  -0.001   0.000  -0.000  -0.000   0.000
 -0.022  -0.000  -0.000   0.044  -0.024   0.007   0.002   0.000  -0.019   0.005  -0.000   0.000   0.000   0.000   0.002  -0.000
 -0.000  -0.022  -0.000  -0.024   0.035   0.002   0.009   0.000   0.006  -0.019   0.000   0.000  -0.002   0.000  -0.002   0.000
 -0.019  -0.005  -0.000   0.007   0.002   0.001  -0.000   0.000  -0.002  -0.000  -0.000   0.000  -0.001  -0.000   0.000   0.000
 -0.006  -0.019  -0.000   0.002   0.009  -0.000  -0.000   0.000   0.000  -0.002   0.000   0.000  -0.001   0.000   0.000   0.000
 -0.000  -0.000  -0.008   0.000   0.000   0.000   0.000   0.000  -0.000  -0.000  -0.000   0.000  -0.000  -0.000  -0.000   0.000
  0.009  -0.002   0.000  -0.019   0.006  -0.002   0.000  -0.000  -0.000   0.000   0.000  -0.000  -0.000   0.000  -0.001   0.000
 -0.002   0.007   0.000   0.005  -0.019  -0.000  -0.002  -0.000   0.000   0.001   0.000  -0.000   0.000   0.000   0.001  -0.000
 -0.000   0.000  -0.000  -0.000   0.000  -0.000   0.000  -0.000   0.000   0.000   0.003   0.005   0.000  -0.000  -0.000   0.000
 -0.000   0.000  -0.001   0.000   0.000   0.000   0.000   0.000   0.000  -0.000   0.005  -0.003   0.000   0.000  -0.000   0.000
  0.002   0.002   0.000   0.000  -0.002  -0.001  -0.001  -0.000  -0.000   0.000   0.000   0.000   0.001  -0.000  -0.000   0.000
 -0.000   0.000  -0.000   0.000   0.000  -0.000  -0.000  -0.000  -0.000   0.000  -0.000   0.000   0.000   0.001  -0.000  -0.000
 -0.002  -0.000  -0.000   0.002  -0.002   0.000   0.000  -0.000  -0.001   0.001   0.000  -0.000  -0.000   0.000   0.001   0.000
  0.000   0.000   0.000  -0.000   0.000   0.000   0.000   0.000   0.000  -0.000  -0.000   0.000   0.000   0.000   0.000  -0.000
  0.000   0.000   0.000   0.000  -0.000  -0.000   0.000  -0.000   0.000   0.000   0.000  -0.000  -0.000   0.000  -0.000   0.000
  0.000   0.000   0.000   0.000  -0.000  -0.000  -0.000   0.000   0.000  -0.000   0.000   0.000  -0.000  -0.000   0.000   0.000


------------------------ aborting loop because EDIFF is reached ----------------------------------------





 total charge     

# of ion       s       p       d       tot
------------------------------------------
    1        0.367   0.411   7.417   8.195
    2        0.367   0.411   7.417   8.195
    3        1.171   1.177   0.089   2.437
    4        1.086   1.378   0.000   2.464
    5        1.411   1.897   0.051   3.359
    6        1.396   1.888   0.054   3.338
    7        1.406   1.888   0.052   3.346
    8        1.401   1.926   0.046   3.373
    9        1.392   1.947   0.047   3.386
   10        1.397   1.926   0.047   3.370
--------------------------------------------------
tot         11.394  14.849  15.220  41.463



 magnetization (x)

# of ion       s       p       d       tot
------------------------------------------
    1        0.000   0.001   0.176   0.177
    2        0.000   0.001   0.176   0.177
    3        0.002   0.007   0.000   0.009
    4        0.019   0.004   0.000   0.023
    5        0.005   0.038   0.000   0.043
    6        0.003   0.030   0.001   0.034
    7        0.004   0.036   0.000   0.040
    8        0.003   0.002   0.000   0.005
    9        0.003   0.008   0.000   0.011
   10        0.002   0.002   0.000   0.004
--------------------------------------------------
tot          0.042   0.127   0.355   0.524

    CHARGE:  cpu time    2.0560: real time    2.1277
    FORLOC:  cpu time    0.0640: real time    0.0631
    FORNL :  cpu time    6.7520: real time    6.7726
    STRESS:  cpu time   20.1800: real time   20.3775
    FORCOR:  cpu time   50.9800: real time   51.0894
    FORHAR:  cpu time    0.3400: real time    0.3411
    MIXING:  cpu time    0.0480: real time    0.0493
    OFIELD:  cpu time    0.0000: real time    0.0000

  FORCE on cell =-STRESS in cart. coord.  units (eV):
  Direction    XX          YY          ZZ          XY          YZ          ZX
  --------------------------------------------------------------------------------------
  Alpha Z    22.21311    22.21311    22.21311
  Ewald    8658.56138  8658.55864-10591.04856    -0.00205    -0.00058    -0.00107
  Hartree  9230.00173  9230.00268 -8789.10872    -0.00026     0.00009     0.00014
  E(xc)    -267.15347  -267.15353  -267.09815     0.00009     0.00001     0.00002
  Local  -18774.55038-18774.54955 18453.35449     0.00199     0.00038     0.00072
  n-local   669.54081   670.23211   682.90226    -0.01146     0.56192     0.56523
  augment   -72.76834   -72.76828   -79.97363     0.00016    -0.00003     0.00009
  Kinetic   537.65445   530.44658   568.62095    -4.22217     0.51939    -0.26985
  Fock        0.00000     0.00000     0.00000     0.00000     0.00000     0.00000
  -------------------------------------------------------------------------------------
  Total       0.24052     0.24052    -0.13825     0.00000    -0.00000    -0.00000
  in kB       0.46398     0.46398    -0.26669     0.00000    -0.00000    -0.00000
  external pressure =        0.22 kB  Pullay stress =        0.00 kB


 VOLUME and BASIS-vectors are now :
 -----------------------------------------------------------------------------
  energy-cutoff  :      520.00
  volume of cell :      830.55
      direct lattice vectors                 reciprocal lattice vectors
     6.791030746 -0.000000106 -0.000000000     0.147253050 -0.085016584  0.000000000
     3.395514993  5.881204746 -0.000000000     0.000000003  0.170033188  0.000000000
    -0.000000000 -0.000000000 20.795234132     0.000000000  0.000000000  0.048087941

  length of vectors
     6.791030746  6.791030211 20.795234132     0.170033174  0.170033188  0.048087941


 FORCES acting on ions
    electron-ion (+dipol)            ewald-force                    non-local-force                 convergence-correction
 -----------------------------------------------------------------------------------------------
   0.552E-04 0.345E-04 0.135E+02   0.648E-03 0.389E-03 -.138E+02   -.139E-16 -.841E-19 0.215E+00   -.125E-07 0.178E-07 0.395E-03
   -.664E-04 -.184E-04 0.110E+02   -.643E-03 -.386E-03 -.112E+02   -.139E-16 -.661E-19 0.169E+00   -.765E-08 0.183E-07 0.403E-03
   -.292E-04 -.270E-04 0.194E+03   -.143E-03 -.794E-04 -.193E+03   0.140E-16 0.711E-17 -.428E+00   -.178E-09 -.366E-09 0.902E-04
   0.396E-04 0.304E-04 -.259E+03   0.200E-03 0.111E-03 0.259E+03   0.141E-16 0.301E-18 -.767E+00   0.186E-09 -.257E-09 -.430E-04
   -.187E+02 0.128E+00 -.399E+03   0.152E+02 -.122E+00 0.403E+03   0.266E+01 -.152E-01 -.450E+01   -.817E-04 -.830E-04 0.345E-03
   0.944E+01 0.161E+02 -.399E+03   -.769E+01 -.131E+02 0.403E+03   -.134E+01 -.230E+01 -.450E+01   -.311E-04 0.112E-03 0.345E-03
   0.922E+01 -.162E+02 -.399E+03   -.748E+01 0.132E+02 0.403E+03   -.132E+01 0.231E+01 -.450E+01   0.113E-03 -.292E-04 0.345E-03
   0.286E+02 -.136E+00 0.412E+03   -.249E+02 0.131E+00 -.417E+03   -.288E+01 0.151E-01 0.476E+01   0.342E-04 -.703E-04 -.204E-03
   -.144E+02 -.247E+02 0.412E+03   0.126E+02 0.215E+02 -.417E+03   0.145E+01 0.248E+01 0.476E+01   -.780E-04 0.549E-05 -.204E-03
   -.142E+02 0.249E+02 0.412E+03   0.123E+02 -.216E+02 -.417E+03   0.142E+01 -.250E+01 0.476E+01   0.437E-04 0.648E-04 -.204E-03
 -----------------------------------------------------------------------------------------------
   0.175E-04 0.123E-03 0.921E-02   -.355E-14 0.711E-14 0.568E-13   0.222E-15 0.000E+00 -.216E-01   -.209E-07 0.352E-07 0.127E-02


 POSITION                                       TOTAL-FORCE (eV/Angst)
 -----------------------------------------------------------------------------------
      3.39551      1.96040     10.40155        -0.000000     -0.000000     -0.004088
      6.79103      3.92081     10.40574        -0.000000     -0.000000     -0.006097
     -0.00000     -0.00000      9.32076        -0.000000     -0.000000      0.254523
     -0.00000     -0.00000     11.69467        -0.000000     -0.000000     -0.117203
      4.25504      0.00247     11.93131        -0.832493     -0.008258      0.011187
      1.27014      2.19501     11.93131         0.409095      0.725089      0.011187
      4.66138      3.68373     11.93131         0.423398     -0.716831      0.011187
      5.93151      5.87873      8.86393         0.854954      0.009527     -0.053565
      8.91641      3.68620      8.86393        -0.419227     -0.745175     -0.053565
      5.52517      2.19747      8.86393        -0.435728      0.735649     -0.053565
 -----------------------------------------------------------------------------------
    total drift:                                0.000017      0.000123     -0.011121


--------------------------------------------------------------------------------------------------------



  FREE ENERGIE OF THE ION-ELECTRON SYSTEM (eV)
  ---------------------------------------------------
  free  energy   TOTEN  =       -36.50381364 eV

  energy  without entropy=      -36.50381364  energy(sigma->0) =      -36.50381364

 d Force = 0.9781295E-03[ 0.504E-03, 0.145E-02]  d Energy = 0.2929883E-02-0.195E-02
 d Force =-0.1356219E+01[-0.135E+01,-0.136E+01]  d Ewald  = 0.6240343E+02-0.638E+02


--------------------------------------------------------------------------------------------------------


    POTLOK:  cpu time   51.0240: real time   51.2616


--------------------------------------------------------------------------------------------------------




--------------------------------------------------------------------------------------------------------


  
 reached required accuracy - stopping structural energy minimisation
     LOOP+:  cpu time 1198.6120: real time 1205.8883
    4ORBIT:  cpu time    0.0000: real time    0.0000



 total charge     

# of ion       s       p       d       tot
------------------------------------------
    1        0.367   0.411   7.417   8.195
    2        0.367   0.411   7.417   8.195
    3        1.171   1.177   0.089   2.437
    4        1.086   1.378   0.000   2.464
    5        1.411   1.897   0.051   3.359
    6        1.396   1.888   0.054   3.338
    7        1.406   1.888   0.052   3.346
    8        1.401   1.926   0.046   3.373
    9        1.392   1.947   0.047   3.386
   10        1.397   1.926   0.047   3.370
--------------------------------------------------
tot         11.394  14.849  15.220  41.463



 magnetization (x)

# of ion       s       p       d       tot
------------------------------------------
    1        0.000   0.001   0.176   0.177
    2        0.000   0.001   0.176   0.177
    3        0.002   0.007   0.000   0.009
    4        0.019   0.004   0.000   0.023
    5        0.005   0.038   0.000   0.043
    6        0.003   0.030   0.001   0.034
    7        0.004   0.036   0.000   0.040
    8        0.003   0.002   0.000   0.005
    9        0.003   0.008   0.000   0.011
   10        0.002   0.002   0.000   0.004
--------------------------------------------------
tot          0.042   0.127   0.355   0.524

 BZINTS: Fermi energy: -1.352459; 63.000000 electrons
         Band energy:-389.016012;  BLOECHL correction: -0.021716

 total amount of memory used by VASP MPI-rank0   132376. kBytes
=======================================================================

   base      :      30000. kBytes
   nonlr-proj:       9876. kBytes
   fftplans  :      11247. kBytes
   grid      :      68332. kBytes
   one-center:        311. kBytes
   wavefun   :      12610. kBytes

  
  
 General timing and accounting informations for this job:
 ========================================================
  
                  Total CPU time used (sec):    22170.896
                            User time (sec):    21700.368
                          System time (sec):      470.528
                         Elapsed time (sec):    22297.423
  
                   Maximum memory used (kb):      391804.
                   Average memory used (kb):           0.
  
                          Minor page faults:     18132994
                          Major page faults:            8
                 Voluntary context switches:         1151
