       N       E                     dE             d eps       ncg     rms          rms(c)
DAV:   1     0.377576902953E+03    0.37758E+03   -0.19771E+04   960   0.946E+02
DAV:   2     0.480126882776E+01   -0.37278E+03   -0.36088E+03  1320   0.189E+02
DAV:   3    -0.317680548105E+02   -0.36569E+02   -0.36189E+02  1368   0.611E+01
DAV:   4    -0.328589626716E+02   -0.10909E+01   -0.10903E+01  1416   0.116E+01
DAV:   5    -0.328694980833E+02   -0.10535E-01   -0.10531E-01  1584   0.124E+00    0.160E+01
DAV:   6    -0.451873680444E+02   -0.12318E+02   -0.13838E+02  1128   0.105E+02    0.251E+01
DAV:   7    -0.311775713228E+02    0.14010E+02   -0.25548E+01  1080   0.583E+01    0.685E+00
DAV:   8    -0.313799592045E+02   -0.20239E+00   -0.75044E+00  1392   0.304E+01    0.851E+00
DAV:   9    -0.313262153266E+02    0.53744E-01   -0.55695E+00   984   0.249E+01    0.570E+00
DAV:  10    -0.311174324237E+02    0.20878E+00   -0.95516E-01  1296   0.122E+01    0.155E+00
DAV:  11    -0.312687056010E+02   -0.15127E+00   -0.14800E-01  1248   0.210E+00    0.108E+00
DAV:  12    -0.313750969514E+02   -0.10639E+00   -0.59006E-02  1056   0.211E+00    0.129E+00
DAV:  13    -0.314321513093E+02   -0.57054E-01   -0.59930E-02  1008   0.291E+00    0.523E-01
DAV:  14    -0.314402117753E+02   -0.80605E-02   -0.11550E-02   960   0.130E+00    0.336E-01
DAV:  15    -0.314410500447E+02   -0.83827E-03   -0.74444E-03   960   0.939E-01    0.207E-01
DAV:  16    -0.314411961519E+02   -0.14611E-03   -0.12082E-03  1128   0.360E-01    0.872E-02
DAV:  17    -0.314420431218E+02   -0.84697E-03   -0.70267E-04  1032   0.175E-01    0.244E-02
DAV:  18    -0.314430026736E+02   -0.95955E-03   -0.19773E-04   816   0.573E-02    0.276E-02
DAV:  19    -0.314433713087E+02   -0.36864E-03   -0.23390E-04   936   0.685E-02    0.917E-03
DAV:  20    -0.314435329423E+02   -0.16163E-03   -0.23664E-04   936   0.541E-02    0.176E-02
DAV:  21    -0.314436132190E+02   -0.80277E-04   -0.16230E-04   840   0.744E-02
   1 F= -.31443613E+02 E0= -.31443613E+02  d E =-.314436E+02  mag=     1.7462
       N       E                     dE             d eps       ncg     rms          rms(c)
DAV:   1    -0.355060687650E+02   -0.40625E+01   -0.43283E+01  1152   0.575E+01    0.204E+01
DAV:   2    -0.537539177913E+02   -0.18248E+02   -0.24768E+02   960   0.135E+02    0.278E+01
DAV:   3    -0.324904799981E+02    0.21263E+02   -0.40341E+01  1056   0.784E+01    0.806E+00
DAV:   4    -0.324853901317E+02    0.50899E-02   -0.13300E+01  1392   0.420E+01    0.100E+01
DAV:   5    -0.317092031765E+02    0.77619E+00   -0.50616E+00  1248   0.200E+01    0.114E+00
DAV:   6    -0.317585955907E+02   -0.49392E-01   -0.28773E-01  1296   0.397E+00    0.237E+00
DAV:   7    -0.317187826427E+02    0.39813E-01   -0.29109E-01  1104   0.672E+00    0.554E-01
DAV:   8    -0.317313274029E+02   -0.12545E-01   -0.23831E-02  1056   0.779E-01    0.413E-01
DAV:   9    -0.317336525249E+02   -0.23251E-02   -0.26511E-03  1176   0.456E-01    0.503E-01
DAV:  10    -0.317324153950E+02    0.12371E-02   -0.32102E-03  1032   0.277E-01    0.447E-01
DAV:  11    -0.317365709804E+02   -0.41556E-02   -0.11182E-02  1080   0.763E-01    0.768E-01
DAV:  12    -0.317337102451E+02    0.28607E-02   -0.84337E-03  1104   0.113E+00    0.304E-01
DAV:  13    -0.317341435658E+02   -0.43332E-03   -0.12839E-03  1224   0.215E-01    0.168E-01
DAV:  14    -0.317343381438E+02   -0.19458E-03   -0.47896E-04  1032   0.218E-01    0.567E-02
DAV:  15    -0.317344912326E+02   -0.15309E-03   -0.15718E-04   840   0.959E-02    0.251E-02
DAV:  16    -0.317345452125E+02   -0.53980E-04   -0.11152E-04   768   0.803E-02
   2 F= -.31734545E+02 E0= -.31734545E+02  d E =-.290932E+00  mag=     0.3608
       N       E                     dE             d eps       ncg     rms          rms(c)
DAV:   1    -0.317734911487E+02   -0.39000E-01   -0.44857E-01  1008   0.595E+00    0.194E+00
DAV:   2    -0.320468136219E+02   -0.27332E+00   -0.19122E+00  1056   0.166E+01    0.506E+00
DAV:   3    -0.317380800389E+02    0.30873E+00   -0.11713E+00  1032   0.143E+01    0.607E-01
DAV:   4    -0.317364224201E+02    0.16576E-02   -0.61472E-02  1032   0.116E+00    0.272E-01
DAV:   5    -0.317358878421E+02    0.53458E-03   -0.28271E-03  1392   0.504E-01    0.630E-02
DAV:   6    -0.317359222961E+02   -0.34454E-04   -0.35695E-04  1128   0.103E-01
   3 F= -.31735922E+02 E0= -.31735922E+02  d E =-.292309E+00  mag=     0.3575
       N       E                     dE             d eps       ncg     rms          rms(c)
DAV:   1    -0.319963805953E+02   -0.26049E+00   -0.89334E+00  1056   0.119E+01    0.294E+00
DAV:   2    -0.324562435522E+02   -0.45986E+00   -0.36636E+00  1056   0.226E+01    0.634E+00
DAV:   3    -0.319187372391E+02    0.53751E+00   -0.19374E+00  1080   0.202E+01    0.117E+00
DAV:   4    -0.318971842753E+02    0.21553E-01   -0.18304E-01   984   0.197E+00    0.503E-01
DAV:   5    -0.318943051252E+02    0.28792E-02   -0.15010E-02  1200   0.122E+00    0.108E-01
DAV:   6    -0.318951767661E+02   -0.87164E-03   -0.19358E-03  1032   0.244E-01    0.574E-02
DAV:   7    -0.318960115654E+02   -0.83480E-03   -0.58611E-04  1008   0.101E-01    0.396E-02
DAV:   8    -0.318970340510E+02   -0.10225E-02   -0.96027E-04  1008   0.133E-01    0.424E-02
DAV:   9    -0.318979621643E+02   -0.92811E-03   -0.12992E-03  1104   0.136E-01    0.286E-02
DAV:  10    -0.318982911725E+02   -0.32901E-03   -0.72841E-04  1032   0.818E-02    0.188E-02
DAV:  11    -0.318981383369E+02    0.15284E-03   -0.67667E-04  1104   0.575E-02    0.173E-02
DAV:  12    -0.318978307121E+02    0.30762E-03   -0.20217E-04   840   0.382E-02    0.142E-02
DAV:  13    -0.318976242868E+02    0.20643E-03   -0.99282E-05   864   0.258E-02    0.136E-02
DAV:  14    -0.318975734015E+02    0.50885E-04   -0.61208E-05   840   0.395E-02
   4 F= -.31897573E+02 E0= -.31897573E+02  d E =-.161651E+00  mag=     0.2127
       N       E                     dE             d eps       ncg     rms          rms(c)
DAV:   1    -0.320586166514E+02   -0.16099E+00   -0.10803E+01  1200   0.130E+01    0.334E+00
DAV:   2    -0.326931960861E+02   -0.63458E+00   -0.52551E+00  1128   0.267E+01    0.719E+00
DAV:   3    -0.319308096568E+02    0.76239E+00   -0.24911E+00  1104   0.236E+01    0.117E+00
DAV:   4    -0.319604151355E+02   -0.29605E-01   -0.26801E-01  1104   0.194E+00    0.626E-01
DAV:   5    -0.319597428731E+02    0.67226E-03   -0.21956E-02  1032   0.153E+00    0.117E-01
DAV:   6    -0.319612086409E+02   -0.14658E-02   -0.31570E-03  1056   0.283E-01    0.803E-02
DAV:   7    -0.319626457598E+02   -0.14371E-02   -0.12417E-03   960   0.154E-01    0.618E-02
DAV:   8    -0.319637712696E+02   -0.11255E-02   -0.10607E-03  1008   0.153E-01    0.651E-02
DAV:   9    -0.319648694297E+02   -0.10982E-02   -0.94542E-04  1056   0.160E-01    0.266E-02
DAV:  10    -0.319653360365E+02   -0.46661E-03   -0.66006E-04  1008   0.826E-02    0.226E-02
DAV:  11    -0.319655161543E+02   -0.18012E-03   -0.34290E-04   960   0.430E-02    0.196E-02
DAV:  12    -0.319654810955E+02    0.35059E-04   -0.11061E-04   840   0.409E-02
   5 F= -.31965481E+02 E0= -.31965481E+02  d E =-.229559E+00  mag=    -0.0151
       N       E                     dE             d eps       ncg     rms          rms(c)
DAV:   1    -0.337186503297E+02   -0.17531E+01   -0.22365E+01  1056   0.437E+01    0.119E+01
DAV:   2    -0.449596976706E+02   -0.11241E+02   -0.53364E+01  1344   0.102E+02    0.394E+01
DAV:   3    -0.327031859925E+02    0.12257E+02   -0.13665E+02  1104   0.559E+01    0.806E+00
DAV:   4    -0.320378337544E+02    0.66535E+00   -0.25754E+00   960   0.176E+01    0.196E+00
DAV:   5    -0.320040882980E+02    0.33745E-01   -0.21115E-01  1128   0.207E+00    0.120E+00
DAV:   6    -0.319763944840E+02    0.27694E-01   -0.94136E-02  1344   0.240E+00    0.160E-01
DAV:   7    -0.319773264625E+02   -0.93198E-03   -0.14452E-02   984   0.631E-01    0.749E-02
DAV:   8    -0.319768707444E+02    0.45572E-03   -0.20684E-03  1080   0.180E-01    0.373E-02
DAV:   9    -0.319767689385E+02    0.10181E-03   -0.44954E-04  1032   0.111E-01    0.258E-02
DAV:  10    -0.319767672603E+02    0.16782E-05   -0.48279E-05   768   0.310E-02
   6 F= -.31976767E+02 E0= -.31976767E+02  d E =-.112862E-01  mag=    -0.0042
       N       E                     dE             d eps       ncg     rms          rms(c)
DAV:   1    -0.324779827832E+02   -0.50121E+00   -0.52810E+00  1200   0.209E+01    0.729E+00
DAV:   2    -0.359705846797E+02   -0.34926E+01   -0.32422E+01  1008   0.638E+01    0.149E+01
DAV:   3    -0.319757666146E+02    0.39948E+01   -0.86181E+00  1056   0.482E+01    0.961E-01
DAV:   4    -0.320958817236E+02   -0.12012E+00   -0.17611E+00  1032   0.851E+00    0.323E+00
DAV:   5    -0.320107712870E+02    0.85110E-01   -0.54390E-01  1104   0.779E+00    0.295E-01
DAV:   6    -0.320110737907E+02   -0.30250E-03   -0.20599E-02  1032   0.109E+00    0.112E-01
DAV:   7    -0.320114301222E+02   -0.35633E-03   -0.17924E-03  1344   0.396E-01    0.839E-02
DAV:   8    -0.320115808904E+02   -0.15077E-03   -0.72379E-04  1008   0.296E-01    0.418E-02
DAV:   9    -0.320117777048E+02   -0.19681E-03   -0.12545E-04   720   0.109E-01    0.666E-03
DAV:  10    -0.320119832427E+02   -0.20554E-03   -0.12164E-04   720   0.460E-02    0.149E-02
DAV:  11    -0.320120792140E+02   -0.95971E-04   -0.62833E-05   768   0.428E-02
   7 F= -.32012079E+02 E0= -.32012079E+02  d E =-.465981E-01  mag=    -0.0003
       N       E                     dE             d eps       ncg     rms          rms(c)
DAV:   1    -0.320154992309E+02   -0.35160E-02   -0.82021E-02   960   0.115E+00    0.248E-01
DAV:   2    -0.320185298407E+02   -0.30306E-02   -0.24985E-02  1008   0.177E+00    0.540E-01
DAV:   3    -0.320151152842E+02    0.34146E-02   -0.17098E-02   960   0.161E+00    0.137E-01
DAV:   4    -0.320149357034E+02    0.17958E-03   -0.12839E-03   984   0.272E-01    0.229E-02
DAV:   5    -0.320149777033E+02   -0.42000E-04   -0.88699E-05   912   0.672E-02
   8 F= -.32014978E+02 E0= -.32014978E+02  d E =-.289849E-02  mag=    -0.0001
       N       E                     dE             d eps       ncg     rms          rms(c)
DAV:   1    -0.320205737052E+02   -0.56380E-02   -0.30956E-01  1008   0.225E+00    0.490E-01
DAV:   2    -0.320324286934E+02   -0.11855E-01   -0.10296E-01  1080   0.358E+00    0.109E+00
DAV:   3    -0.320184327694E+02    0.13996E-01   -0.67746E-02  1152   0.323E+00    0.257E-01
DAV:   4    -0.320179983758E+02    0.43439E-03   -0.45928E-03  1152   0.507E-01    0.392E-02
DAV:   5    -0.320180444051E+02   -0.46029E-04   -0.30282E-04   960   0.112E-01
   9 F= -.32018044E+02 E0= -.32018044E+02  d E =-.596519E-02  mag=    -0.0001
       N       E                     dE             d eps       ncg     rms          rms(c)
DAV:   1    -0.320397932353E+02   -0.21795E-01   -0.32360E-01   960   0.479E+00    0.146E+00
DAV:   2    -0.322129016251E+02   -0.17311E+00   -0.12268E+00   960   0.129E+01    0.459E+00
DAV:   3    -0.320209305174E+02    0.19197E+00   -0.11020E+00   960   0.111E+01    0.673E-01
DAV:   4    -0.320175950002E+02    0.33355E-02   -0.35557E-02   960   0.136E+00    0.152E-01
DAV:   5    -0.320174479440E+02    0.14706E-03   -0.16097E-03  1296   0.251E-01    0.523E-02
DAV:   6    -0.320173691184E+02    0.78826E-04   -0.23630E-04   744   0.118E-01
  10 F= -.32017369E+02 E0= -.32017369E+02  d E =0.675287E-03  mag=    -0.0000
       N       E                     dE             d eps       ncg     rms          rms(c)
DAV:   1    -0.320269669620E+02   -0.95190E-02   -0.13179E-01  1224   0.300E+00    0.968E-01
DAV:   2    -0.320990217031E+02   -0.72055E-01   -0.54048E-01   984   0.855E+00    0.262E+00
DAV:   3    -0.320174894111E+02    0.81532E-01   -0.31905E-01   960   0.727E+00    0.280E-01
DAV:   4    -0.320183831909E+02   -0.89378E-03   -0.13392E-02   960   0.533E-01    0.135E-01
DAV:   5    -0.320185053287E+02   -0.12214E-03   -0.73821E-04  1248   0.262E-01    0.240E-02
DAV:   6    -0.320185473277E+02   -0.41999E-04   -0.10518E-04   744   0.443E-02
  11 F= -.32018547E+02 E0= -.32018547E+02  d E =-.502923E-03  mag=    -0.0000
