 vasp.5.4.4.18Apr17-6-g9f103f2a35 (build May  1 2020 15:48:39) complex           
 executed on             LinuxGNU date 2020.06.14  18:49:53
 running on   24 total cores
 distrk:  each k-point on   24 cores,    1 groups
 distr:  one band on NCORES_PER_BAND=   1 cores,   24 groups


--------------------------------------------------------------------------------------------------------


 INCAR:
 POTCAR:   PAW_PBE Ni 06Sep2000                   
 POTCAR:   PAW_PBE Ge 05Jan2001                   
 POTCAR:   PAW_PBE Te 08Apr2002                   

 ----------------------------------------------------------------------------- 
|                                                                             |
|           W    W    AA    RRRRR   N    N  II  N    N   GGGG   !!!           |
|           W    W   A  A   R    R  NN   N  II  NN   N  G    G  !!!           |
|           W    W  A    A  R    R  N N  N  II  N N  N  G       !!!           |
|           W WW W  AAAAAA  RRRRR   N  N N  II  N  N N  G  GGG   !            |
|           WW  WW  A    A  R   R   N   NN  II  N   NN  G    G                |
|           W    W  A    A  R    R  N    N  II  N    N   GGGG   !!!           |
|                                                                             |
|      For optimal performance we recommend to set                            |
|        NCORE= 4 - approx SQRT( number of cores)                             |
|      NCORE specifies how many cores store one orbital (NPAR=cpu/NCORE).     |
|      This setting can  greatly improve the performance of VASP for DFT.     |
|      The default,   NCORE=1            might be grossly inefficient         |
|      on modern multi-core architectures or massively parallel machines.     |
|      Do your own testing !!!!                                               |
|      Unfortunately you need to use the default for GW and RPA calculations. |
|      (for HF NCORE is supported but not extensively tested yet)             |
|                                                                             |
 ----------------------------------------------------------------------------- 


 ----------------------------------------------------------------------------- 
|                                                                             |
|  ADVICE TO THIS USER RUNNING 'VASP/VAMP'   (HEAR YOUR MASTER'S VOICE ...):  |
|                                                                             |
|      You have switched on vdW-DFT.                                          |
|      This routine was written and supplied by Jiri Klimes.                  |
|      We recommed that you carefully read and cite the following             |
|      publication                                                            |
|      J. Klimes, D.R. Bowler, A. Michelides                                  |
|        J. Phys.: Cond Matt. 22 022201 (2010)                                |
|      J. Klimes, D.R. Bowler, A. Michelides                                  |
|        Phys. Rev. B. 83, 195131 (2011)                                      |
|      and references therein.                                                |
|                                                                             |
 ----------------------------------------------------------------------------- 

 POTCAR:   PAW_PBE Ni 06Sep2000                   
   VRHFIN =Ni:                                                                  
   LEXCH  = PE                                                                  
   EATOM  =  1077.9025 eV,   79.2236 Ry                                         
                                                                                
   TITEL  = PAW_PBE Ni 06Sep2000                                                
   LULTRA =        F    use ultrasoft PP ?                                      
   IUNSCR =        1    unscreen: 0-lin 1-nonlin 2-no                           
   RPACOR =    2.000    partial core radius                                     
   POMASS =   58.690; ZVAL   =   10.000    mass and valenz                      
   RCORE  =    2.300    outmost cutoff radius                                   
   RWIGS  =    2.430; RWIGS  =    1.286    wigner-seitz radius (au A)           
   ENMAX  =  269.533; ENMIN  =  202.150 eV                                      
   RCLOC  =    1.681    cutoff for local pot                                    
   LCOR   =        T    correct aug charges                                     
   LPAW   =        T    paw PP                                                  
   EAUG   =  544.565                                                            
   DEXC   =    -.009                                                            
   RMAX   =    2.808    core radius for proj-oper                               
   RAUG   =    1.300    factor for augmentation sphere                          
   RDEP   =    2.390    radius for radial grids                                 
   QCUT   =   -4.451; QGAM   =    8.902    optimization parameters              
                                                                                
   Description                                                                  
     l     E      TYP  RCUT    TYP  RCUT                                        
     2   .000     23  2.300                                                     
     2   .000     23  2.300                                                     
     0   .000     23  2.300                                                     
     0   .000     23  2.300                                                     
     1  -.200     23  2.300                                                     
     1   .000     23  2.300                                                     
     3   .000      7   .000                                                     
  local pseudopotential read in
  partial core-charges read in
  atomic valenz-charges read in
  non local Contribution for L=           2  read in
    real space projection operators read in
  non local Contribution for L=           2  read in
    real space projection operators read in
  non local Contribution for L=           0  read in
    real space projection operators read in
  non local Contribution for L=           0  read in
    real space projection operators read in
  non local Contribution for L=           1  read in
    real space projection operators read in
  non local Contribution for L=           1  read in
    real space projection operators read in
    PAW grid and wavefunctions read in

   number of l-projection  operators is LMAX  =           6
   number of lm-projection operators is LMMAX =          18

 POTCAR:   PAW_PBE Ge 05Jan2001                   
   VRHFIN =Ge: s2p2                                                             
   LEXCH  = PE                                                                  
   EATOM  =   104.9960 eV,    7.7170 Ry                                         
                                                                                
   TITEL  = PAW_PBE Ge 05Jan2001                                                
   LULTRA =        F    use ultrasoft PP ?                                      
   IUNSCR =        1    unscreen: 0-lin 1-nonlin 2-no                           
   RPACOR =    2.170    partial core radius                                     
   POMASS =   72.610; ZVAL   =    4.000    mass and valenz                      
   RCORE  =    2.300    outmost cutoff radius                                   
   RWIGS  =    2.300; RWIGS  =    1.217    wigner-seitz radius (au A)           
   ENMAX  =  173.807; ENMIN  =  130.355 eV                                      
   ICORE  =        3    local potential                                         
   LCOR   =        T    correct aug charges                                     
   LPAW   =        T    paw PP                                                  
   EAUG   =  385.843                                                            
   DEXC   =    -.138                                                            
   RMAX   =    3.497    core radius for proj-oper                               
   RAUG   =    1.300    factor for augmentation sphere                          
   RDEP   =    2.318    radius for radial grids                                 
   QCUT   =   -3.574; QGAM   =    7.148    optimization parameters              
                                                                                
   Description                                                                  
     l     E      TYP  RCUT    TYP  RCUT                                        
     0   .000     23  2.300                                                     
     0   .000     23  2.300                                                     
     1   .000     23  2.300                                                     
     1   .000     23  2.300                                                     
     2   .000     23  2.300                                                     
     3  -.100      7  2.300                                                     
  local pseudopotential read in
  partial core-charges read in
  atomic valenz-charges read in
  non local Contribution for L=           0  read in
    real space projection operators read in
  non local Contribution for L=           0  read in
    real space projection operators read in
  non local Contribution for L=           1  read in
    real space projection operators read in
  non local Contribution for L=           1  read in
    real space projection operators read in
  non local Contribution for L=           2  read in
    real space projection operators read in
    PAW grid and wavefunctions read in

   number of l-projection  operators is LMAX  =           5
   number of lm-projection operators is LMMAX =          13

 POTCAR:   PAW_PBE Te 08Apr2002                   
   VRHFIN =Te: s2p4                                                             
   LEXCH  = PE                                                                  
   EATOM  =   223.2721 eV,   16.4100 Ry                                         
                                                                                
   TITEL  = PAW_PBE Te 08Apr2002                                                
   LULTRA =        F    use ultrasoft PP ?                                      
   IUNSCR =        1    unscreen: 0-lin 1-nonlin 2-no                           
   RPACOR =    2.200    partial core radius                                     
   POMASS =  127.600; ZVAL   =    6.000    mass and valenz                      
   RCORE  =    2.300    outmost cutoff radius                                   
   RWIGS  =    2.900; RWIGS  =    1.535    wigner-seitz radius (au A)           
   ENMAX  =  174.982; ENMIN  =  131.236 eV                                      
   ICORE  =        3    local potential                                         
   LCOR   =        T    correct aug charges                                     
   LPAW   =        T    paw PP                                                  
   EAUG   =  368.792                                                            
   DEXC   =    -.169                                                            
   RMAX   =    3.486    core radius for proj-oper                               
   RAUG   =    1.300    factor for augmentation sphere                          
   RDEP   =    2.397    radius for radial grids                                 
   QCUT   =   -3.586; QGAM   =    7.172    optimization parameters              
                                                                                
   Description                                                                  
     l     E      TYP  RCUT    TYP  RCUT                                        
     0   .000     23  2.300                                                     
     0   .000     23  2.300                                                     
     1   .000     23  2.300                                                     
     1   .000     23  2.300                                                     
     2   .000     23  2.300                                                     
     3  -.100     23  2.300                                                     
  local pseudopotential read in
  partial core-charges read in
  atomic valenz-charges read in
  non local Contribution for L=           0  read in
    real space projection operators read in
  non local Contribution for L=           0  read in
    real space projection operators read in
  non local Contribution for L=           1  read in
    real space projection operators read in
  non local Contribution for L=           1  read in
    real space projection operators read in
  non local Contribution for L=           2  read in
    real space projection operators read in
    PAW grid and wavefunctions read in

   number of l-projection  operators is LMAX  =           5
   number of lm-projection operators is LMMAX =          13

 Optimization of the real space projectors (new method)

 maximal supplied QI-value         = 16.25
 optimisation between [QCUT,QGAM] = [ 11.54, 23.24] = [ 37.28,151.24] Ry 
 Optimized for a Real-space Cutoff    1.49 Angstroem

   l    n(q)    QCUT    max X(q) W(low)/X(q) W(high)/X(q)  e(spline) 
   2      9    11.539     4.811    0.20E-04    0.14E-04    0.45E-07
   2      9    11.539    15.146    0.24E-03    0.12E-03    0.20E-06
   0     10    11.539    14.357    0.18E-04    0.12E-05    0.14E-07
   0     10    11.539    43.282    0.39E-04    0.17E-04    0.23E-06
   1     10    11.539     5.514    0.99E-05    0.13E-04    0.19E-07
   1     10    11.539     7.697    0.38E-04    0.79E-04    0.91E-07
 Optimization of the real space projectors (new method)

 maximal supplied QI-value         = 16.25
 optimisation between [QCUT,QGAM] = [ 11.54, 23.24] = [ 37.28,151.24] Ry 
 Optimized for a Real-space Cutoff    1.28 Angstroem

   l    n(q)    QCUT    max X(q) W(low)/X(q) W(high)/X(q)  e(spline) 
   0      9    11.539     8.651    0.22E-04    0.16E-04    0.10E-07
   0      9    11.539    33.192    0.11E-03    0.16E-03    0.65E-07
   1      8    11.539     5.899    0.37E-04    0.28E-04    0.43E-07
   1      8    11.539    27.289    0.22E-03    0.28E-04    0.14E-06
   2      8    11.539     4.673    0.11E-03    0.18E-03    0.58E-07
 Optimization of the real space projectors (new method)

 maximal supplied QI-value         = 16.25
 optimisation between [QCUT,QGAM] = [ 11.54, 23.24] = [ 37.28,151.24] Ry 
 Optimized for a Real-space Cutoff    1.36 Angstroem

   l    n(q)    QCUT    max X(q) W(low)/X(q) W(high)/X(q)  e(spline) 
   0      9    11.539     7.090    0.13E-04    0.25E-05    0.51E-08
   0      9    11.539   101.654    0.53E-04    0.69E-04    0.12E-06
   1      9    11.539     5.276    0.20E-04    0.98E-05    0.24E-07
   1      9    11.539    81.891    0.24E-03    0.13E-04    0.15E-06
   2      9    11.539     5.599    0.30E-04    0.97E-04    0.54E-07

 ----------------------------------------------------------------------------- 
|                                                                             |
|  ADVICE TO THIS USER RUNNING 'VASP/VAMP'   (HEAR YOUR MASTER'S VOICE ...):  |
|                                                                             |
|      You enforced a specific xc-type in the INCAR file,                     |
|      a different type was found on the POTCAR file                          |
|          I HOPE YOU KNOW, WHAT YOU ARE  DOING                               |
|                                                                             |
 ----------------------------------------------------------------------------- 

 PAW_PBE Ni 06Sep2000                   :
 energy of atom  1       EATOM=-1077.9025
 kinetic energy error for atom=    0.0030 (will be added to EATOM!!)
 PAW_PBE Ge 05Jan2001                   :
 energy of atom  2       EATOM= -104.9960
 kinetic energy error for atom=    0.0002 (will be added to EATOM!!)
 PAW_PBE Te 08Apr2002                   :
 energy of atom  3       EATOM= -223.2721
 kinetic energy error for atom=    0.0007 (will be added to EATOM!!)


 POSCAR: Ni2 Ge2 Te6                             
  positions in direct lattice
  velocities in cartesian coordinates
  No initial velocities read in
 exchange correlation table for  LEXCH =       42
   RHO(1)=    0.500       N(1)  =     2000
   RHO(2)=  100.500       N(2)  =     4000



--------------------------------------------------------------------------------------------------------


 ion  position               nearest neighbor table
   1  0.333  0.333  0.500-   6 2.78   5 2.78   7 2.78   8 2.78  10 2.78   9 2.78
   2  0.667  0.667  0.500-   9 2.78   8 2.78  10 2.78   5 2.78   7 2.78   6 2.78
   3  0.000  0.000  0.448-   4 2.43   8 2.63  10 2.63   9 2.63
   4  0.000  0.000  0.552-   3 2.43   5 2.63   7 2.63   6 2.63
   5  0.626  0.000  0.574-   4 2.63   1 2.78   2 2.78
   6  0.000  0.373  0.574-   4 2.63   1 2.78   2 2.78
   7  0.373  0.626  0.574-   4 2.63   1 2.78   2 2.78
   8  0.374  1.000  0.426-   3 2.63   2 2.78   1 2.78
   9  1.000  0.627  0.426-   3 2.63   2 2.78   1 2.78
  10  0.627  0.374  0.426-   3 2.63   2 2.78   1 2.78

  LATTYP: Found a hexagonal cell.
 ALAT       =     6.9077769333
 C/A-ratio  =     3.3939410937
  
  Lattice vectors:
  
 A1 = (   3.4538890000,  -5.9823100000,   0.0000000000)
 A2 = (  -6.9077770000,   0.0000000000,   0.0000000000)
 A3 = (   0.0000000000,   0.0000000000, -23.4445880000)


Analysis of symmetry for initial positions (statically):
=====================================================================
 Subroutine PRICEL returns:
 Original cell was already a primitive cell.
 

 Routine SETGRP: Setting up the symmetry group for a 
 hexagonal supercell.


 Subroutine GETGRP returns: Found  6 space group operations
 (whereof  6 operations were pure point group operations)
 out of a pool of 24 trial point group operations.


The static configuration has the point symmetry S_6 .


Analysis of symmetry for dynamics (positions and initial velocities):
=====================================================================
 Subroutine PRICEL returns:
 Original cell was already a primitive cell.
 

 Routine SETGRP: Setting up the symmetry group for a 
 hexagonal supercell.


 Subroutine GETGRP returns: Found  6 space group operations
 (whereof  6 operations were pure point group operations)
 out of a pool of 24 trial point group operations.


The dynamic configuration has the point symmetry S_6 .


Analysis of structural, dynamic, and magnetic symmetry:
=====================================================================
 Subroutine PRICEL returns:
 Original cell was already a primitive cell.
 

 Routine SETGRP: Setting up the symmetry group for a 
 hexagonal supercell.


 Subroutine GETGRP returns: Found  6 space group operations
 (whereof  6 operations were pure point group operations)
 out of a pool of 24 trial point group operations.


The magnetic configuration has the point symmetry S_6 .


 Subroutine INISYM returns: Found  6 space group operations
 (whereof  6 operations are pure point group operations),
 and found     1 'primitive' translations



 KPOINTS: Kpoints from vasprun.xml                

Automatic generation of k-mesh.
Space group operators:
 irot       det(A)        alpha          n_x          n_y          n_z        tau_x        tau_y        tau_z
    1     1.000000     0.000000     1.000000     0.000000     0.000000     0.000000     0.000000     0.000000
    2    -1.000000     0.000000     1.000000     0.000000     0.000000     0.000000     0.000000     0.000000
    3     1.000000   120.000000     0.000000     0.000000     1.000000     0.000000     0.000000     0.000000
    4    -1.000000   120.000000     0.000000     0.000000     1.000000     0.000000     0.000000     0.000000
    5     1.000000   120.000000     0.000000     0.000000    -1.000000     0.000000     0.000000     0.000000
    6    -1.000000   120.000000     0.000000     0.000000    -1.000000     0.000000     0.000000     0.000000
 
 Subroutine IBZKPT returns following result:
 ===========================================
 
 Found      5 irreducible k-points:
 
 Following reciprocal coordinates:
            Coordinates               Weight
  0.000000  0.000000  0.000000      1.000000
  0.200000  0.000000  0.000000      6.000000
  0.400000  0.000000  0.000000      6.000000
  0.400000  0.200000  0.000000      6.000000
 -0.400000  0.200000  0.000000      6.000000
 
 Following cartesian coordinates:
            Coordinates               Weight
  0.000000  0.000000  0.000000      1.000000
  0.028953 -0.016716  0.000000      6.000000
  0.057906 -0.033432  0.000000      6.000000
  0.057906  0.000000  0.000000      6.000000
 -0.057906  0.066864  0.000000      6.000000
 
 TETIRR: Found     15 inequivalent tetrahedra from      150


--------------------------------------------------------------------------------------------------------




 Dimension of arrays:
   k-points           NKPTS =      5   k-points in BZ     NKDIM =      5   number of bands    NBANDS=     48
   number of dos      NEDOS =    301   number of ions     NIONS =     10
   non local maximal  LDIM  =      6   non local SUM 2l+1 LMDIM =     18
   total plane-waves  NPLWV = 524880
   max r-space proj   IRMAX =   7543   max aug-charges    IRDMAX=  31706
   dimension x,y,z NGX =    54 NGY =   54 NGZ =  180
   dimension x,y,z NGXF=   108 NGYF=  108 NGZF=  360
   support grid    NGXF=   108 NGYF=  108 NGZF=  360
   ions per type =               2   2   6
   NGX,Y,Z   is equivalent  to a cutoff of  13.00, 13.00, 12.76 a.u.
   NGXF,Y,Z  is equivalent  to a cutoff of  25.99, 25.99, 25.53 a.u.

 SYSTEM =  unknown system                          
 POSCAR =  Ni2 Ge2 Te6                             

 Startparameter for this run:
   NWRITE =      2    write-flag & timer
   PREC   = accura    normal or accurate (medium, high low for compatibility)
   ISTART =      0    job   : 0-new  1-cont  2-samecut
   ICHARG =      2    charge: 1-file 2-atom 10-const
   ISPIN  =      2    spin polarized calculation?
   LNONCOLLINEAR =      F non collinear calculations
   LSORBIT =      F    spin-orbit coupling
   INIWAV =      1    electr: 0-lowe 1-rand  2-diag
   LASPH  =      F    aspherical Exc in radial PAW
   METAGGA=      F    non-selfconsistent MetaGGA calc.

 Electronic Relaxation 1
   ENCUT  =  520.0 eV  38.22 Ry    6.18 a.u.  12.84 12.84 43.59*2*pi/ulx,y,z
   ENINI  =  520.0     initial cutoff
   ENAUG  =  544.6 eV  augmentation charge cutoff
   NELM   =    400;   NELMIN=  2; NELMDL=  0     # of ELM steps 
   EDIFF  = 0.1E-03   stopping-criterion for ELM
   LREAL  =      T    real-space projection
   NLSPLINE    = F    spline interpolate recip. space projectors
   LCOMPAT=      F    compatible to vasp.4.4
   GGA_COMPAT  = T    GGA compatible to vasp.4.4-vasp.4.6
   LMAXPAW     = -100 max onsite density
   LMAXMIX     =    2 max onsite mixed and CHGCAR
   VOSKOWN=      0    Vosko Wilk Nusair interpolation
   ROPT   =   -0.00025  -0.00025  -0.00025
 Ionic relaxation
   EDIFFG = 0.1E-02   stopping-criterion for IOM
   NSW    =     99    number of steps for IOM
   NBLOCK =      1;   KBLOCK =     99    inner block; outer block 
   IBRION =      2    ionic relax: 0-MD 1-quasi-New 2-CG
   NFREE  =      1    steps in history (QN), initial steepest desc. (CG)
   ISIF   =      3    stress and relaxation
   IWAVPR =     11    prediction:  0-non 1-charg 2-wave 3-comb
   ISYM   =      2    0-nonsym 1-usesym 2-fastsym
   LCORR  =      T    Harris-Foulkes like correction to forces

   POTIM  = 0.5000    time-step for ionic-motion
   TEIN   =    0.0    initial temperature
   TEBEG  =    0.0;   TEEND  =   0.0 temperature during run
   SMASS  =  -3.00    Nose mass-parameter (am)
   estimated Nose-frequenzy (Omega)   =  0.10E-29 period in steps =****** mass=  -0.109E-26a.u.
   SCALEE = 1.0000    scale energy and forces
   NPACO  =    256;   APACO  = 16.0  distance and # of slots for P.C.
   PSTRESS=    0.0 pullay stress

  Mass of Ions in am
   POMASS =  58.69 72.61127.60
  Ionic Valenz
   ZVAL   =  10.00  4.00  6.00
  Atomic Wigner-Seitz radii
   RWIGS  =  -1.00 -1.00 -1.00
  virtual crystal weights 
   VCA    =   1.00  1.00  1.00
   NELECT =      64.0000    total number of electrons
   NUPDOWN=      -1.0000    fix difference up-down

 DOS related values:
   EMIN   =  10.00;   EMAX   =-10.00  energy-range for DOS
   EFERMI =   0.00
   ISMEAR =    -5;   SIGMA  =   0.05  broadening in eV -4-tet -1-fermi 0-gaus

 Electronic relaxation 2 (details)
   IALGO  =     38    algorithm
   LDIAG  =      T    sub-space diagonalisation (order eigenvalues)
   LSUBROT=      F    optimize rotation matrix (better conditioning)
   TURBO    =      0    0=normal 1=particle mesh
   IRESTART =      0    0=no restart 2=restart with 2 vectors
   NREBOOT  =      0    no. of reboots
   NMIN     =      0    reboot dimension
   EREF     =   0.00    reference energy to select bands
   IMIX   =      4    mixing-type and parameters
     AMIX     =   0.40;   BMIX     =  1.00
     AMIX_MAG =   1.60;   BMIX_MAG =  1.00
     AMIN     =   0.01
     WC   =   100.;   INIMIX=   1;  MIXPRE=   1;  MAXMIX= -45

 Intra band minimization:
   WEIMIN = 0.0010     energy-eigenvalue tresh-hold
   EBREAK =  0.52E-06  absolut break condition
   DEPER  =   0.30     relativ break condition  

   TIME   =   0.40     timestep for ELM

  volume/ion in A,a.u.               =      96.88       653.80
  Fermi-wavevector in a.u.,A,eV,Ry     =   0.661787  1.250596  5.958835  0.437962
  Thomas-Fermi vector in A             =   1.734655

 Write flags
   LWAVE        =      F    write WAVECAR
   LDOWNSAMPLE  =      F    k-point downsampling of WAVECAR
   LCHARG       =      T    write CHGCAR
   LVTOT        =      F    write LOCPOT, total local potential
   LVHAR        =      F    write LOCPOT, Hartree potential only
   LELF         =      F    write electronic localiz. function (ELF)
   LORBIT       =     11    0 simple, 1 ext, 2 COOP (PROOUT), +10 PAW based schemes


 Dipole corrections
   LMONO  =      F    monopole corrections only (constant potential shift)
   LDIPOL =      F    correct potential (dipole corrections)
   IDIPOL =      0    1-x, 2-y, 3-z, 4-all directions 
   EPSILON=  1.0000000 bulk dielectric constant

 Exchange correlation treatment:
   GGA     =    BO    GGA type
   LEXCH   =    42    internal setting for exchange type
   VOSKOWN=      0    Vosko Wilk Nusair interpolation
   LHFCALC =     F    Hartree Fock is set to
   LHFONE  =     F    Hartree Fock one center treatment
   AEXX    =    0.0000 exact exchange contribution

 vdW DFT:
   LUSE_VDW   =     T    switch on vdW DFT
   Zab_VDW    =-.8491    correlation parameter
   PARAM1     =0.1833
   PARAM2     =0.2200
   PARAM3     =0.0000
   -- rVV10 --
   BPARAM     = 6.3000
   CPARAM     = 0.0093

 Linear response parameters
   LEPSILON=     F    determine dielectric tensor
   LRPA    =     F    only Hartree local field effects (RPA)
   LNABLA  =     F    use nabla operator in PAW spheres
   LVEL    =     F    velocity operator in full k-point grid
   LINTERFAST=   F  fast interpolation
   KINTER  =     0    interpolate to denser k-point grid
   CSHIFT  =0.1000    complex shift for real part using Kramers Kronig
   OMEGAMAX=  -1.0    maximum frequency
   DEG_THRESHOLD= 0.2000000E-02 threshold for treating states as degnerate
   RTIME   =   -0.100 relaxation time in fs
  (WPLASMAI=    0.000 imaginary part of plasma frequency in eV, 0.658/RTIME)
   DFIELD  = 0.0000000 0.0000000 0.0000000 field for delta impulse in time

 Orbital magnetization related:
   ORBITALMAG=     F  switch on orbital magnetization
   LCHIMAG   =     F  perturbation theory with respect to B field
   DQ        =  0.001000  dq finite difference perturbation B field
   LLRAUG    =     F  two centre corrections for induced B field



--------------------------------------------------------------------------------------------------------


 conjugate gradient relaxation of ions
 charge density and potential will be updated during run
 spin polarized calculation
 Variant of blocked Davidson
 Davidson routine will perform the subspace rotation
 perform sub-space diagonalisation
    after iterative eigenvector-optimisation
 modified Broyden-mixing scheme, WC =      100.0
 initial mixing is a Kerker type mixing with AMIX =  0.4000 and BMIX =      1.0000
 Hartree-type preconditioning will be used
 using additional bands           16
 real space projection scheme for non local part
 use partial core corrections
 calculate Harris-corrections to forces   (improved forces if not selfconsistent)
 use gradient corrections 
 use of overlap-Matrix (Vanderbilt PP)
 Fermi weights with tetrahedron method with Bloechl corrections


--------------------------------------------------------------------------------------------------------


  energy-cutoff  :      520.00
  volume of cell :      968.84
      direct lattice vectors                 reciprocal lattice vectors
     6.907777000 -0.000000000  0.000000000     0.144764372 -0.083579742  0.000000000
     3.453888000  5.982310000  0.000000000     0.000000000  0.167159509 -0.000000000
     0.000000000  0.000000000 23.444588000    -0.000000000  0.000000000  0.042653767

  length of vectors
     6.907777000  6.907776433 23.444588000     0.167159495  0.167159509  0.042653767



 k-points in units of 2pi/SCALE and weight: Kpoints from vasprun.xml                
   0.00000000  0.00000000  0.00000000       0.040
   0.02895287 -0.01671595  0.00000000       0.240
   0.05790575 -0.03343190  0.00000000       0.240
   0.05790575  0.00000000  0.00000000       0.240
  -0.05790575  0.06686380  0.00000000       0.240

 k-points in reciprocal lattice and weights: Kpoints from vasprun.xml                
   0.00000000  0.00000000  0.00000000       0.040
   0.20000000  0.00000000  0.00000000       0.240
   0.40000000  0.00000000  0.00000000       0.240
   0.40000000  0.20000000  0.00000000       0.240
  -0.40000000  0.20000000  0.00000000       0.240

 position of ions in fractional coordinates (direct lattice) 
   0.33333300  0.33333300  0.49992500
   0.66666700  0.66666700  0.50007500
   0.00000000  0.00000000  0.44821600
   0.00000000  0.00000000  0.55178400
   0.62635700  0.00042000  0.57375200
   0.00042000  0.37322400  0.57375200
   0.37322400  0.62635700  0.57375200
   0.37364300  0.99958000  0.42624800
   0.99958000  0.62677600  0.42624800
   0.62677600  0.37364300  0.42624800

 position of ions in cartesian coordinates  (Angst):
   3.45388488  1.99410134 11.72053566
   6.90778012  3.98820866 11.72405234
   0.00000000  0.00000000 10.50823946
   0.00000000  0.00000000 12.93634854
   4.32818511  0.00251257 13.45137925
   1.29197516  2.23274167 13.45137925
   4.74151509  3.74706174 13.45137925
   6.03347989  5.97979743  9.99320875
   9.06968984  3.74956833  9.99320875
   5.62014991  2.23524826  9.99320875



--------------------------------------------------------------------------------------------------------


 k-point  1 :   0.0000 0.0000 0.0000  plane waves:   26073
 k-point  2 :   0.2000 0.0000 0.0000  plane waves:   26070
 k-point  3 :   0.4000 0.0000 0.0000  plane waves:   26086
 k-point  4 :   0.4000 0.2000 0.0000  plane waves:   26085
 k-point  5 :  -0.4000 0.2000 0.0000  plane waves:   26115

 maximum and minimum number of plane-waves per node :     26115    26070

 maximum number of plane-waves:     26115
 maximum index in each direction: 
   IXMAX=   13   IYMAX=   12   IZMAX=   43
   IXMIN=  -13   IYMIN=  -13   IZMIN=  -43


 serial   3D FFT for wavefunctions
 parallel 3D FFT for charge:
    minimum data exchange during FFTs selected (reduces bandwidth)


 total amount of memory used by VASP MPI-rank0   115025. kBytes
=======================================================================

   base      :      30000. kBytes
   nonlr-proj:       8479. kBytes
   fftplans  :       8558. kBytes
   grid      :      59268. kBytes
   one-center:        311. kBytes
   wavefun   :       8409. kBytes

     INWAV:  cpu time    0.0000: real time    0.0066
 Broyden mixing: mesh for mixing (old mesh)
   NGX = 25   NGY = 25   NGZ = 87
  (NGX  =108   NGY  =108   NGZ  =360)
  gives a total of  54375 points

 initial charge density was supplied:
 charge density of overlapping atoms calculated
 number of electron      64.0000000 magnetization       7.3200000
 keeping initial charge density in first step


--------------------------------------------------------------------------------------------------------


 Maximum index for non-local projection operator         7247
 Maximum index for augmentation-charges         1805 (set IRDMAX)


--------------------------------------------------------------------------------------------------------


 First call to EWALD:  gamma=   0.179
 Maximum number of real-space cells 4x 4x 1
 Maximum number of reciprocal cells 2x 2x 6

    FEWALD:  cpu time    0.0040: real time    0.0014


--------------------------------------- Iteration      1(   1)  ---------------------------------------


vdW kernel read from vdw_kernel.bindat
  0.0000  0.2424  0.5071  0.7962  1.1119  1.4567  1.8333  2.2446  2.6937  3.1842
  3.7199  4.3049  4.9438  5.6415  6.4036  7.2358  8.1446  9.1372 10.2212 11.4050
 12.6979 14.1099 15.6519 17.3360 19.1751 21.1837 23.3773 25.7729 28.3892 31.2465
 34.3669 37.7748 41.4965 45.5611 50.0000

    POTLOK:  cpu time   38.6800: real time   59.4985
    SETDIJ:  cpu time    0.0720: real time    0.0687
     EDDAV:  cpu time   21.0400: real time   32.0347
 BZINTS: Fermi energy:  5.213347; 63.986254 electrons
         Band energy:  -6.236672;  BLOECHL correction: -0.053559
       DOS:  cpu time    0.0080: real time    0.0200
    --------------------------------------------
      LOOP:  cpu time   59.8000: real time   91.6220

 eigenvalue-minimisations  :   960
 total energy-change (2. order) : 0.3775769E+03  (-0.1977123E+04)
 number of electron      64.0000000 magnetization       7.3200000
 augmentation part       64.0000000 magnetization       7.3200000

 Free energy of the ion-electron system (eV)
  ---------------------------------------------------
  alpha Z        PSCENC =        21.34835156
  Ewald energy   TEWEN  =      8065.03639907
  -Hartree energ DENC   =    -11433.05750364
  -exchange      EXHF   =         0.00000000
  -V(xc)+E(xc)   XCENC  =      -129.46728229
  PAW double counting   =      2452.34597429    -2314.73340510
  entropy T*S    EENTRO =         0.00000000
  eigenvalues    EBANDS =        -6.23667204
  atomic energy  EATOM  =      3722.34104111
  Solvation  Ediel_sol  =         0.00000000
  ---------------------------------------------------
  free energy    TOTEN  =       377.57690295 eV

  energy without entropy =      377.57690295  energy(sigma->0) =      377.57690295


--------------------------------------------------------------------------------------------------------




--------------------------------------- Iteration      1(   2)  ---------------------------------------


     EDDAV:  cpu time   24.9680: real time   39.3782
 BZINTS: Fermi energy: -1.307500; 64.000000 electrons
         Band energy:-379.012306;  BLOECHL correction:  0.000000
       DOS:  cpu time    0.0080: real time    0.0093
    --------------------------------------------
      LOOP:  cpu time   24.9760: real time   39.3875

 eigenvalue-minimisations  :  1320
 total energy-change (2. order) :-0.3727756E+03  (-0.3608768E+03)
 number of electron      64.0000000 magnetization       7.3200000
 augmentation part       64.0000000 magnetization       7.3200000

 Free energy of the ion-electron system (eV)
  ---------------------------------------------------
  alpha Z        PSCENC =        21.34835156
  Ewald energy   TEWEN  =      8065.03639907
  -Hartree energ DENC   =    -11433.05750364
  -exchange      EXHF   =         0.00000000
  -V(xc)+E(xc)   XCENC  =      -129.46728229
  PAW double counting   =      2452.34597429    -2314.73340510
  entropy T*S    EENTRO =         0.00000000
  eigenvalues    EBANDS =      -379.01230617
  atomic energy  EATOM  =      3722.34104111
  Solvation  Ediel_sol  =         0.00000000
  ---------------------------------------------------
  free energy    TOTEN  =         4.80126883 eV

  energy without entropy =        4.80126883  energy(sigma->0) =        4.80126883


--------------------------------------------------------------------------------------------------------




--------------------------------------- Iteration      1(   3)  ---------------------------------------


     EDDAV:  cpu time   26.7960: real time   40.7565
 BZINTS: Fermi energy: -1.984233; 64.000000 electrons
         Band energy:-415.581630;  BLOECHL correction: -0.015542
       DOS:  cpu time    0.0080: real time    0.0193
    --------------------------------------------
      LOOP:  cpu time   26.8040: real time   40.7758

 eigenvalue-minimisations  :  1368
 total energy-change (2. order) :-0.3656932E+02  (-0.3618914E+02)
 number of electron      64.0000000 magnetization       7.3200000
 augmentation part       64.0000000 magnetization       7.3200000

 Free energy of the ion-electron system (eV)
  ---------------------------------------------------
  alpha Z        PSCENC =        21.34835156
  Ewald energy   TEWEN  =      8065.03639907
  -Hartree energ DENC   =    -11433.05750364
  -exchange      EXHF   =         0.00000000
  -V(xc)+E(xc)   XCENC  =      -129.46728229
  PAW double counting   =      2452.34597429    -2314.73340510
  entropy T*S    EENTRO =         0.00000000
  eigenvalues    EBANDS =      -415.58162981
  atomic energy  EATOM  =      3722.34104111
  Solvation  Ediel_sol  =         0.00000000
  ---------------------------------------------------
  free energy    TOTEN  =       -31.76805481 eV

  energy without entropy =      -31.76805481  energy(sigma->0) =      -31.76805481


--------------------------------------------------------------------------------------------------------




--------------------------------------- Iteration      1(   4)  ---------------------------------------


     EDDAV:  cpu time   27.2000: real time   41.1747
 BZINTS: Fermi energy: -1.989644; 64.000000 electrons
         Band energy:-416.672538;  BLOECHL correction: -0.015938
       DOS:  cpu time    0.0120: real time    0.0128
    --------------------------------------------
      LOOP:  cpu time   27.2120: real time   41.1875

 eigenvalue-minimisations  :  1416
 total energy-change (2. order) :-0.1090908E+01  (-0.1090261E+01)
 number of electron      64.0000000 magnetization       7.3200000
 augmentation part       64.0000000 magnetization       7.3200000

 Free energy of the ion-electron system (eV)
  ---------------------------------------------------
  alpha Z        PSCENC =        21.34835156
  Ewald energy   TEWEN  =      8065.03639907
  -Hartree energ DENC   =    -11433.05750364
  -exchange      EXHF   =         0.00000000
  -V(xc)+E(xc)   XCENC  =      -129.46728229
  PAW double counting   =      2452.34597429    -2314.73340510
  entropy T*S    EENTRO =         0.00000000
  eigenvalues    EBANDS =      -416.67253767
  atomic energy  EATOM  =      3722.34104111
  Solvation  Ediel_sol  =         0.00000000
  ---------------------------------------------------
  free energy    TOTEN  =       -32.85896267 eV

  energy without entropy =      -32.85896267  energy(sigma->0) =      -32.85896267


--------------------------------------------------------------------------------------------------------




--------------------------------------- Iteration      1(   5)  ---------------------------------------


     EDDAV:  cpu time   30.7000: real time   45.1229
 BZINTS: Fermi energy: -1.989730; 64.000000 electrons
         Band energy:-416.683073;  BLOECHL correction: -0.015952
       DOS:  cpu time    0.0040: real time    0.0072
    CHARGE:  cpu time    1.6960: real time    2.5479
    MIXING:  cpu time    0.0520: real time    0.0686
    --------------------------------------------
      LOOP:  cpu time   32.4520: real time   47.7465

 eigenvalue-minimisations  :  1584
 total energy-change (2. order) :-0.1053541E-01  (-0.1053116E-01)
 number of electron      63.9999997 magnetization       6.7495963
 augmentation part        2.0479971 magnetization       5.9066998

 Broyden mixing:
  rms(total) = 0.16029E+01    rms(broyden)= 0.16019E+01
  rms(prec ) = 0.17095E+01
  weight for this iteration     100.00

 Free energy of the ion-electron system (eV)
  ---------------------------------------------------
  alpha Z        PSCENC =        21.34835156
  Ewald energy   TEWEN  =      8065.03639907
  -Hartree energ DENC   =    -11433.05750364
  -exchange      EXHF   =         0.00000000
  -V(xc)+E(xc)   XCENC  =      -129.46728229
  PAW double counting   =      2452.34597429    -2314.73340510
  entropy T*S    EENTRO =         0.00000000
  eigenvalues    EBANDS =      -416.68307308
  atomic energy  EATOM  =      3722.34104111
  Solvation  Ediel_sol  =         0.00000000
  ---------------------------------------------------
  free energy    TOTEN  =       -32.86949808 eV

  energy without entropy =      -32.86949808  energy(sigma->0) =      -32.86949808


--------------------------------------------------------------------------------------------------------




--------------------------------------- Iteration      1(   6)  ---------------------------------------


    POTLOK:  cpu time   39.8840: real time   59.6812
    SETDIJ:  cpu time    0.0360: real time    0.0715
     EDDAV:  cpu time   23.8920: real time   35.4851
 BZINTS: Fermi energy: -3.015519; 64.000000 electrons
         Band energy:-531.172133;  BLOECHL correction: -0.064959
       DOS:  cpu time    0.0040: real time    0.0054
    CHARGE:  cpu time    1.5160: real time    2.4146
    MIXING:  cpu time    0.0320: real time    0.0692
    --------------------------------------------
      LOOP:  cpu time   65.3640: real time   97.7269

 eigenvalue-minimisations  :  1128
 total energy-change (2. order) :-0.1231787E+02  (-0.1383780E+02)
 number of electron      63.9999998 magnetization       6.5402321
 augmentation part        7.0501367 magnetization       4.9910746

 Broyden mixing:
  rms(total) = 0.25114E+01    rms(broyden)= 0.25111E+01
  rms(prec ) = 0.27130E+01
  weight for this iteration     100.00

 eigenvalues of (default mixing * dielectric matrix)
  average eigenvalue GAMMA=   0.3523
  0.3523

 Free energy of the ion-electron system (eV)
  ---------------------------------------------------
  alpha Z        PSCENC =        21.34835156
  Ewald energy   TEWEN  =      8065.03639907
  -Hartree energ DENC   =    -11343.26164177
  -exchange      EXHF   =         0.00000000
  -V(xc)+E(xc)   XCENC  =      -132.50116815
  PAW double counting   =      2342.07302175    -2189.05123892
  entropy T*S    EENTRO =         0.00000000
  eigenvalues    EBANDS =      -531.17213269
  atomic energy  EATOM  =      3722.34104111
  Solvation  Ediel_sol  =         0.00000000
  ---------------------------------------------------
  free energy    TOTEN  =       -45.18736804 eV

  energy without entropy =      -45.18736804  energy(sigma->0) =      -45.18736804


--------------------------------------------------------------------------------------------------------




--------------------------------------- Iteration      1(   7)  ---------------------------------------


    POTLOK:  cpu time   39.8480: real time   59.8064
    SETDIJ:  cpu time    0.0760: real time    0.0751
     EDDAV:  cpu time   22.3800: real time   33.6703
 BZINTS: Fermi energy: -2.611331; 64.000000 electrons
         Band energy:-442.552693;  BLOECHL correction: -0.025458
       DOS:  cpu time    0.0040: real time    0.0090
    CHARGE:  cpu time    1.5000: real time    2.5480
    MIXING:  cpu time    0.0240: real time    0.0564
    --------------------------------------------
      LOOP:  cpu time   63.8320: real time   96.1653

 eigenvalue-minimisations  :  1080
 total energy-change (2. order) : 0.1400980E+02  (-0.2554797E+01)
 number of electron      63.9999998 magnetization       6.0820178
 augmentation part        4.9323352 magnetization       4.5468355

 Broyden mixing:
  rms(total) = 0.68532E+00    rms(broyden)= 0.68522E+00
  rms(prec ) = 0.75248E+00
  weight for this iteration     100.00

 eigenvalues of (default mixing * dielectric matrix)
  average eigenvalue GAMMA=   0.6253
  0.7096  0.5410

 Free energy of the ion-electron system (eV)
  ---------------------------------------------------
  alpha Z        PSCENC =        21.34835156
  Ewald energy   TEWEN  =      8065.03639907
  -Hartree energ DENC   =    -11404.93943357
  -exchange      EXHF   =         0.00000000
  -V(xc)+E(xc)   XCENC  =      -130.54792318
  PAW double counting   =      2453.19635357    -2315.05966690
  entropy T*S    EENTRO =         0.00000000
  eigenvalues    EBANDS =      -442.55269299
  atomic energy  EATOM  =      3722.34104111
  Solvation  Ediel_sol  =         0.00000000
  ---------------------------------------------------
  free energy    TOTEN  =       -31.17757132 eV

  energy without entropy =      -31.17757132  energy(sigma->0) =      -31.17757132


--------------------------------------------------------------------------------------------------------




--------------------------------------- Iteration      1(   8)  ---------------------------------------


    POTLOK:  cpu time   38.2320: real time   59.0600
    SETDIJ:  cpu time    0.0320: real time    0.1000
     EDDAV:  cpu time   28.1280: real time   40.8331
 BZINTS: Fermi energy: -2.047946; 64.000000 electrons
         Band energy:-414.339512;  BLOECHL correction: -0.011375
       DOS:  cpu time    0.0080: real time    0.0226
    CHARGE:  cpu time    1.7600: real time    2.4299
    MIXING:  cpu time    0.0200: real time    0.0572
    --------------------------------------------
      LOOP:  cpu time   68.1800: real time  102.5027

 eigenvalue-minimisations  :  1392
 total energy-change (2. order) :-0.2023879E+00  (-0.7504354E+00)
 number of electron      63.9999997 magnetization       5.5275434
 augmentation part        2.9674199 magnetization       4.3845126

 Broyden mixing:
  rms(total) = 0.85095E+00    rms(broyden)= 0.85050E+00
  rms(prec ) = 0.91292E+00
  weight for this iteration     100.00

 eigenvalues of (default mixing * dielectric matrix)
  average eigenvalue GAMMA=   0.7277
  1.1435  0.5198  0.5198

 Free energy of the ion-electron system (eV)
  ---------------------------------------------------
  alpha Z        PSCENC =        21.34835156
  Ewald energy   TEWEN  =      8065.03639907
  -Hartree energ DENC   =    -11430.87882064
  -exchange      EXHF   =         0.00000000
  -V(xc)+E(xc)   XCENC  =      -129.79624350
  PAW double counting   =      2516.29666820    -2381.38784312
  entropy T*S    EENTRO =         0.00000000
  eigenvalues    EBANDS =      -414.33951188
  atomic energy  EATOM  =      3722.34104111
  Solvation  Ediel_sol  =         0.00000000
  ---------------------------------------------------
  free energy    TOTEN  =       -31.37995920 eV

  energy without entropy =      -31.37995920  energy(sigma->0) =      -31.37995920


--------------------------------------------------------------------------------------------------------




--------------------------------------- Iteration      1(   9)  ---------------------------------------


    POTLOK:  cpu time   39.6160: real time   59.8715
    SETDIJ:  cpu time    0.0320: real time    0.0617
     EDDAV:  cpu time   20.2840: real time   30.9820
 BZINTS: Fermi energy: -2.545023; 64.000000 electrons
         Band energy:-435.426946;  BLOECHL correction: -0.020631
       DOS:  cpu time    0.0040: real time    0.0052
    CHARGE:  cpu time    1.3960: real time    2.4025
    MIXING:  cpu time    0.0240: real time    0.0542
    --------------------------------------------
      LOOP:  cpu time   61.3560: real time   93.3771

 eigenvalue-minimisations  :   984
 total energy-change (2. order) : 0.5374388E-01  (-0.5569498E+00)
 number of electron      63.9999998 magnetization       4.6858041
 augmentation part        4.7399611 magnetization       3.2805967

 Broyden mixing:
  rms(total) = 0.57013E+00    rms(broyden)= 0.56983E+00
  rms(prec ) = 0.61903E+00
  weight for this iteration     100.00

 eigenvalues of (default mixing * dielectric matrix)
  average eigenvalue GAMMA=   1.0025
  2.2047  0.8794  0.4629  0.4629

 Free energy of the ion-electron system (eV)
  ---------------------------------------------------
  alpha Z        PSCENC =        21.34835156
  Ewald energy   TEWEN  =      8065.03639907
  -Hartree energ DENC   =    -11410.67678362
  -exchange      EXHF   =         0.00000000
  -V(xc)+E(xc)   XCENC  =      -130.34871020
  PAW double counting   =      2496.80747294    -2360.40703984
  entropy T*S    EENTRO =         0.00000000
  eigenvalues    EBANDS =      -435.42694635
  atomic energy  EATOM  =      3722.34104111
  Solvation  Ediel_sol  =         0.00000000
  ---------------------------------------------------
  free energy    TOTEN  =       -31.32621533 eV

  energy without entropy =      -31.32621533  energy(sigma->0) =      -31.32621533


--------------------------------------------------------------------------------------------------------




--------------------------------------- Iteration      1(  10)  ---------------------------------------


    POTLOK:  cpu time   39.3240: real time   59.7341
    SETDIJ:  cpu time    0.0280: real time    0.0727
     EDDAV:  cpu time   26.0200: real time   38.6903
 BZINTS: Fermi energy: -2.304030; 64.000000 electrons
         Band energy:-421.656887;  BLOECHL correction: -0.010486
       DOS:  cpu time    0.0040: real time    0.0044
    CHARGE:  cpu time    1.5360: real time    2.4781
    MIXING:  cpu time    0.0240: real time    0.0532
    --------------------------------------------
      LOOP:  cpu time   66.9360: real time  101.0328

 eigenvalue-minimisations  :  1296
 total energy-change (2. order) : 0.2087829E+00  (-0.9551612E-01)
 number of electron      63.9999997 magnetization       3.7786178
 augmentation part        4.0171689 magnetization       2.5458828

 Broyden mixing:
  rms(total) = 0.15514E+00    rms(broyden)= 0.15493E+00
  rms(prec ) = 0.15533E+00
  weight for this iteration     100.00

 eigenvalues of (default mixing * dielectric matrix)
  average eigenvalue GAMMA=   1.1463
  2.8360  1.2795  0.4657  0.4657  0.6844

 Free energy of the ion-electron system (eV)
  ---------------------------------------------------
  alpha Z        PSCENC =        21.34835156
  Ewald energy   TEWEN  =      8065.03639907
  -Hartree energ DENC   =    -11423.39553261
  -exchange      EXHF   =         0.00000000
  -V(xc)+E(xc)   XCENC  =      -129.95741400
  PAW double counting   =      2531.65761506    -2396.49100609
  entropy T*S    EENTRO =         0.00000000
  eigenvalues    EBANDS =      -421.65688653
  atomic energy  EATOM  =      3722.34104111
  Solvation  Ediel_sol  =         0.00000000
  ---------------------------------------------------
  free energy    TOTEN  =       -31.11743242 eV

  energy without entropy =      -31.11743242  energy(sigma->0) =      -31.11743242


--------------------------------------------------------------------------------------------------------




--------------------------------------- Iteration      1(  11)  ---------------------------------------


    POTLOK:  cpu time   38.6400: real time   58.8412
    SETDIJ:  cpu time    0.0240: real time    0.0638
     EDDAV:  cpu time   24.4640: real time   37.5393
 BZINTS: Fermi energy: -2.267915; 64.000000 electrons
         Band energy:-419.103074;  BLOECHL correction: -0.011449
       DOS:  cpu time    0.0200: real time    0.0218
    CHARGE:  cpu time    2.2480: real time    2.4551
    MIXING:  cpu time    0.0280: real time    0.0702
    --------------------------------------------
      LOOP:  cpu time   65.4240: real time   98.9915

 eigenvalue-minimisations  :  1248
 total energy-change (2. order) :-0.1512732E+00  (-0.1479951E-01)
 number of electron      63.9999997 magnetization       2.8921022
 augmentation part        3.9928482 magnetization       1.7452619

 Broyden mixing:
  rms(total) = 0.10816E+00    rms(broyden)= 0.10814E+00
  rms(prec ) = 0.10890E+00
  weight for this iteration     100.00

 eigenvalues of (default mixing * dielectric matrix)
  average eigenvalue GAMMA=   1.3880
  3.9564  1.8565  0.9490  0.4652  0.4652  0.6356

 Free energy of the ion-electron system (eV)
  ---------------------------------------------------
  alpha Z        PSCENC =        21.34835156
  Ewald energy   TEWEN  =      8065.03639907
  -Hartree energ DENC   =    -11426.40207516
  -exchange      EXHF   =         0.00000000
  -V(xc)+E(xc)   XCENC  =      -129.88992414
  PAW double counting   =      2533.04985514    -2397.64927964
  entropy T*S    EENTRO =         0.00000000
  eigenvalues    EBANDS =      -419.10307354
  atomic energy  EATOM  =      3722.34104111
  Solvation  Ediel_sol  =         0.00000000
  ---------------------------------------------------
  free energy    TOTEN  =       -31.26870560 eV

  energy without entropy =      -31.26870560  energy(sigma->0) =      -31.26870560


--------------------------------------------------------------------------------------------------------




--------------------------------------- Iteration      1(  12)  ---------------------------------------


    POTLOK:  cpu time   39.1360: real time   58.8613
    SETDIJ:  cpu time    0.0320: real time    0.0678
     EDDAV:  cpu time   20.9080: real time   32.7291
 BZINTS: Fermi energy: -2.197425; 64.000000 electrons
         Band energy:-415.519865;  BLOECHL correction: -0.010765
       DOS:  cpu time    0.0160: real time    0.0342
    CHARGE:  cpu time    1.7160: real time    2.4063
    MIXING:  cpu time    0.0200: real time    0.0602
    --------------------------------------------
      LOOP:  cpu time   61.8280: real time   94.1589

 eigenvalue-minimisations  :  1056
 total energy-change (2. order) :-0.1063914E+00  (-0.5900582E-02)
 number of electron      63.9999997 magnetization       2.2072015
 augmentation part        3.8489490 magnetization       1.1378678

 Broyden mixing:
  rms(total) = 0.12950E+00    rms(broyden)= 0.12947E+00
  rms(prec ) = 0.14030E+00
  weight for this iteration     100.00

 eigenvalues of (default mixing * dielectric matrix)
  average eigenvalue GAMMA=   1.6970
  5.9784  2.3349  1.1797  0.4665  0.4665  0.8066  0.6466

 Free energy of the ion-electron system (eV)
  ---------------------------------------------------
  alpha Z        PSCENC =        21.34835156
  Ewald energy   TEWEN  =      8065.03639907
  -Hartree energ DENC   =    -11430.32376232
  -exchange      EXHF   =         0.00000000
  -V(xc)+E(xc)   XCENC  =      -129.86155217
  PAW double counting   =      2530.05445054    -2394.45015992
  entropy T*S    EENTRO =         0.00000000
  eigenvalues    EBANDS =      -415.51986482
  atomic energy  EATOM  =      3722.34104111
  Solvation  Ediel_sol  =         0.00000000
  ---------------------------------------------------
  free energy    TOTEN  =       -31.37509695 eV

  energy without entropy =      -31.37509695  energy(sigma->0) =      -31.37509695


--------------------------------------------------------------------------------------------------------




--------------------------------------- Iteration      1(  13)  ---------------------------------------


    POTLOK:  cpu time   40.3240: real time   60.1224
    SETDIJ:  cpu time    0.0640: real time    0.0900
     EDDAV:  cpu time   21.0640: real time   31.3815
 BZINTS: Fermi energy: -2.221013; 64.000000 electrons
         Band energy:-416.953398;  BLOECHL correction: -0.014548
       DOS:  cpu time    0.0200: real time    0.0214
    CHARGE:  cpu time    1.5640: real time    2.4684
    MIXING:  cpu time    0.0280: real time    0.0554
    --------------------------------------------
      LOOP:  cpu time   63.0640: real time   94.1392

 eigenvalue-minimisations  :  1008
 total energy-change (2. order) :-0.5705436E-01  (-0.5993013E-02)
 number of electron      63.9999997 magnetization       1.9841846
 augmentation part        4.0327460 magnetization       0.9338106

 Broyden mixing:
  rms(total) = 0.52256E-01    rms(broyden)= 0.52204E-01
  rms(prec ) = 0.52982E-01
  weight for this iteration     100.00

 eigenvalues of (default mixing * dielectric matrix)
  average eigenvalue GAMMA=   1.9069
  8.0160  2.5609  1.5959  0.4665  0.4665  0.8622  0.6827  0.6044

 Free energy of the ion-electron system (eV)
  ---------------------------------------------------
  alpha Z        PSCENC =        21.34835156
  Ewald energy   TEWEN  =      8065.03639907
  -Hartree energ DENC   =    -11429.13193731
  -exchange      EXHF   =         0.00000000
  -V(xc)+E(xc)   XCENC  =      -130.00792178
  PAW double counting   =      2519.46120319    -2383.52588929
  entropy T*S    EENTRO =         0.00000000
  eigenvalues    EBANDS =      -416.95339786
  atomic energy  EATOM  =      3722.34104111
  Solvation  Ediel_sol  =         0.00000000
  ---------------------------------------------------
  free energy    TOTEN  =       -31.43215131 eV

  energy without entropy =      -31.43215131  energy(sigma->0) =      -31.43215131


--------------------------------------------------------------------------------------------------------




--------------------------------------- Iteration      1(  14)  ---------------------------------------


    POTLOK:  cpu time   38.7880: real time   58.7803
    SETDIJ:  cpu time    0.0680: real time    0.0743
     EDDAV:  cpu time   19.8880: real time   30.3827
 BZINTS: Fermi energy: -2.188263; 64.000000 electrons
         Band energy:-415.680729;  BLOECHL correction: -0.016851
       DOS:  cpu time    0.0040: real time    0.0054
    CHARGE:  cpu time    1.4920: real time    2.4748
    MIXING:  cpu time    0.0280: real time    0.0570
    --------------------------------------------
      LOOP:  cpu time   60.2680: real time   91.7744

 eigenvalue-minimisations  :   960
 total energy-change (2. order) :-0.8060466E-02  (-0.1154991E-02)
 number of electron      63.9999997 magnetization       1.8471054
 augmentation part        3.9722727 magnetization       0.8220231

 Broyden mixing:
  rms(total) = 0.33595E-01    rms(broyden)= 0.33590E-01
  rms(prec ) = 0.36523E-01
  weight for this iteration     100.00

 eigenvalues of (default mixing * dielectric matrix)
  average eigenvalue GAMMA=   2.0177
  9.5729  2.5655  1.8725  0.4665  0.4665  0.9433  0.9433  0.7150  0.6137

 Free energy of the ion-electron system (eV)
  ---------------------------------------------------
  alpha Z        PSCENC =        21.34835156
  Ewald energy   TEWEN  =      8065.03639907
  -Hartree energ DENC   =    -11430.18056171
  -exchange      EXHF   =         0.00000000
  -V(xc)+E(xc)   XCENC  =      -130.03204536
  PAW double counting   =      2521.22107377    -2385.49374141
  entropy T*S    EENTRO =         0.00000000
  eigenvalues    EBANDS =      -415.68072880
  atomic energy  EATOM  =      3722.34104111
  Solvation  Ediel_sol  =         0.00000000
  ---------------------------------------------------
  free energy    TOTEN  =       -31.44021178 eV

  energy without entropy =      -31.44021178  energy(sigma->0) =      -31.44021178


--------------------------------------------------------------------------------------------------------




--------------------------------------- Iteration      1(  15)  ---------------------------------------


    POTLOK:  cpu time   38.6200: real time   59.4130
    SETDIJ:  cpu time    0.0360: real time    0.0755
     EDDAV:  cpu time   20.3320: real time   30.8093
 BZINTS: Fermi energy: -2.199276; 64.000000 electrons
         Band energy:-416.258828;  BLOECHL correction: -0.019481
       DOS:  cpu time    0.0240: real time    0.0237
    CHARGE:  cpu time    1.8080: real time    2.5126
    MIXING:  cpu time    0.0320: real time    0.0745
    --------------------------------------------
      LOOP:  cpu time   60.8560: real time   92.9087

 eigenvalue-minimisations  :   960
 total energy-change (2. order) :-0.8382694E-03  (-0.7444447E-03)
 number of electron      63.9999997 magnetization       1.8116371
 augmentation part        4.0333891 magnetization       0.7966229

 Broyden mixing:
  rms(total) = 0.20699E-01    rms(broyden)= 0.20666E-01
  rms(prec ) = 0.22076E-01
  weight for this iteration     100.00

 eigenvalues of (default mixing * dielectric matrix)
  average eigenvalue GAMMA=   1.9778
  9.9705  2.4767  2.2955  1.0515  1.0515  0.4665  0.4665  0.7738  0.6531  0.5726

 Free energy of the ion-electron system (eV)
  ---------------------------------------------------
  alpha Z        PSCENC =        21.34835156
  Ewald energy   TEWEN  =      8065.03639907
  -Hartree energ DENC   =    -11429.52273773
  -exchange      EXHF   =         0.00000000
  -V(xc)+E(xc)   XCENC  =      -130.07470892
  PAW double counting   =      2521.21336840    -2385.52393517
  entropy T*S    EENTRO =         0.00000000
  eigenvalues    EBANDS =      -416.25882837
  atomic energy  EATOM  =      3722.34104111
  Solvation  Ediel_sol  =         0.00000000
  ---------------------------------------------------
  free energy    TOTEN  =       -31.44105004 eV

  energy without entropy =      -31.44105004  energy(sigma->0) =      -31.44105004


--------------------------------------------------------------------------------------------------------




--------------------------------------- Iteration      1(  16)  ---------------------------------------


    POTLOK:  cpu time   38.9560: real time   58.6303
    SETDIJ:  cpu time    0.0680: real time    0.0742
     EDDAV:  cpu time   23.0880: real time   34.7758
 BZINTS: Fermi energy: -2.190398; 64.000000 electrons
         Band energy:-415.939663;  BLOECHL correction: -0.020206
       DOS:  cpu time    0.0320: real time    0.0358
    CHARGE:  cpu time    2.3520: real time    2.4958
    MIXING:  cpu time    0.0240: real time    0.0596
    --------------------------------------------
      LOOP:  cpu time   64.5160: real time   96.0716

 eigenvalue-minimisations  :  1128
 total energy-change (2. order) :-0.1461072E-03  (-0.1208210E-03)
 number of electron      63.9999997 magnetization       1.7706178
 augmentation part        4.0189188 magnetization       0.7651423

 Broyden mixing:
  rms(total) = 0.87245E-02    rms(broyden)= 0.87180E-02
  rms(prec ) = 0.97001E-02
  weight for this iteration     100.00

 eigenvalues of (default mixing * dielectric matrix)
  average eigenvalue GAMMA=   1.9771
 10.1987  2.5712  2.5712  1.3662  1.1906  0.4665  0.4665  0.8279  0.8279  0.6616
  0.6001

 Free energy of the ion-electron system (eV)
  ---------------------------------------------------
  alpha Z        PSCENC =        21.34835156
  Ewald energy   TEWEN  =      8065.03639907
  -Hartree energ DENC   =    -11429.79066764
  -exchange      EXHF   =         0.00000000
  -V(xc)+E(xc)   XCENC  =      -130.07988885
  PAW double counting   =      2522.28832803    -2386.64509619
  entropy T*S    EENTRO =         0.00000000
  eigenvalues    EBANDS =      -415.93966323
  atomic energy  EATOM  =      3722.34104111
  Solvation  Ediel_sol  =         0.00000000
  ---------------------------------------------------
  free energy    TOTEN  =       -31.44119615 eV

  energy without entropy =      -31.44119615  energy(sigma->0) =      -31.44119615


--------------------------------------------------------------------------------------------------------




--------------------------------------- Iteration      1(  17)  ---------------------------------------


    POTLOK:  cpu time   38.9080: real time   59.7557
    SETDIJ:  cpu time    0.0240: real time    0.0537
     EDDAV:  cpu time   21.1080: real time   32.2197
 BZINTS: Fermi energy: -2.184270; 64.000000 electrons
         Band energy:-415.657525;  BLOECHL correction: -0.020995
       DOS:  cpu time    0.0160: real time    0.0478
    CHARGE:  cpu time    1.8040: real time    2.4624
    MIXING:  cpu time    0.0920: real time    0.0908
    --------------------------------------------
      LOOP:  cpu time   61.9520: real time   94.6302

 eigenvalue-minimisations  :  1032
 total energy-change (2. order) :-0.8469699E-03  (-0.7026671E-04)
 number of electron      63.9999997 magnetization       1.7632465
 augmentation part        4.0138787 magnetization       0.7654730

 Broyden mixing:
  rms(total) = 0.24375E-02    rms(broyden)= 0.24216E-02
  rms(prec ) = 0.41918E-02
  weight for this iteration     100.00

 eigenvalues of (default mixing * dielectric matrix)
  average eigenvalue GAMMA=   1.9859
 10.3456  2.8886  2.8886  1.8841  0.4665  0.4665  1.0678  1.0223  0.8531  0.6989
  0.6558  0.5935

 Free energy of the ion-electron system (eV)
  ---------------------------------------------------
  alpha Z        PSCENC =        21.34835156
  Ewald energy   TEWEN  =      8065.03639907
  -Hartree energ DENC   =    -11430.05306968
  -exchange      EXHF   =         0.00000000
  -V(xc)+E(xc)   XCENC  =      -130.08851705
  PAW double counting   =      2523.37052619    -2387.73924938
  entropy T*S    EENTRO =         0.00000000
  eigenvalues    EBANDS =      -415.65752494
  atomic energy  EATOM  =      3722.34104111
  Solvation  Ediel_sol  =         0.00000000
  ---------------------------------------------------
  free energy    TOTEN  =       -31.44204312 eV

  energy without entropy =      -31.44204312  energy(sigma->0) =      -31.44204312


--------------------------------------------------------------------------------------------------------




--------------------------------------- Iteration      1(  18)  ---------------------------------------


    POTLOK:  cpu time   39.8640: real time   59.7435
    SETDIJ:  cpu time    0.0880: real time    0.0938
     EDDAV:  cpu time   18.9200: real time   27.7473
 BZINTS: Fermi energy: -2.182038; 64.000000 electrons
         Band energy:-415.530305;  BLOECHL correction: -0.021217
       DOS:  cpu time    0.0040: real time    0.0208
    CHARGE:  cpu time    1.4600: real time    2.3911
    MIXING:  cpu time    0.0360: real time    0.0810
    --------------------------------------------
      LOOP:  cpu time   60.3720: real time   90.0774

 eigenvalue-minimisations  :   816
 total energy-change (2. order) :-0.9595519E-03  (-0.1977293E-04)
 number of electron      63.9999997 magnetization       1.7602183
 augmentation part        4.0151070 magnetization       0.7644348

 Broyden mixing:
  rms(total) = 0.27587E-02    rms(broyden)= 0.27556E-02
  rms(prec ) = 0.43763E-02
  weight for this iteration     100.00

 eigenvalues of (default mixing * dielectric matrix)
  average eigenvalue GAMMA=   1.9385
 10.3906  3.3510  2.7481  1.9800  1.1155  1.1155  0.4665  0.4665  0.8693  0.7575
  0.5998  0.6747  0.6655

 Free energy of the ion-electron system (eV)
  ---------------------------------------------------
  alpha Z        PSCENC =        21.34835156
  Ewald energy   TEWEN  =      8065.03639907
  -Hartree energ DENC   =    -11430.18923375
  -exchange      EXHF   =         0.00000000
  -V(xc)+E(xc)   XCENC  =      -130.09130910
  PAW double counting   =      2523.52088036    -2387.87882679
  entropy T*S    EENTRO =         0.00000000
  eigenvalues    EBANDS =      -415.53030513
  atomic energy  EATOM  =      3722.34104111
  Solvation  Ediel_sol  =         0.00000000
  ---------------------------------------------------
  free energy    TOTEN  =       -31.44300267 eV

  energy without entropy =      -31.44300267  energy(sigma->0) =      -31.44300267


--------------------------------------------------------------------------------------------------------




--------------------------------------- Iteration      1(  19)  ---------------------------------------


    POTLOK:  cpu time   39.4000: real time   59.5032
    SETDIJ:  cpu time    0.0280: real time    0.0507
     EDDAV:  cpu time   19.5760: real time   30.5643
 BZINTS: Fermi energy: -2.178069; 64.000000 electrons
         Band energy:-415.300452;  BLOECHL correction: -0.021293
       DOS:  cpu time    0.0120: real time    0.0266
    CHARGE:  cpu time    1.5520: real time    2.3339
    MIXING:  cpu time    0.0360: real time    0.0713
    --------------------------------------------
      LOOP:  cpu time   60.6040: real time   92.5500

 eigenvalue-minimisations  :   936
 total energy-change (2. order) :-0.3686350E-03  (-0.2338974E-04)
 number of electron      63.9999997 magnetization       1.7530311
 augmentation part        4.0124347 magnetization       0.7585122

 Broyden mixing:
  rms(total) = 0.91676E-03    rms(broyden)= 0.91556E-03
  rms(prec ) = 0.31196E-02
  weight for this iteration     100.00

 eigenvalues of (default mixing * dielectric matrix)
  average eigenvalue GAMMA=   1.9233
 10.4237  3.6981  2.6618  2.0610  1.4144  1.1092  1.1092  0.4665  0.4665  0.8092
  0.8092  0.5975  0.6497  0.6497

 Free energy of the ion-electron system (eV)
  ---------------------------------------------------
  alpha Z        PSCENC =        21.34835156
  Ewald energy   TEWEN  =      8065.03639907
  -Hartree energ DENC   =    -11430.42198693
  -exchange      EXHF   =         0.00000000
  -V(xc)+E(xc)   XCENC  =      -130.09140630
  PAW double counting   =      2523.51512783    -2387.87044517
  entropy T*S    EENTRO =         0.00000000
  eigenvalues    EBANDS =      -415.30045249
  atomic energy  EATOM  =      3722.34104111
  Solvation  Ediel_sol  =         0.00000000
  ---------------------------------------------------
  free energy    TOTEN  =       -31.44337131 eV

  energy without entropy =      -31.44337131  energy(sigma->0) =      -31.44337131


--------------------------------------------------------------------------------------------------------




--------------------------------------- Iteration      1(  20)  ---------------------------------------


    POTLOK:  cpu time   37.5640: real time   58.6335
    SETDIJ:  cpu time    0.0600: real time    0.0586
     EDDAV:  cpu time   19.6520: real time   30.1249
 BZINTS: Fermi energy: -2.170654; 64.000000 electrons
         Band energy:-414.836572;  BLOECHL correction: -0.021390
       DOS:  cpu time    0.0120: real time    0.0350
    CHARGE:  cpu time    1.8640: real time    2.3880
    MIXING:  cpu time    0.0440: real time    0.0912
    --------------------------------------------
      LOOP:  cpu time   59.1960: real time   91.3312

 eigenvalue-minimisations  :   936
 total energy-change (2. order) :-0.1616337E-03  (-0.2366370E-04)
 number of electron      63.9999997 magnetization       1.7527094
 augmentation part        4.0110876 magnetization       0.7593816

 Broyden mixing:
  rms(total) = 0.17554E-02    rms(broyden)= 0.17551E-02
  rms(prec ) = 0.31013E-02
  weight for this iteration     100.00

 eigenvalues of (default mixing * dielectric matrix)
  average eigenvalue GAMMA=   1.8926
 10.4178  3.5897  2.7160  2.3288  1.8168  1.1158  1.1158  0.4665  0.4665  0.8678
  0.8678  0.5956  0.7089  0.6807  0.6349

 Free energy of the ion-electron system (eV)
  ---------------------------------------------------
  alpha Z        PSCENC =        21.34835156
  Ewald energy   TEWEN  =      8065.03639907
  -Hartree energ DENC   =    -11430.89145583
  -exchange      EXHF   =         0.00000000
  -V(xc)+E(xc)   XCENC  =      -130.09299223
  PAW double counting   =      2523.38490538    -2387.73320960
  entropy T*S    EENTRO =         0.00000000
  eigenvalues    EBANDS =      -414.83657241
  atomic energy  EATOM  =      3722.34104111
  Solvation  Ediel_sol  =         0.00000000
  ---------------------------------------------------
  free energy    TOTEN  =       -31.44353294 eV

  energy without entropy =      -31.44353294  energy(sigma->0) =      -31.44353294


--------------------------------------------------------------------------------------------------------




--------------------------------------- Iteration      1(  21)  ---------------------------------------


    POTLOK:  cpu time   39.5480: real time   59.5320
    SETDIJ:  cpu time    0.0280: real time    0.0646
     EDDAV:  cpu time   18.9440: real time   28.7865
 BZINTS: Fermi energy: -2.164700; 64.000000 electrons
         Band energy:-414.429050;  BLOECHL correction: -0.021401
       DOS:  cpu time    0.0080: real time    0.0095
    --------------------------------------------
      LOOP:  cpu time   58.5280: real time   88.3927

 eigenvalue-minimisations  :   840
 total energy-change (2. order) :-0.8027663E-04  (-0.1622984E-04)
 number of electron      63.9999997 magnetization       1.7527094
 augmentation part        4.0110876 magnetization       0.7593816

 Free energy of the ion-electron system (eV)
  ---------------------------------------------------
  alpha Z        PSCENC =        21.34835156
  Ewald energy   TEWEN  =      8065.03639907
  -Hartree energ DENC   =    -11431.30724604
  -exchange      EXHF   =         0.00000000
  -V(xc)+E(xc)   XCENC  =      -130.09302551
  PAW double counting   =      2523.12654176    -2387.46662544
  entropy T*S    EENTRO =         0.00000000
  eigenvalues    EBANDS =      -414.42904972
  atomic energy  EATOM  =      3722.34104111
  Solvation  Ediel_sol  =         0.00000000
  ---------------------------------------------------
  free energy    TOTEN  =       -31.44361322 eV

  energy without entropy =      -31.44361322  energy(sigma->0) =      -31.44361322


--------------------------------------------------------------------------------------------------------




 average (electrostatic) potential at core
  the test charge radii are     0.9791  1.1631  1.1897
  (the norm of the test charge is              1.0000)
       1 -49.2332       2 -49.2332       3 -39.2137       4 -39.2137       5 -96.7927
       6 -96.7927       7 -96.7926       8 -96.7927       9 -96.7927      10 -96.7926



 E-fermi :  -2.1647     XC(G=0):  -3.5788     alpha+bet : -2.9150


 spin component 1

 k-point     1 :       0.0000    0.0000    0.0000
  band No.  band energies     occupation 
      1     -14.8688      1.00000
      2     -13.9906      1.00000
      3     -12.9282      1.00000
      4     -12.9281      1.00000
      5     -12.8541      1.00000
      6     -12.8540      1.00000
      7     -11.1426      1.00000
      8      -9.0630      1.00000
      9      -6.8344      1.00000
     10      -6.6321      1.00000
     11      -6.6269      1.00000
     12      -6.6269      1.00000
     13      -6.2157      1.00000
     14      -6.2157      1.00000
     15      -5.5432      1.00000
     16      -4.8854      1.00000
     17      -4.8854      1.00000
     18      -4.6814      1.00000
     19      -4.6814      1.00000
     20      -4.2378      1.00000
     21      -3.9066      1.00000
     22      -3.9065      1.00000
     23      -3.7855      1.00000
     24      -3.7660      1.00000
     25      -3.7287      1.00000
     26      -3.7287      1.00000
     27      -3.6759      1.00000
     28      -3.6759      1.00000
     29      -3.3278      1.00000
     30      -2.4776      1.00000
     31      -2.4776      1.00000
     32      -2.1866      1.00000
     33      -2.1866      1.00000
     34      -1.4556      0.00000
     35      -1.4555      0.00000
     36      -0.8861      0.00000
     37      -0.7158      0.00000
     38       0.8338      0.00000
     39       0.9157      0.00000
     40       0.9158      0.00000
     41       1.4587      0.00000
     42       1.9188      0.00000
     43       2.0977      0.00000
     44       2.1128      0.00000
     45       2.1128      0.00000
     46       2.2992      0.00000
     47       2.9355      0.00000
     48       2.9356      0.00000

 k-point     2 :       0.2000    0.0000    0.0000
  band No.  band energies     occupation 
      1     -14.7498      1.00000
      2     -13.8922      1.00000
      3     -13.1764      1.00000
      4     -13.0356      1.00000
      5     -12.9499      1.00000
      6     -12.9058      1.00000
      7     -10.9566      1.00000
      8      -9.0893      1.00000
      9      -6.9464      1.00000
     10      -6.6539      1.00000
     11      -6.5428      1.00000
     12      -6.2300      1.00000
     13      -5.8341      1.00000
     14      -5.6973      1.00000
     15      -5.3176      1.00000
     16      -4.9729      1.00000
     17      -4.9298      1.00000
     18      -4.8421      1.00000
     19      -4.4919      1.00000
     20      -4.2952      1.00000
     21      -4.1860      1.00000
     22      -4.0913      1.00000
     23      -3.8423      1.00000
     24      -3.8418      1.00000
     25      -3.7690      1.00000
     26      -3.6551      1.00000
     27      -3.6346      1.00000
     28      -3.6119      1.00000
     29      -3.4630      1.00000
     30      -3.1882      1.00000
     31      -2.8312      1.00000
     32      -2.2014      1.00000
     33      -2.1784      0.89083
     34      -2.0212      0.00000
     35      -1.6828      0.00000
     36      -0.3363      0.00000
     37      -0.2756      0.00000
     38       0.8297      0.00000
     39       0.9209      0.00000
     40       1.0926      0.00000
     41       1.5835      0.00000
     42       1.7209      0.00000
     43       2.0229      0.00000
     44       2.1554      0.00000
     45       2.1784      0.00000
     46       2.4566      0.00000
     47       2.7702      0.00000
     48       2.7980      0.00000

 k-point     3 :       0.4000    0.0000    0.0000
  band No.  band energies     occupation 
      1     -14.4422      1.00000
      2     -13.6892      1.00000
      3     -13.6407      1.00000
      4     -13.2011      1.00000
      5     -13.0990      1.00000
      6     -13.0512      1.00000
      7     -10.7013      1.00000
      8      -9.0850      1.00000
      9      -6.8103      1.00000
     10      -6.4941      1.00000
     11      -6.1682      1.00000
     12      -5.6428      1.00000
     13      -5.2839      1.00000
     14      -5.2745      1.00000
     15      -5.1789      1.00000
     16      -5.1467      1.00000
     17      -5.0268      1.00000
     18      -5.0113      1.00000
     19      -4.6275      1.00000
     20      -4.5306      1.00000
     21      -4.4947      1.00000
     22      -4.0884      1.00000
     23      -3.9295      1.00000
     24      -3.8984      1.00000
     25      -3.8653      1.00000
     26      -3.8052      1.00000
     27      -3.6950      1.00000
     28      -3.4744      1.00000
     29      -3.4372      1.00000
     30      -3.3848      1.00000
     31      -3.3221      1.00000
     32      -2.3557      1.00000
     33      -2.2496      1.08012
     34      -2.1118      0.00000
     35      -1.9214      0.00000
     36      -0.8003      0.00000
     37      -0.4982      0.00000
     38       0.7712      0.00000
     39       1.0602      0.00000
     40       1.2474      0.00000
     41       1.5024      0.00000
     42       1.7038      0.00000
     43       1.9005      0.00000
     44       2.1462      0.00000
     45       2.4710      0.00000
     46       2.6958      0.00000
     47       2.8289      0.00000
     48       2.9237      0.00000

 k-point     4 :       0.4000    0.2000    0.0000
  band No.  band energies     occupation 
      1     -14.5308      1.00000
      2     -13.7147      1.00000
      3     -13.4511      1.00000
      4     -13.2996      1.00000
      5     -13.0836      1.00000
      6     -12.9804      1.00000
      7     -10.7270      1.00000
      8      -9.0682      1.00000
      9      -6.9426      1.00000
     10      -6.4641      1.00000
     11      -6.3439      1.00000
     12      -5.8287      1.00000
     13      -5.2736      1.00000
     14      -5.1816      1.00000
[...]
     34      -1.3739      0.00000
     35      -0.9307      0.00000
     36      -0.5592      0.00000
     37      -0.4247      0.00000
     38       0.7754      0.00000
     39       0.9884      0.00000
     40       1.3662      0.00000
     41       1.7027      0.00000
     42       1.9739      0.00000
     43       2.2123      0.00000
     44       2.2220      0.00000
     45       2.5715      0.00000
     46       3.0115      0.00000
     47       3.1186      0.00000
     48       3.3077      0.00000

 k-point     5 :      -0.4000    0.2000    0.0000
  band No.  band energies     occupation 
      1     -13.9503      1.00000
      2     -13.9324      1.00000
      3     -13.4327      1.00000
      4     -13.1053      1.00000
      5     -13.0683      1.00000
      6     -12.8550      1.00000
      7     -10.3120      1.00000
      8      -8.8727      1.00000
      9      -6.7747      1.00000
     10      -6.2661      1.00000
     11      -6.1540      1.00000
     12      -5.7341      1.00000
     13      -5.4624      1.00000
     14      -5.4547      1.00000
     15      -5.2339      1.00000
     16      -4.9327      1.00000
     17      -4.7444      1.00000
     18      -4.6449      1.00000
     19      -4.5921      1.00000
     20      -4.5052      1.00000
     21      -4.4057      1.00000
     22      -4.1144      1.00000
     23      -3.7728      1.00000
     24      -3.6243      1.00000
     25      -3.5708      1.00000
     26      -3.4017      1.00000
     27      -3.3464      1.00000
     28      -3.1757      1.00000
     29      -3.1156      1.00000
     30      -3.0106      1.00000
     31      -2.8680      1.00000
     32      -1.8075      1.00000
     33      -1.7202      0.36899
     34      -1.6603      0.00000
     35      -1.3030      0.00000
     36      -1.0288      0.00000
     37      -0.4570      0.00000
     38       0.4595      0.00000
     39       0.6081      0.00000
     40       1.2688      0.00000
     41       1.3628      0.00000
     42       1.6774      0.00000
     43       2.4711      0.00000
     44       2.7915      0.00000
     45       2.8228      0.00000
     46       2.8989      0.00000
     47       3.1403      0.00000
     48       3.6033      0.00000


--------------------------------------------------------------------------------------------------------


 soft charge-density along one line, spin component           1
         0         1         2         3         4         5         6         7         8         9
 total charge-density along one line

 soft charge-density along one line, spin component           2
         0         1         2         3         4         5         6         7         8         9
 total charge-density along one line

 pseudopotential strength for first ion, spin component:           1
-10.008  -0.048  -0.000   0.000  -0.000   1.160   0.020   0.000
 -0.048 -10.072   0.000  -0.000   0.000   0.020   1.187  -0.000
 -0.000   0.000  -9.987   0.000  -0.000   0.000  -0.000   1.150
  0.000  -0.000   0.000 -10.072   0.048  -0.000   0.000  -0.000
 -0.000   0.000  -0.000   0.048 -10.008   0.000  -0.000  -0.000
  1.160   0.020   0.000  -0.000   0.000   0.832  -0.009  -0.000
  0.020   1.187  -0.000   0.000  -0.000  -0.009   0.821   0.000
  0.000  -0.000   1.150  -0.000  -0.000  -0.000   0.000   0.837
 -0.000   0.000  -0.000   1.187  -0.020   0.000  -0.000   0.000
  0.000  -0.000  -0.000  -0.020   1.160  -0.000   0.000   0.000
  0.000  -0.000   0.002  -0.000   0.000   0.000  -0.000  -0.001
 -0.000   0.000  -0.000   0.000  -0.000   0.000  -0.000   0.000
 -0.000  -0.000   0.000  -0.000   0.000  -0.000   0.000  -0.000
 -0.000  -0.000  -0.000  -0.000  -0.000  -0.000   0.000   0.000
  0.000  -0.000   0.000  -0.000  -0.000   0.001  -0.000  -0.000
  0.000   0.000  -0.000   0.000  -0.001  -0.000  -0.000   0.000
  0.000   0.000  -0.000   0.000   0.000  -0.000  -0.000  -0.000
 -0.001   0.000  -0.000   0.000  -0.000   0.000  -0.000   0.000
 pseudopotential strength for first ion, spin component:           2
-10.008  -0.048  -0.000   0.000  -0.000   1.160   0.020   0.000
 -0.048 -10.072   0.000  -0.000   0.000   0.020   1.187  -0.000
 -0.000   0.000  -9.987   0.000  -0.000   0.000  -0.000   1.150
  0.000  -0.000   0.000 -10.072   0.048  -0.000   0.000  -0.000
 -0.000   0.000  -0.000   0.048 -10.008   0.000  -0.000  -0.000
  1.160   0.020   0.000  -0.000   0.000   0.832  -0.009  -0.000
  0.020   1.187  -0.000   0.000  -0.000  -0.009   0.821   0.000
  0.000  -0.000   1.150  -0.000  -0.000  -0.000   0.000   0.837
 -0.000   0.000  -0.000   1.187  -0.020   0.000  -0.000   0.000
  0.000  -0.000  -0.000  -0.020   1.160  -0.000   0.000   0.000
  0.000  -0.000   0.002  -0.000   0.000   0.000  -0.000  -0.001
 -0.000   0.000  -0.000   0.000  -0.000   0.000  -0.000   0.000
 -0.000  -0.000   0.000  -0.000   0.000  -0.000   0.000  -0.000
 -0.000  -0.000  -0.000  -0.000  -0.000  -0.000   0.000   0.000
  0.000  -0.000   0.000  -0.000  -0.000   0.001  -0.000  -0.000
  0.000   0.000  -0.000   0.000  -0.001  -0.000  -0.000   0.000
  0.000   0.000  -0.000   0.000   0.000  -0.000  -0.000   0.000
 -0.001   0.000  -0.000   0.000  -0.000   0.000  -0.000   0.000
 total augmentation occupancy for first ion, spin component:           1
  1.831  -0.128   0.000   0.000  -0.000   0.046   0.078   0.000  -0.000   0.000  -0.000  -0.000  -0.000  -0.000   0.004   0.000
 -0.128   1.708  -0.000  -0.000   0.000   0.077   0.128   0.000   0.000  -0.000   0.000  -0.000  -0.000   0.000   0.000   0.000
  0.000  -0.000   1.943  -0.000  -0.000   0.000   0.000  -0.020   0.000  -0.000  -0.006  -0.002  -0.000  -0.000   0.000   0.000
  0.000  -0.000  -0.000   1.708   0.128  -0.000  -0.000   0.000   0.128  -0.077   0.000   0.000  -0.000  -0.000  -0.000   0.000
 -0.000   0.000  -0.000   0.128   1.831  -0.000  -0.000  -0.000  -0.078   0.046   0.000   0.000   0.004   0.000   0.000  -0.001
  0.046   0.077   0.000  -0.000  -0.000   0.061   0.032   0.000  -0.000  -0.000   0.000  -0.000  -0.000   0.000   0.028   0.000
  0.078   0.128   0.000  -0.000  -0.000   0.032   0.095   0.000  -0.000  -0.000   0.000  -0.000   0.000   0.000  -0.001   0.000
  0.000   0.000  -0.020   0.000  -0.000   0.000   0.000   0.048   0.000  -0.000   0.016  -0.009  -0.000   0.000   0.000   0.000
 -0.000   0.000   0.000   0.128  -0.078  -0.000  -0.000   0.000   0.095  -0.032  -0.000  -0.000   0.001  -0.000   0.000  -0.000
  0.000  -0.000  -0.000  -0.077   0.046  -0.000  -0.000  -0.000  -0.032   0.061  -0.000   0.000   0.028  -0.000   0.000  -0.003
 -0.000   0.000  -0.006   0.000   0.000   0.000   0.000   0.016  -0.000  -0.000   1.060  -0.286   0.000  -0.000   0.000   0.000
 -0.000   0.000  -0.002   0.000   0.000  -0.000   0.000  -0.009   0.000   0.000  -0.286   0.132   0.000  -0.000   0.000   0.000
 -0.000  -0.000  -0.000  -0.000   0.004  -0.000   0.000  -0.000   0.001   0.028   0.000   0.000   0.197   0.000  -0.000  -0.013
 -0.000   0.000  -0.000  -0.000   0.000   0.000   0.000   0.000  -0.000  -0.000  -0.000  -0.000   0.000   0.204   0.000  -0.000
  0.004   0.000   0.000  -0.000   0.000   0.028  -0.001   0.000   0.000   0.000   0.000   0.000  -0.000   0.000   0.197  -0.000
  0.000   0.000   0.000   0.000  -0.001   0.000   0.000   0.000  -0.000  -0.003   0.000   0.000  -0.013  -0.000  -0.000   0.001
  0.000   0.000   0.000   0.000  -0.000  -0.000  -0.000  -0.000   0.000   0.000  -0.000   0.000  -0.000  -0.014   0.000   0.000
 -0.001  -0.000  -0.000   0.000  -0.000  -0.003   0.000  -0.000   0.000  -0.000   0.000  -0.000   0.000  -0.000  -0.013  -0.000
 total augmentation occupancy for first ion, spin component:           2
  0.000   0.000   0.000   0.000   0.000  -0.000  -0.000  -0.000  -0.000   0.000   0.000   0.000  -0.000   0.000  -0.000  -0.000
  0.000   0.000   0.000  -0.000   0.000  -0.000  -0.000  -0.000   0.000   0.000  -0.000   0.000  -0.000   0.000   0.000  -0.000
  0.000   0.000   0.000   0.000  -0.000  -0.000  -0.000  -0.000  -0.000   0.000   0.000   0.000   0.000   0.000  -0.000  -0.000
  0.000  -0.000   0.000   0.000  -0.000   0.000  -0.000  -0.000  -0.000   0.000  -0.000   0.000  -0.000  -0.000  -0.000  -0.000
 -0.000   0.000  -0.000  -0.000   0.000  -0.000  -0.000   0.000   0.000  -0.000  -0.000  -0.000  -0.000  -0.000   0.000  -0.000
 -0.000  -0.000  -0.000   0.000  -0.000   0.000  -0.000   0.000  -0.000  -0.000   0.000  -0.000   0.000  -0.000   0.000  -0.000
 -0.000  -0.000  -0.000  -0.000  -0.000  -0.000  -0.000  -0.000   0.000  -0.000   0.000   0.000   0.000   0.000  -0.000  -0.000
 -0.000  -0.000  -0.000  -0.000   0.000   0.000  -0.000   0.000  -0.000  -0.000   0.000  -0.000  -0.000  -0.000   0.000  -0.000
 -0.000   0.000  -0.000  -0.000   0.000  -0.000   0.000  -0.000  -0.000   0.000   0.000   0.000   0.000   0.000   0.000   0.000
  0.000   0.000   0.000   0.000  -0.000  -0.000  -0.000  -0.000   0.000   0.000  -0.000   0.000   0.000   0.000  -0.000   0.000
  0.000   0.000   0.000   0.000  -0.000   0.000   0.000   0.000   0.000  -0.000   0.000   0.000   0.000   0.000  -0.000   0.000
  0.000   0.000   0.000   0.000  -0.000  -0.000   0.000  -0.000   0.000   0.000   0.000  -0.000   0.000  -0.000  -0.000   0.000
 -0.000  -0.000   0.000  -0.000  -0.000   0.000   0.000  -0.000   0.000   0.000   0.000   0.000   0.000   0.000  -0.000   0.000
  0.000   0.000   0.000  -0.000  -0.000  -0.000   0.000  -0.000   0.000   0.000   0.000  -0.000  -0.000   0.000  -0.000   0.000
 -0.000   0.000  -0.000  -0.000   0.000   0.000  -0.000   0.000   0.000  -0.000  -0.000  -0.000  -0.000   0.000   0.000   0.000
 -0.000  -0.000  -0.000  -0.000  -0.000  -0.000  -0.000  -0.000   0.000   0.000   0.000   0.000   0.000   0.000   0.000  -0.000
  0.000   0.000   0.000  -0.000  -0.000  -0.000  -0.000  -0.000   0.000   0.000   0.000   0.000  -0.000  -0.000  -0.000  -0.000
 -0.000   0.000  -0.000  -0.000   0.000   0.000  -0.000   0.000  -0.000   0.000  -0.000   0.000  -0.000   0.000   0.000   0.000


------------------------ aborting loop because EDIFF is reached ----------------------------------------





 total charge     

# of ion       s       p       d       tot
------------------------------------------
    1        0.409   0.452   8.389   9.250
    2        0.409   0.452   8.389   9.250
    3        1.214   1.055   0.056   2.326
    4        1.214   1.055   0.056   2.326
    5        1.411   1.893   0.043   3.346
    6        1.407   1.900   0.042   3.349
    7        1.408   1.886   0.043   3.336
    8        1.411   1.893   0.043   3.346
    9        1.407   1.900   0.042   3.349
   10        1.408   1.886   0.043   3.336
--------------------------------------------------
tot         11.698  14.371  17.145  43.213



 magnetization (x)

# of ion       s       p       d       tot
------------------------------------------
    1        0.000   0.000   0.000   0.000
    2        0.000   0.000   0.000   0.000
    3       -0.000  -0.000   0.000  -0.000
    4       -0.000  -0.000   0.000  -0.000
    5       -0.000  -0.000   0.000  -0.000
    6       -0.000  -0.000   0.000  -0.000
    7       -0.000  -0.000   0.000  -0.000
    8       -0.000  -0.000   0.000  -0.000
    9       -0.000  -0.000   0.000  -0.000
   10       -0.000  -0.000   0.000  -0.000
--------------------------------------------------
tot         -0.000  -0.000   0.000   0.000

    CHARGE:  cpu time    1.5280: real time    2.5105
    FORLOC:  cpu time    0.0320: real time    0.0755
    FORNL :  cpu time    4.3440: real time    7.0834
    STRESS:  cpu time   12.6880: real time   20.5812
    FORCOR:  cpu time   39.4480: real time   59.7908
    FORHAR:  cpu time    0.1880: real time    0.2870
    MIXING:  cpu time    0.0520: real time    0.0518
    OFIELD:  cpu time    0.0000: real time    0.0001

  FORCE on cell =-STRESS in cart. coord.  units (eV):
  Direction    XX          YY          ZZ          XY          YZ          ZX
  --------------------------------------------------------------------------------------
  Alpha Z    22.85386    22.85386    22.85386
  Ewald    9889.88791  9889.88633-11845.87608    -0.00262    -0.00051    -0.00094
  Hartree 10620.93988 10620.94118 -9934.03143    -0.00060     0.00008     0.00013
  E(xc)    -281.51201  -281.51203  -281.15935     0.00006     0.00002     0.00001
  Local  -21348.41257-21348.41304 20915.80460     0.00293     0.00034     0.00064
  n-local   629.43391   631.39821   638.77500     1.16464     1.43182     1.40494
  augment   -52.46972   -52.46959   -58.40293     0.00001    -0.00007     0.00011
  Kinetic   522.70846   513.77256   541.83471    -5.26033    -0.29807    -0.45398
  Fock        0.00000     0.00000     0.00000     0.00000     0.00000     0.00000
  -------------------------------------------------------------------------------------
  Total      -0.05641    -0.05641    -0.20162    -0.00000     0.00000    -0.00000
  in kB      -0.09986    -0.09986    -0.35694    -0.00000     0.00000    -0.00000
  external pressure =       -0.19 kB  Pullay stress =        0.00 kB


 VOLUME and BASIS-vectors are now :
 -----------------------------------------------------------------------------
  energy-cutoff  :      520.00
  volume of cell :      905.01
      direct lattice vectors                 reciprocal lattice vectors
     6.824876855  0.000000139  0.000000000     0.146522792 -0.084594963  0.000000000
     3.412437827  5.910516453  0.000000000    -0.000000003  0.169189955 -0.000000000
     0.000000000  0.000000000 22.435431309    -0.000000000 -0.000000000  0.044572355

  length of vectors
     6.824876855  6.824876311 22.435431309     0.169189941  0.169189955  0.044572355


 FORCES acting on ions
    electron-ion (+dipol)            ewald-force                    non-local-force                 convergence-correction
 -----------------------------------------------------------------------------------------------
   0.146E-03 0.664E-04 0.457E+00   0.682E-03 0.419E-03 -.463E+00   0.347E-17 0.203E-20 0.100E-01   0.377E-06 0.779E-07 -.284E-03
   -.146E-03 -.664E-04 -.457E+00   -.682E-03 -.419E-03 0.463E+00   -.347E-17 -.203E-20 -.100E-01   -.377E-06 -.779E-07 0.284E-03
   -.458E-04 0.936E-05 0.205E+03   -.141E-03 -.782E-04 -.205E+03   -.174E-16 -.142E-18 -.700E+00   -.379E-07 -.237E-07 -.416E-02
   0.458E-04 -.936E-05 -.205E+03   0.141E-03 0.782E-04 0.205E+03   -.344E-17 0.142E-18 0.700E+00   0.379E-07 0.237E-07 0.416E-02
   -.357E+02 -.425E-02 -.431E+03   0.335E+02 0.668E-02 0.435E+03   0.216E+01 -.400E-02 -.399E+01   -.578E-03 0.165E-04 0.770E-02
   0.179E+02 0.309E+02 -.431E+03   -.168E+02 -.291E+02 0.435E+03   -.108E+01 -.187E+01 -.399E+01   0.303E-03 0.492E-03 0.770E-02
   0.179E+02 -.309E+02 -.431E+03   -.168E+02 0.290E+02 0.435E+03   -.108E+01 0.187E+01 -.399E+01   0.275E-03 -.509E-03 0.770E-02
   0.357E+02 0.425E-02 0.431E+03   -.335E+02 -.668E-02 -.435E+03   -.216E+01 0.400E-02 0.399E+01   0.578E-03 -.165E-04 -.770E-02
   -.179E+02 -.309E+02 0.431E+03   0.168E+02 0.291E+02 -.435E+03   0.108E+01 0.187E+01 0.399E+01   -.303E-03 -.492E-03 -.770E-02
   -.179E+02 0.309E+02 0.431E+03   0.168E+02 -.290E+02 -.435E+03   0.108E+01 -.187E+01 0.399E+01   -.275E-03 0.509E-03 -.770E-02
 -----------------------------------------------------------------------------------------------
   0.124E-09 0.298E-09 0.523E-09   0.178E-13 0.711E-14 0.114E-12   0.222E-15 0.222E-15 0.133E-14   -.578E-13 -.169E-12 0.198E-10


 POSITION                                       TOTAL-FORCE (eV/Angst)
 -----------------------------------------------------------------------------------
      3.41243      1.97017     11.21681        -0.000000     -0.000000      0.003572
      6.82488      3.94035     11.21862        -0.000000     -0.000000     -0.003572
      0.00000      0.00000      9.95050        -0.000000     -0.000000      0.033740
      0.00000      0.00000     12.48493        -0.000000     -0.000000     -0.033740
      4.13850      0.00059     12.80774        -0.013427     -0.001018     -0.015272
      1.34371      2.32618     12.80774         0.005832      0.012137     -0.015272
      4.75512      3.58375     12.80774         0.007595     -0.011119     -0.015272
      6.09881      5.90992      9.62769         0.013427      0.001018      0.015272
      8.89361      3.58434      9.62769        -0.005832     -0.012137      0.015272
      5.48220      2.32677      9.62769        -0.007595      0.011119      0.015272
 -----------------------------------------------------------------------------------
    total drift:                                0.000000      0.000000      0.000000


--------------------------------------------------------------------------------------------------------



  FREE ENERGIE OF THE ION-ELECTRON SYSTEM (eV)
  ---------------------------------------------------
  free  energy   TOTEN  =       -32.01854733 eV

  energy  without entropy=      -32.01854733  energy(sigma->0) =      -32.01854733

 d Force =-0.7440864E-04[-0.324E-03, 0.175E-03]  d Energy = 0.1178209E-02-0.125E-02
 d Force = 0.1846957E+00[ 0.185E+00, 0.185E+00]  d Ewald  =-0.3327821E+01 0.351E+01


--------------------------------------------------------------------------------------------------------


    POTLOK:  cpu time   40.0280: real time   59.5188


--------------------------------------------------------------------------------------------------------




--------------------------------------------------------------------------------------------------------


  
 reached required accuracy - stopping structural energy minimisation
     LOOP+:  cpu time  490.3960: real time  740.9476
    4ORBIT:  cpu time    0.0000: real time    0.0000



 total charge     

# of ion       s       p       d       tot
------------------------------------------
    1        0.409   0.452   8.389   9.250
    2        0.409   0.452   8.389   9.250
    3        1.214   1.055   0.056   2.326
    4        1.214   1.055   0.056   2.326
    5        1.411   1.893   0.043   3.346
    6        1.407   1.900   0.042   3.349
    7        1.408   1.886   0.043   3.336
    8        1.411   1.893   0.043   3.346
    9        1.407   1.900   0.042   3.349
   10        1.408   1.886   0.043   3.336
--------------------------------------------------
tot         11.698  14.371  17.145  43.213



 magnetization (x)

# of ion       s       p       d       tot
------------------------------------------
    1        0.000   0.000   0.000   0.000
    2        0.000   0.000   0.000   0.000
    3       -0.000  -0.000   0.000  -0.000
    4       -0.000  -0.000   0.000  -0.000
    5       -0.000  -0.000   0.000  -0.000
    6       -0.000  -0.000   0.000  -0.000
    7       -0.000  -0.000   0.000  -0.000
    8       -0.000  -0.000   0.000  -0.000
    9       -0.000  -0.000   0.000  -0.000
   10       -0.000  -0.000   0.000  -0.000
--------------------------------------------------
tot         -0.000  -0.000   0.000   0.000

 BZINTS: Fermi energy: -1.699977; 64.000000 electrons
         Band energy:-409.640308;  BLOECHL correction: -0.021308

 total amount of memory used by VASP MPI-rank0   115881. kBytes
=======================================================================

   base      :      30000. kBytes
   nonlr-proj:       9335. kBytes
   fftplans  :       8558. kBytes
   grid      :      59268. kBytes
   one-center:        311. kBytes
   wavefun   :       8409. kBytes

  
  
 General timing and accounting informations for this job:
 ========================================================
  
                  Total CPU time used (sec):     8036.316
                            User time (sec):     7302.580
                          System time (sec):      733.736
                         Elapsed time (sec):    12165.522
  
                   Maximum memory used (kb):      326852.
                   Average memory used (kb):           0.
  
                          Minor page faults:      5921301
                          Major page faults:            9
                 Voluntary context switches:         1317
