PROCAR lm decomposed
# of k-points:    5         # of bands:   48         # of ions:   10

 k-point     1 :    0.00000000 0.00000000 0.00000000     weight = 0.04000000

band     1 # energy  -14.84765703 # occ.  1.00000000

ion      s     py     pz     px    dxy    dyz    dz2    dxz  x2-y2    tot
    1  0.021  0.000  0.000  0.000  0.000  0.000  0.000  0.000  0.000  0.021
    2  0.021  0.000  0.000  0.000  0.000  0.000  0.000  0.000  0.000  0.021
    3  0.044  0.000  0.000  0.000  0.000  0.000  0.000  0.000  0.000  0.044
    4  0.044  0.000  0.000  0.000  0.000  0.000  0.000  0.000  0.000  0.044
    5  0.082  0.000  0.001  0.000  0.000  0.000  0.000  0.000  0.000  0.083
    6  0.082  0.000  0.001  0.000  0.000  0.000  0.000  0.000  0.000  0.083
    7  0.082  0.000  0.001  0.000  0.000  0.000  0.000  0.000  0.000  0.083
    8  0.082  0.000  0.001  0.000  0.000  0.000  0.000  0.000  0.000  0.083
    9  0.082  0.000  0.001  0.000  0.000  0.000  0.000  0.000  0.000  0.083
   10  0.082  0.000  0.001  0.000  0.000  0.000  0.000  0.000  0.000  0.083
tot    0.621  0.000  0.006  0.000  0.000  0.000  0.000  0.000  0.000  0.628

band     2 # energy  -13.72947436 # occ.  1.00000000

ion      s     py     pz     px    dxy    dyz    dz2    dxz  x2-y2    tot
    1  0.000  0.000  0.008  0.000  0.000  0.000  0.000  0.000  0.000  0.008
    2  0.000  0.000  0.008  0.000  0.000  0.000  0.000  0.000  0.000  0.008
    3  0.030  0.000  0.001  0.000  0.000  0.000  0.001  0.000  0.000  0.032
    4  0.030  0.000  0.001  0.000  0.000  0.000  0.001  0.000  0.000  0.032
    5  0.098  0.000  0.000  0.000  0.000  0.000  0.000  0.000  0.000  0.098
    6  0.098  0.000  0.000  0.000  0.000  0.000  0.000  0.000  0.000  0.098
    7  0.098  0.000  0.000  0.000  0.000  0.000  0.000  0.000  0.000  0.098
    8  0.098  0.000  0.000  0.000  0.000  0.000  0.000  0.000  0.000  0.098
    9  0.098  0.000  0.000  0.000  0.000  0.000  0.000  0.000  0.000  0.098
   10  0.098  0.000  0.000  0.000  0.000  0.000  0.000  0.000  0.000  0.098
tot    0.649  0.000  0.017  0.000  0.000  0.000  0.002  0.000  0.000  0.669

band     3 # energy  -12.88668114 # occ.  1.00000000

ion      s     py     pz     px    dxy    dyz    dz2    dxz  x2-y2    tot
    1  0.000  0.007  0.000  0.002  0.000  0.000  0.000  0.001  0.002  0.012
    2  0.000  0.007  0.000  0.002  0.000  0.000  0.000  0.001  0.002  0.012
    3  0.000  0.001  0.000  0.003  0.000  0.000  0.000  0.000  0.001  0.005
    4  0.000  0.001  0.000  0.003  0.000  0.000  0.000  0.000  0.001  0.005
    5  0.182  0.000  0.001  0.000  0.000  0.000  0.000  0.000  0.000  0.183
    6  0.158  0.000  0.001  0.000  0.000  0.000  0.000  0.000  0.000  0.159
    7  0.001  0.000  0.000  0.000  0.000  0.000  0.000  0.000  0.000  0.001
    8  0.182  0.000  0.001  0.000  0.000  0.000  0.000  0.000  0.000  0.183
    9  0.158  0.000  0.001  0.000  0.000  0.000  0.000  0.000  0.000  0.159
   10  0.001  0.000  0.000  0.000  0.000  0.000  0.000  0.000  0.000  0.001
tot    0.682  0.016  0.004  0.010  0.001  0.000  0.000  0.002  0.005  0.721

band     4 # energy  -12.88664589 # occ.  1.00000000

ion      s     py     pz     px    dxy    dyz    dz2    dxz  x2-y2    tot
    1  0.000  0.002  0.000  0.007  0.002  0.001  0.000  0.000  0.000  0.012
    2  0.000  0.002  0.000  0.007  0.002  0.001  0.000  0.000  0.000  0.012
    3  0.000  0.003  0.000  0.001  0.001  0.000  0.000  0.000  0.000  0.005
    4  0.000  0.003  0.000  0.001  0.001  0.000  0.000  0.000  0.000  0.005
    5  0.045  0.000  0.000  0.000  0.000  0.000  0.000  0.000  0.000  0.045
    6  0.069  0.000  0.000  0.000  0.000  0.000  0.000  0.000  0.000  0.070
    7  0.227  0.000  0.001  0.000  0.000  0.000  0.000  0.000  0.000  0.228
    8  0.045  0.000  0.000  0.000  0.000  0.000  0.000  0.000  0.000  0.045
    9  0.069  0.000  0.000  0.000  0.000  0.000  0.000  0.000  0.000  0.070
   10  0.227  0.000  0.001  0.000  0.000  0.000  0.000  0.000  0.000  0.228
tot    0.682  0.010  0.004  0.016  0.005  0.002  0.000  0.000  0.001  0.721

band     5 # energy  -12.53321919 # occ.  1.00000000

ion      s     py     pz     px    dxy    dyz    dz2    dxz  x2-y2    tot
    1  0.000  0.000  0.000  0.001  0.002  0.007  0.000  0.000  0.000  0.011
    2  0.000  0.000  0.000  0.001  0.002  0.007  0.000  0.000  0.000  0.011
    3  0.000  0.000  0.000  0.008  0.000  0.000  0.000  0.000  0.001  0.009
    4  0.000  0.000  0.000  0.008  0.000  0.000  0.000  0.000  0.001  0.009
    5  0.221  0.000  0.000  0.001  0.000  0.000  0.000  0.000  0.000  0.223
    6  0.101  0.000  0.000  0.000  0.000  0.000  0.000  0.000  0.000  0.101
    7  0.024  0.000  0.000  0.000  0.000  0.000  0.000  0.000  0.000  0.024
    8  0.221  0.000  0.000  0.001  0.000  0.000  0.000  0.000  0.000  0.223
    9  0.101  0.000  0.000  0.000  0.000  0.000  0.000  0.000  0.000  0.101
   10  0.024  0.000  0.000  0.000  0.000  0.000  0.000  0.000  0.000  0.024
tot    0.691  0.002  0.000  0.020  0.004  0.015  0.000  0.001  0.001  0.735

band     6 # energy  -12.53318090 # occ.  1.00000000

ion      s     py     pz     px    dxy    dyz    dz2    dxz  x2-y2    tot
    1  0.000  0.001  0.000  0.000  0.000  0.000  0.000  0.007  0.002  0.011
    2  0.000  0.001  0.000  0.000  0.000  0.000  0.000  0.007  0.002  0.011
    3  0.000  0.008  0.000  0.000  0.001  0.000  0.000  0.000  0.000  0.009
    4  0.000  0.008  0.000  0.000  0.001  0.000  0.000  0.000  0.000  0.009
    5  0.009  0.000  0.000  0.000  0.000  0.000  0.000  0.000  0.000  0.009
    6  0.130  0.000  0.000  0.000  0.000  0.000  0.000  0.000  0.000  0.131
    7  0.207  0.001  0.000  0.000  0.000  0.000  0.000  0.000  0.000  0.208
    8  0.009  0.000  0.000  0.000  0.000  0.000  0.000  0.000  0.000  0.009
    9  0.130  0.000  0.000  0.000  0.000  0.000  0.000  0.000  0.000  0.131
   10  0.207  0.001  0.000  0.000  0.000  0.000  0.000  0.000  0.000  0.208
tot    0.691  0.020  0.000  0.002  0.001  0.001  0.000  0.015  0.004  0.735

band     7 # energy  -10.78548785 # occ.  1.00000000

ion      s     py     pz     px    dxy    dyz    dz2    dxz  x2-y2    tot
    1  0.012  0.000  0.000  0.000  0.000  0.000  0.000  0.000  0.000  0.012
    2  0.012  0.000  0.000  0.000  0.000  0.000  0.000  0.000  0.000  0.012
    3  0.245  0.000  0.009  0.000  0.000  0.000  0.001  0.000  0.000  0.254
    4  0.245  0.000  0.009  0.000  0.000  0.000  0.001  0.000  0.000  0.254
    5  0.014  0.000  0.000  0.008  0.000  0.000  0.000  0.000  0.001  0.023
    6  0.014  0.006  0.000  0.002  0.000  0.000  0.000  0.000  0.000  0.023
    7  0.014  0.006  0.000  0.002  0.000  0.000  0.000  0.000  0.000  0.023
    8  0.014  0.000  0.000  0.008  0.000  0.000  0.000  0.000  0.001  0.023
    9  0.014  0.006  0.000  0.002  0.000  0.000  0.000  0.000  0.000  0.023
   10  0.014  0.006  0.000  0.002  0.000  0.000  0.000  0.000  0.000  0.023
tot    0.596  0.025  0.018  0.025  0.002  0.000  0.002  0.000  0.002  0.670

band     8 # energy   -8.68333488 # occ.  1.00000000

ion      s     py     pz     px    dxy    dyz    dz2    dxz  x2-y2    tot
    1  0.000  0.000  0.005  0.000  0.000  0.000  0.000  0.000  0.000  0.005
    2  0.000  0.000  0.005  0.000  0.000  0.000  0.000  0.000  0.000  0.005
    3  0.249  0.000  0.007  0.000  0.000  0.000  0.001  0.000  0.000  0.257
    4  0.249  0.000  0.007  0.000  0.000  0.000  0.001  0.000  0.000  0.257
    5  0.011  0.000  0.000  0.014  0.000  0.000  0.000  0.000  0.001  0.026
    6  0.011  0.011  0.000  0.004  0.001  0.000  0.000  0.000  0.000  0.026
    7  0.011  0.011  0.000  0.004  0.001  0.000  0.000  0.000  0.000  0.026
    8  0.011  0.000  0.000  0.014  0.000  0.000  0.000  0.000  0.001  0.026
    9  0.011  0.011  0.000  0.004  0.001  0.000  0.000  0.000  0.000  0.026
   10  0.011  0.011  0.000  0.004  0.001  0.000  0.000  0.000  0.000  0.026
tot    0.564  0.043  0.024  0.043  0.003  0.000  0.002  0.000  0.003  0.681

band     9 # energy   -7.40902794 # occ.  1.00000000

ion      s     py     pz     px    dxy    dyz    dz2    dxz  x2-y2    tot
    1  0.095  0.000  0.000  0.000  0.000  0.000  0.010  0.000  0.000  0.106
    2  0.095  0.000  0.000  0.000  0.000  0.000  0.010  0.000  0.000  0.106
    3  0.000  0.000  0.000  0.000  0.000  0.000  0.000  0.000  0.000  0.000
    4  0.000  0.000  0.000  0.000  0.000  0.000  0.000  0.000  0.000  0.000
    5  0.000  0.050  0.000  0.000  0.000  0.001  0.000  0.000  0.000  0.051
    6  0.000  0.013  0.000  0.038  0.000  0.000  0.000  0.000  0.000  0.051
    7  0.000  0.013  0.000  0.038  0.000  0.000  0.000  0.000  0.000  0.051
    8  0.000  0.050  0.000  0.000  0.000  0.001  0.000  0.000  0.000  0.051
    9  0.000  0.013  0.000  0.038  0.000  0.000  0.000  0.000  0.000  0.051
   10  0.000  0.013  0.000  0.038  0.000  0.000  0.000  0.000  0.000  0.051
tot    0.191  0.150  0.000  0.150  0.001  0.002  0.021  0.002  0.001  0.518

band    10 # energy   -6.64511806 # occ.  1.00000000

ion      s     py     pz     px    dxy    dyz    dz2    dxz  x2-y2    tot
    1  0.000  0.002  0.000  0.003  0.002  0.021  0.000  0.015  0.002  0.046
    2  0.000  0.002  0.000  0.003  0.002  0.021  0.000  0.015  0.002  0.046
    3  0.000  0.019  0.000  0.027  0.000  0.000  0.000  0.000  0.000  0.046
    4  0.000  0.019  0.000  0.027  0.000  0.000  0.000  0.000  0.000  0.046
    5  0.003  0.008  0.002  0.039  0.000  0.000  0.000  0.000  0.000  0.053
    6  0.005  0.055  0.003  0.007  0.000  0.000  0.000  0.000  0.000  0.070
    7  0.000  0.001  0.000  0.020  0.000  0.000  0.000  0.000  0.000  0.022
    8  0.003  0.008  0.002  0.039  0.000  0.000  0.000  0.000  0.000  0.053
    9  0.005  0.055  0.003  0.007  0.000  0.000  0.000  0.000  0.000  0.070
   10  0.000  0.001  0.000  0.020  0.000  0.000  0.000  0.000  0.000  0.022
tot    0.017  0.171  0.009  0.192  0.005  0.044  0.000  0.031  0.004  0.474

band    11 # energy   -6.64509645 # occ.  1.00000000

ion      s     py     pz     px    dxy    dyz    dz2    dxz  x2-y2    tot
    1  0.000  0.003  0.000  0.002  0.002  0.015  0.000  0.021  0.002  0.046
    2  0.000  0.003  0.000  0.002  0.002  0.015  0.000  0.021  0.002  0.046
    3  0.000  0.027  0.000  0.019  0.000  0.000  0.000  0.000  0.000  0.046
    4  0.000  0.027  0.000  0.019  0.000  0.000  0.000  0.000  0.000  0.046
    5  0.002  0.011  0.001  0.028  0.000  0.000  0.000  0.000  0.000  0.044
    6  0.001  0.000  0.000  0.025  0.000  0.000  0.000  0.000  0.000  0.027
    7  0.006  0.055  0.003  0.011  0.000  0.000  0.000  0.000  0.000  0.075
    8  0.002  0.011  0.001  0.028  0.000  0.000  0.000  0.000  0.000  0.044
    9  0.001  0.000  0.000  0.025  0.000  0.000  0.000  0.000  0.000  0.027
   10  0.006  0.055  0.003  0.011  0.000  0.000  0.000  0.000  0.000  0.075
tot    0.017  0.192  0.009  0.171  0.004  0.031  0.000  0.044  0.005  0.474

band    12 # energy   -6.57029131 # occ.  1.00000000

ion      s     py     pz     px    dxy    dyz    dz2    dxz  x2-y2    tot
    1  0.041  0.000  0.000  0.000  0.000  0.000  0.024  0.000  0.000  0.065
    2  0.041  0.000  0.000  0.000  0.000  0.000  0.024  0.000  0.000  0.065
    3  0.000  0.000  0.023  0.000  0.000  0.000  0.000  0.000  0.000  0.023
    4  0.000  0.000  0.023  0.000  0.000  0.000  0.000  0.000  0.000  0.023
    5  0.005  0.000  0.043  0.002  0.000  0.000  0.000  0.000  0.000  0.051
    6  0.005  0.001  0.043  0.000  0.000  0.000  0.000  0.000  0.000  0.051
    7  0.005  0.001  0.043  0.000  0.000  0.000  0.000  0.000  0.000  0.051
    8  0.005  0.000  0.043  0.002  0.000  0.000  0.000  0.000  0.000  0.051
    9  0.005  0.001  0.043  0.000  0.000  0.000  0.000  0.000  0.000  0.051
   10  0.005  0.001  0.043  0.000  0.000  0.000  0.000  0.000  0.000  0.051
tot    0.115  0.006  0.305  0.006  0.000  0.000  0.050  0.000  0.000  0.482

band    13 # energy   -6.30584701 # occ.  1.00000000

ion      s     py     pz     px    dxy    dyz    dz2    dxz  x2-y2    tot
    1  0.000  0.012  0.000  0.001  0.001  0.002  0.000  0.023  0.011  0.052
    2  0.000  0.012  0.000  0.001  0.001  0.002  0.000  0.023  0.011  0.052
    3  0.000  0.003  0.000  0.031  0.000  0.000  0.000  0.001  0.000  0.035
    4  0.000  0.003  0.000  0.031  0.000  0.000  0.000  0.001  0.000  0.035
    5  0.000  0.002  0.013  0.066  0.000  0.000  0.001  0.000  0.000  0.081
    6  0.000  0.048  0.008  0.000  0.000  0.000  0.000  0.000  0.000  0.056
    7  0.000  0.014  0.001  0.008  0.000  0.000  0.000  0.000  0.000  0.023
    8  0.000  0.002  0.013  0.066  0.000  0.000  0.001  0.000  0.000  0.081
    9  0.000  0.048  0.008  0.000  0.000  0.000  0.000  0.000  0.000  0.056
   10  0.000  0.014  0.001  0.008  0.000  0.000  0.000  0.000  0.000  0.023
tot    0.002  0.158  0.042  0.213  0.003  0.005  0.002  0.048  0.024  0.495

band    14 # energy   -6.30581769 # occ.  1.00000000

ion      s     py     pz     px    dxy    dyz    dz2    dxz  x2-y2    tot
    1  0.000  0.001  0.000  0.012  0.011  0.023  0.000  0.002  0.001  0.052
    2  0.000  0.001  0.000  0.012  0.011  0.023  0.000  0.002  0.001  0.052
    3  0.000  0.031  0.000  0.003  0.000  0.001  0.000  0.000  0.000  0.035
    4  0.000  0.031  0.000  0.003  0.000  0.001  0.000  0.000  0.000  0.035
    5  0.000  0.018  0.001  0.006  0.000  0.000  0.000  0.000  0.000  0.026
    6  0.000  0.011  0.006  0.032  0.000  0.000  0.000  0.000  0.000  0.051
    7  0.000  0.045  0.013  0.025  0.000  0.000  0.001  0.000  0.000  0.084
    8  0.000  0.018  0.001  0.006  0.000  0.000  0.000  0.000  0.000  0.026
    9  0.000  0.011  0.006  0.032  0.000  0.000  0.000  0.000  0.000  0.051
   10  0.000  0.045  0.013  0.025  0.000  0.000  0.001  0.000  0.000  0.084
tot    0.002  0.213  0.042  0.158  0.024  0.048  0.002  0.005  0.003  0.495

band    15 # energy   -5.82617266 # occ.  1.00000000

ion      s     py     pz     px    dxy    dyz    dz2    dxz  x2-y2    tot
    1  0.000  0.000  0.040  0.000  0.000  0.000  0.000  0.000  0.000  0.040
    2  0.000  0.000  0.040  0.000  0.000  0.000  0.000  0.000  0.000  0.040
    3  0.000  0.000  0.000  0.000  0.000  0.000  0.000  0.000  0.000  0.000
    4  0.000  0.000  0.000  0.000  0.000  0.000  0.000  0.000  0.000  0.000
    5  0.000  0.065  0.000  0.000  0.000  0.000  0.000  0.000  0.000  0.065
    6  0.000  0.016  0.000  0.049  0.000  0.000  0.000  0.000  0.000  0.065
    7  0.000  0.016  0.000  0.049  0.000  0.000  0.000  0.000  0.000  0.065
    8  0.000  0.065  0.000  0.000  0.000  0.000  0.000  0.000  0.000  0.065
    9  0.000  0.016  0.000  0.049  0.000  0.000  0.000  0.000  0.000  0.065
   10  0.000  0.016  0.000  0.049  0.000  0.000  0.000  0.000  0.000  0.065
tot    0.000  0.195  0.081  0.195  0.001  0.000  0.000  0.000  0.001  0.472

band    16 # energy   -4.89345538 # occ.  1.00000000

ion      s     py     pz     px    dxy    dyz    dz2    dxz  x2-y2    tot
    1  0.000  0.001  0.000  0.000  0.010  0.012  0.000  0.148  0.131  0.302
    2  0.000  0.001  0.000  0.000  0.010  0.012  0.000  0.148  0.131  0.302
    3  0.000  0.000  0.000  0.000  0.000  0.000  0.000  0.000  0.000  0.000
    4  0.000  0.000  0.000  0.000  0.000  0.000  0.000  0.000  0.000  0.000
    5  0.002  0.002  0.029  0.001  0.000  0.000  0.000  0.000  0.000  0.035
    6  0.001  0.002  0.016  0.013  0.000  0.000  0.000  0.001  0.000  0.033
    7  0.000  0.006  0.002  0.022  0.000  0.000  0.000  0.001  0.000  0.031
    8  0.002  0.002  0.029  0.001  0.000  0.000  0.000  0.000  0.000  0.035
    9  0.001  0.002  0.016  0.013  0.000  0.000  0.000  0.001  0.000  0.033
   10  0.000  0.006  0.002  0.022  0.000  0.000  0.000  0.001  0.000  0.031
tot    0.006  0.021  0.094  0.074  0.021  0.023  0.001  0.299  0.264  0.803

band    17 # energy   -4.89343988 # occ.  1.00000000

ion      s     py     pz     px    dxy    dyz    dz2    dxz  x2-y2    tot
    1  0.000  0.000  0.000  0.001  0.131  0.148  0.000  0.012  0.010  0.302
    2  0.000  0.000  0.000  0.001  0.131  0.148  0.000  0.012  0.010  0.302
    3  0.000  0.000  0.000  0.000  0.000  0.000  0.000  0.000  0.000  0.000
    4  0.000  0.000  0.000  0.000  0.000  0.000  0.000  0.000  0.000  0.000
    5  0.000  0.028  0.002  0.000  0.000  0.001  0.000  0.000  0.000  0.031
    6  0.001  0.007  0.015  0.009  0.000  0.000  0.000  0.000  0.000  0.033
    7  0.002  0.002  0.029  0.000  0.000  0.000  0.000  0.000  0.000  0.035
    8  0.000  0.028  0.002  0.000  0.000  0.001  0.000  0.000  0.000  0.031
    9  0.001  0.007  0.015  0.009  0.000  0.000  0.000  0.000  0.000  0.033
   10  0.002  0.002  0.029  0.000  0.000  0.000  0.000  0.000  0.000  0.035
tot    0.006  0.074  0.094  0.021  0.264  0.299  0.001  0.023  0.021  0.803

band    18 # energy   -4.41984956 # occ.  1.00000000

ion      s     py     pz     px    dxy    dyz    dz2    dxz  x2-y2    tot
    1  0.000  0.000  0.000  0.000  0.020  0.017  0.000  0.133  0.156  0.326
    2  0.000  0.000  0.000  0.000  0.020  0.017  0.000  0.133  0.156  0.326
    3  0.000  0.000  0.000  0.000  0.000  0.001  0.000  0.000  0.000  0.001
    4  0.000  0.000  0.000  0.000  0.000  0.001  0.000  0.000  0.000  0.001
    5  0.000  0.004  0.005  0.000  0.000  0.000  0.000  0.000  0.000  0.010
    6  0.004  0.000  0.045  0.000  0.000  0.000  0.000  0.000  0.000  0.049
    7  0.002  0.001  0.019  0.002  0.000  0.000  0.000  0.000  0.000  0.024
    8  0.000  0.004  0.005  0.000  0.000  0.000  0.000  0.000  0.000  0.010
    9  0.004  0.000  0.045  0.000  0.000  0.000  0.000  0.000  0.000  0.049
   10  0.002  0.001  0.019  0.002  0.000  0.000  0.000  0.000  0.000  0.024
tot    0.013  0.010  0.138  0.005  0.040  0.035  0.000  0.267  0.313  0.821

band    19 # energy   -4.41984522 # occ.  1.00000000

ion      s     py     pz     px    dxy    dyz    dz2    dxz  x2-y2    tot
    1  0.000  0.000  0.000  0.000  0.156  0.133  0.000  0.017  0.020  0.326
    2  0.000  0.000  0.000  0.000  0.156  0.133  0.000  0.017  0.020  0.326
    3  0.000  0.000  0.000  0.000  0.000  0.000  0.000  0.001  0.000  0.001
    4  0.000  0.000  0.000  0.000  0.000  0.000  0.000  0.001  0.000  0.001
    5  0.004  0.001  0.041  0.000  0.000  0.000  0.000  0.000  0.000  0.046
    6  0.000  0.001  0.002  0.004  0.000  0.000  0.000  0.000  0.000  0.007
    7  0.002  0.001  0.027  0.001  0.000  0.000  0.000  0.000  0.000  0.032
    8  0.004  0.001  0.041  0.000  0.000  0.000  0.000  0.000  0.000  0.046
    9  0.000  0.001  0.002  0.004  0.000  0.000  0.000  0.000  0.000  0.007
   10  0.002  0.001  0.027  0.001  0.000  0.000  0.000  0.000  0.000  0.032
tot    0.013  0.005  0.138  0.010  0.313  0.267  0.000  0.035  0.040  0.821

band    20 # energy   -3.96476997 # occ.  1.00000000

ion      s     py     pz     px    dxy    dyz    dz2    dxz  x2-y2    tot
    1  0.003  0.000  0.000  0.000  0.000  0.000  0.352  0.000  0.000  0.354
    2  0.003  0.000  0.000  0.000  0.000  0.000  0.352  0.000  0.000  0.354
    3  0.002  0.000  0.034  0.000  0.000  0.000  0.001  0.000  0.000  0.038
    4  0.002  0.000  0.034  0.000  0.000  0.000  0.001  0.000  0.000  0.038
    5  0.001  0.000  0.000  0.006  0.000  0.000  0.000  0.000  0.001  0.008
    6  0.001  0.005  0.000  0.002  0.000  0.000  0.000  0.000  0.000  0.008
    7  0.001  0.005  0.000  0.002  0.000  0.000  0.000  0.000  0.000  0.008
    8  0.001  0.000  0.000  0.006  0.000  0.000  0.000  0.000  0.001  0.008
    9  0.001  0.005  0.000  0.002  0.000  0.000  0.000  0.000  0.000  0.008
   10  0.001  0.005  0.000  0.002  0.000  0.000  0.000  0.000  0.000  0.008
tot    0.014  0.019  0.069  0.019  0.002  0.000  0.709  0.000  0.002  0.833

band    21 # energy   -3.71805631 # occ.  1.00000000

ion      s     py     pz     px    dxy    dyz    dz2    dxz  x2-y2    tot
    1  0.009  0.000  0.000  0.000  0.000  0.000  0.451  0.000  0.000  0.460
    2  0.009  0.000  0.000  0.000  0.000  0.000  0.451  0.000  0.000  0.460
    3  0.000  0.000  0.000  0.000  0.000  0.000  0.000  0.000  0.000  0.000
    4  0.000  0.000  0.000  0.000  0.000  0.000  0.000  0.000  0.000  0.000
    5  0.000  0.001  0.000  0.000  0.000  0.000  0.000  0.000  0.000  0.001
    6  0.000  0.000  0.000  0.000  0.000  0.000  0.000  0.000  0.000  0.001
    7  0.000  0.000  0.000  0.000  0.000  0.000  0.000  0.000  0.000  0.001
    8  0.000  0.001  0.000  0.000  0.000  0.000  0.000  0.000  0.000  0.001
    9  0.000  0.000  0.000  0.000  0.000  0.000  0.000  0.000  0.000  0.001
   10  0.000  0.000  0.000  0.000  0.000  0.000  0.000  0.000  0.000  0.001
tot    0.018  0.002  0.000  0.002  0.000  0.001  0.903  0.001  0.000  0.927

band    22 # energy   -3.70993498 # occ.  1.00000000

ion      s     py     pz     px    dxy    dyz    dz2    dxz  x2-y2    tot
    1  0.000  0.000  0.000  0.000  0.014  0.028  0.000  0.179  0.086  0.308
    2  0.000  0.000  0.000  0.000  0.014  0.028  0.000  0.179  0.086  0.308
    3  0.000  0.003  0.000  0.018  0.000  0.000  0.000  0.000  0.000  0.022
    4  0.000  0.003  0.000  0.018  0.000  0.000  0.000  0.000  0.000  0.022
    5  0.001  0.000  0.018  0.019  0.000  0.000  0.000  0.000  0.001  0.039
    6  0.001  0.009  0.012  0.005  0.000  0.000  0.000  0.000  0.001  0.028
    7  0.000  0.000  0.000  0.001  0.000  0.000  0.000  0.000  0.001  0.003
    8  0.001  0.000  0.018  0.019  0.000  0.000  0.000  0.000  0.001  0.039
    9  0.001  0.009  0.012  0.005  0.000  0.000  0.000  0.000  0.001  0.028
   10  0.000  0.000  0.000  0.001  0.000  0.000  0.000  0.000  0.001  0.003
tot    0.005  0.025  0.061  0.086  0.028  0.057  0.000  0.360  0.178  0.800

band    23 # energy   -3.70991861 # occ.  1.00000000

ion      s     py     pz     px    dxy    dyz    dz2    dxz  x2-y2    tot
    1  0.000  0.000  0.000  0.000  0.086  0.179  0.000  0.028  0.014  0.308
    2  0.000  0.000  0.000  0.000  0.086  0.179  0.000  0.028  0.014  0.308
    3  0.000  0.018  0.000  0.003  0.000  0.000  0.000  0.000  0.000  0.022
    4  0.000  0.018  0.000  0.003  0.000  0.000  0.000  0.000  0.000  0.022
    5  0.000  0.000  0.003  0.003  0.001  0.000  0.000  0.000  0.000  0.007
    6  0.001  0.008  0.008  0.001  0.001  0.000  0.000  0.000  0.000  0.019
    7  0.002  0.017  0.020  0.005  0.001  0.000  0.000  0.000  0.000  0.044
    8  0.000  0.000  0.003  0.003  0.001  0.000  0.000  0.000  0.000  0.007
    9  0.001  0.008  0.008  0.001  0.001  0.000  0.000  0.000  0.000  0.019
   10  0.002  0.017  0.020  0.005  0.001  0.000  0.000  0.000  0.000  0.044
tot    0.005  0.086  0.061  0.025  0.178  0.360  0.000  0.057  0.028  0.800

band    24 # energy   -3.57766590 # occ.  1.00000000

ion      s     py     pz     px    dxy    dyz    dz2    dxz  x2-y2    tot
    1  0.000  0.001  0.000  0.001  0.103  0.074  0.000  0.103  0.144  0.425
    2  0.000  0.001  0.000  0.001  0.103  0.074  0.000  0.103  0.144  0.425
    3  0.000  0.004  0.000  0.003  0.000  0.000  0.000  0.000  0.000  0.006
    4  0.000  0.004  0.000  0.003  0.000  0.000  0.000  0.000  0.000  0.006
    5  0.001  0.002  0.003  0.001  0.000  0.000  0.000  0.000  0.000  0.007
    6  0.000  0.000  0.001  0.003  0.000  0.000  0.000  0.000  0.000  0.005
    7  0.002  0.001  0.007  0.000  0.000  0.000  0.000  0.000  0.000  0.011
    8  0.001  0.002  0.003  0.001  0.000  0.000  0.000  0.000  0.000  0.007
    9  0.000  0.000  0.001  0.003  0.000  0.000  0.000  0.000  0.000  0.005
   10  0.002  0.001  0.007  0.000  0.000  0.000  0.000  0.000  0.000  0.011
tot    0.005  0.018  0.022  0.015  0.206  0.148  0.001  0.206  0.288  0.909

band    25 # energy   -3.57765684 # occ.  1.00000000

ion      s     py     pz     px    dxy    dyz    dz2    dxz  x2-y2    tot
    1  0.000  0.001  0.000  0.001  0.144  0.103  0.000  0.074  0.103  0.425
    2  0.000  0.001  0.000  0.001  0.144  0.103  0.000  0.074  0.103  0.425
    3  0.000  0.003  0.000  0.004  0.000  0.000  0.000  0.000  0.000  0.006
    4  0.000  0.003  0.000  0.004  0.000  0.000  0.000  0.000  0.000  0.006
    5  0.001  0.002  0.004  0.001  0.000  0.000  0.000  0.000  0.000  0.008
    6  0.002  0.002  0.006  0.000  0.000  0.000  0.000  0.000  0.000  0.010
    7  0.000  0.001  0.000  0.003  0.000  0.000  0.000  0.000  0.000  0.005
    8  0.001  0.002  0.004  0.001  0.000  0.000  0.000  0.000  0.000  0.008
    9  0.002  0.002  0.006  0.000  0.000  0.000  0.000  0.000  0.000  0.010
   10  0.000  0.001  0.000  0.003  0.000  0.000  0.000  0.000  0.000  0.005
tot    0.005  0.015  0.022  0.018  0.288  0.206  0.001  0.148  0.206  0.909

band    26 # energy   -3.45887757 # occ.  1.00000000

ion      s     py     pz     px    dxy    dyz    dz2    dxz  x2-y2    tot
    1  0.000  0.004  0.000  0.012  0.117  0.009  0.000  0.003  0.036  0.181
    2  0.000  0.004  0.000  0.012  0.117  0.009  0.000  0.003  0.036  0.181
    3  0.000  0.003  0.000  0.001  0.001  0.000  0.000  0.000  0.000  0.005
    4  0.000  0.003  0.000  0.001  0.001  0.000  0.000  0.000  0.000  0.005
    5  0.001  0.004  0.019  0.003  0.000  0.000  0.000  0.000  0.000  0.027
    6  0.003  0.008  0.078  0.003  0.000  0.000  0.000  0.000  0.000  0.091
    7  0.001  0.006  0.020  0.001  0.000  0.000  0.000  0.000  0.000  0.029
    8  0.001  0.004  0.019  0.003  0.000  0.000  0.000  0.000  0.000  0.027
    9  0.003  0.008  0.078  0.003  0.000  0.000  0.000  0.000  0.000  0.091
   10  0.001  0.006  0.020  0.001  0.000  0.000  0.000  0.000  0.000  0.029
tot    0.009  0.050  0.233  0.037  0.236  0.019  0.000  0.006  0.074  0.664

band    27 # energy   -3.45886585 # occ.  1.00000000

ion      s     py     pz     px    dxy    dyz    dz2    dxz  x2-y2    tot
    1  0.000  0.012  0.000  0.004  0.036  0.003  0.000  0.009  0.117  0.181
    2  0.000  0.012  0.000  0.004  0.036  0.003  0.000  0.009  0.117  0.181
    3  0.000  0.001  0.000  0.003  0.000  0.000  0.000  0.000  0.001  0.005
    4  0.000  0.001  0.000  0.003  0.000  0.000  0.000  0.000  0.001  0.005
    5  0.002  0.001  0.059  0.008  0.000  0.000  0.000  0.000  0.000  0.071
    6  0.000  0.001  0.000  0.004  0.000  0.000  0.000  0.000  0.000  0.007
    7  0.002  0.003  0.057  0.006  0.000  0.000  0.000  0.000  0.000  0.069
    8  0.002  0.001  0.059  0.008  0.000  0.000  0.000  0.000  0.000  0.071
    9  0.000  0.001  0.000  0.004  0.000  0.000  0.000  0.000  0.000  0.007
   10  0.002  0.003  0.057  0.006  0.000  0.000  0.000  0.000  0.000  0.069
tot    0.009  0.037  0.233  0.050  0.074  0.006  0.000  0.019  0.236  0.664

band    28 # energy   -3.28847478 # occ.  1.00000000

ion      s     py     pz     px    dxy    dyz    dz2    dxz  x2-y2    tot
    1  0.000  0.000  0.013  0.000  0.000  0.000  0.000  0.000  0.000  0.013
    2  0.000  0.000  0.013  0.000  0.000  0.000  0.000  0.000  0.000  0.013
    3  0.001  0.000  0.007  0.000  0.000  0.000  0.001  0.000  0.000  0.009
    4  0.001  0.000  0.007  0.000  0.000  0.000  0.001  0.000  0.000  0.009
    5  0.001  0.000  0.067  0.000  0.000  0.000  0.000  0.000  0.000  0.069
    6  0.001  0.000  0.067  0.000  0.000  0.000  0.000  0.000  0.000  0.069
    7  0.001  0.000  0.067  0.000  0.000  0.000  0.000  0.000  0.000  0.069
    8  0.001  0.000  0.067  0.000  0.000  0.000  0.000  0.000  0.000  0.069
    9  0.001  0.000  0.067  0.000  0.000  0.000  0.000  0.000  0.000  0.069
   10  0.001  0.000  0.067  0.000  0.000  0.000  0.000  0.000  0.000  0.069
tot    0.008  0.000  0.444  0.000  0.000  0.000  0.003  0.000  0.000  0.456

band    29 # energy   -2.70185541 # occ.  1.00000000

ion      s     py     pz     px    dxy    dyz    dz2    dxz  x2-y2    tot
    1  0.011  0.000  0.000  0.000  0.000  0.000  0.074  0.000  0.000  0.085
    2  0.011  0.000  0.000  0.000  0.000  0.000  0.074  0.000  0.000  0.085
    3  0.000  0.000  0.141  0.000  0.000  0.000  0.004  0.000  0.000  0.145
    4  0.000  0.000  0.141  0.000  0.000  0.000  0.004  0.000  0.000  0.145
    5  0.001  0.000  0.012  0.010  0.000  0.000  0.000  0.001  0.000  0.024
    6  0.001  0.007  0.012  0.002  0.000  0.001  0.000  0.000  0.000  0.024
    7  0.001  0.007  0.012  0.002  0.000  0.001  0.000  0.000  0.000  0.024
    8  0.001  0.000  0.012  0.010  0.000  0.000  0.000  0.001  0.000  0.024
    9  0.001  0.007  0.012  0.002  0.000  0.001  0.000  0.000  0.000  0.024
   10  0.001  0.007  0.012  0.002  0.000  0.001  0.000  0.000  0.000  0.024
tot    0.027  0.029  0.356  0.029  0.000  0.003  0.158  0.003  0.000  0.604

band    30 # energy   -2.14921815 # occ.  1.00000000

ion      s     py     pz     px    dxy    dyz    dz2    dxz  x2-y2    tot
    1  0.000  0.003  0.000  0.028  0.000  0.012  0.000  0.001  0.000  0.045
    2  0.000  0.003  0.000  0.028  0.000  0.012  0.000  0.001  0.000  0.045
    3  0.000  0.003  0.000  0.024  0.000  0.000  0.000  0.000  0.002  0.029
    4  0.000  0.003  0.000  0.024  0.000  0.000  0.000  0.000  0.002  0.029
    5  0.003  0.010  0.022  0.032  0.000  0.000  0.000  0.000  0.002  0.069
    6  0.000  0.014  0.001  0.076  0.000  0.000  0.000  0.001  0.000  0.092
    7  0.002  0.001  0.014  0.060  0.001  0.000  0.000  0.000  0.000  0.078
    8  0.003  0.010  0.022  0.032  0.000  0.000  0.000  0.000  0.002  0.069
    9  0.000  0.014  0.001  0.076  0.000  0.000  0.000  0.001  0.000  0.092
   10  0.002  0.001  0.014  0.060  0.001  0.000  0.000  0.000  0.000  0.078
tot    0.012  0.060  0.075  0.439  0.002  0.026  0.001  0.005  0.008  0.627

band    31 # energy   -2.14918151 # occ.  1.00000000

ion      s     py     pz     px    dxy    dyz    dz2    dxz  x2-y2    tot
    1  0.000  0.028  0.000  0.003  0.000  0.001  0.000  0.012  0.000  0.045
    2  0.000  0.028  0.000  0.003  0.000  0.001  0.000  0.012  0.000  0.045
    3  0.000  0.024  0.000  0.003  0.002  0.000  0.000  0.000  0.000  0.029
    4  0.000  0.024  0.000  0.003  0.002  0.000  0.000  0.000  0.000  0.029
    5  0.000  0.083  0.003  0.004  0.000  0.001  0.000  0.000  0.000  0.090
    6  0.004  0.036  0.024  0.002  0.001  0.000  0.000  0.000  0.000  0.068
    7  0.002  0.049  0.011  0.019  0.001  0.000  0.000  0.001  0.000  0.082
    8  0.000  0.083  0.003  0.004  0.000  0.001  0.000  0.000  0.000  0.090
    9  0.004  0.036  0.024  0.002  0.001  0.000  0.000  0.000  0.000  0.068