<?xml version="1.0" encoding="ISO-8859-1"?>
<modeling>
 <generator>
  <i name="program" type="string">vasp </i>
  <i name="version" type="string">5.4.4.18Apr17-6-g9f103f2a35  </i>
  <i name="subversion" type="string">(build May  1 2020 15:48:39) complex            parallel </i>
  <i name="platform" type="string">LinuxGNU </i>
  <i name="date" type="string">2020 06 14 </i>
  <i name="time" type="string">18:49:53 </i>
 </generator>
 <incar>
  <i type="int" name="ISTART">     1</i>
  <i type="string" name="PREC">accurate</i>
  <i type="string" name="ALGO"> Normal</i>
  <i type="int" name="ISPIN">     2</i>
  <i name="AMIN">      0.01000000</i>
  <i type="int" name="NELM">   400</i>
  <i type="int" name="IBRION">     2</i>
  <i name="EDIFF">      0.00010000</i>
  <i type="int" name="NSW">    99</i>
  <i type="int" name="ISIF">     3</i>
  <i name="ENCUT">    520.00000000</i>
  <v name="MAGMOM">      1.26000000      1.26000000      0.60000000      0.60000000      0.60000000      0.60000000      0.60000000      0.60000000      0.60000000      0.60000000</v>
  <i type="string" name="LREAL"> Auto</i>
  <i type="int" name="ISMEAR">    -5</i>
  <i name="SIGMA">      0.05000000</i>
  <i type="logical" name="LWAVE"> F  </i>
  <i type="int" name="LORBIT">    11</i>
  <v type="int" name="KPOINT_BSE">    -1     0     0     0</v>
  <i type="int" name="NELM">   400</i>
  <i type="string" name="GGA"> Bo</i>
  <i name="PARAM1">      0.18333333</i>
  <i name="PARAM2">      0.22000000</i>
  <i type="logical" name="LUSE_VDW"> T  </i>
  <i name="AGGAC">      0.00000000</i>
 </incar>
 <structure name="primitive_cell" >
  <crystal>
   <varray name="basis" >
    <v>       6.90777700      -0.00000000       0.00000000 </v>
    <v>       3.45388800       5.98231000       0.00000000 </v>
    <v>       0.00000000       0.00000000      23.44458800 </v>
   </varray>
   <i name="volume">    968.83501932 </i>
   <varray name="rec_basis" >
    <v>       0.14476437      -0.08357974       0.00000000 </v>
    <v>       0.00000000       0.16715951      -0.00000000 </v>
    <v>      -0.00000000       0.00000000       0.04265377 </v>
   </varray>
  </crystal>
  <varray name="positions" >
   <v>       0.33333300       0.33333300       0.49992500 </v>
   <v>       0.00042000       0.37322400      -0.42624800 </v>
   <v>      -0.37364300       0.00042000      -0.42624800 </v>
   <v>       0.37322400      -0.37364300      -0.42624800 </v>
   <v>       0.37364300      -0.00042000       0.42624800 </v>
   <v>      -0.37322400       0.37364300       0.42624800 </v>
   <v>      -0.00042000      -0.37322400       0.42624800 </v>
   <v>      -0.33333300      -0.33333300      -0.49992500 </v>
   <v>       0.00000000       0.00000000       0.44821600 </v>
   <v>       0.00000000       0.00000000      -0.44821600 </v>
  </varray>
 </structure>
 <varray name="primitive_index" >
  <v type="int" >        1 </v>
  <v type="int" >        6 </v>
  <v type="int" >        5 </v>
  <v type="int" >        7 </v>
  <v type="int" >        8 </v>
  <v type="int" >       10 </v>
  <v type="int" >        9 </v>
  <v type="int" >        2 </v>
  <v type="int" >        3 </v>
  <v type="int" >        4 </v>
 </varray>
 <kpoints>
  <generation param="Gamma">
   <v type="int" name="divisions">       5        5        1 </v>
   <v name="usershift">      0.00000000       0.00000000       0.00000000 </v>
   <v name="genvec1">      0.20000000       0.00000000       0.00000000 </v>
   <v name="genvec2">      0.00000000       0.20000000       0.00000000 </v>
   <v name="genvec3">      0.00000000       0.00000000       1.00000000 </v>
   <v name="shift">      0.00000000       0.00000000       0.00000000 </v>
  </generation>
  <varray name="kpointlist" >
   <v>       0.00000000       0.00000000       0.00000000 </v>
   <v>       0.20000000       0.00000000       0.00000000 </v>
   <v>       0.40000000       0.00000000       0.00000000 </v>
   <v>       0.40000000       0.20000000       0.00000000 </v>
   <v>      -0.40000000       0.20000000       0.00000000 </v>
  </varray>
  <varray name="weights" >
   <v>       0.04000000 </v>
   <v>       0.24000000 </v>
   <v>       0.24000000 </v>
   <v>       0.24000000 </v>
   <v>       0.24000000 </v>
  </varray>
  <varray name="tetrahedronlist"  type="int" >
   <v type="int" >        6        1        1        2        2 </v>
   <v type="int" >       12        1        2        2        2 </v>
   <v type="int" >       12        2        2        3        4 </v>
   <v type="int" >       12        2        2        2        4 </v>
   <v type="int" >       12        2        3        3        4 </v>
   <v type="int" >       12        2        3        4        4 </v>
   <v type="int" >        6        2        2        4        4 </v>
   <v type="int" >       12        3        3        3        5 </v>
   <v type="int" >       12        3        3        4        5 </v>
   <v type="int" >       12        3        4        4        5 </v>
   <v type="int" >        6        3        3        5        5 </v>
   <v type="int" >       12        3        4        5        5 </v>
   <v type="int" >        6        4        4        5        5 </v>
   <v type="int" >       12        4        5        5        5 </v>
   <v type="int" >        6        5        5        5        5 </v>
  </varray>
  <i name="volumeweight">      0.00666667 </i>
 </kpoints>
 <parameters>
  <separator name="general" >
   <i type="string" name="SYSTEM">unknown system</i>
   <i type="logical" name="LCOMPAT"> F  </i>
  </separator>
  <separator name="electronic" >
   <i type="string" name="PREC">accura</i>
   <i name="ENMAX">    520.00000000</i>
   <i name="ENAUG">    544.56500000</i>
   <i name="EDIFF">      0.00010000</i>
   <i type="int" name="IALGO">    38</i>
   <i type="int" name="IWAVPR">    11</i>
   <i type="int" name="NBANDS">    48</i>
   <i name="NELECT">     64.00000000</i>
   <i type="int" name="TURBO">     0</i>
   <i type="int" name="IRESTART">     0</i>
   <i type="int" name="NREBOOT">     0</i>
   <i type="int" name="NMIN">     0</i>
   <i name="EREF">      0.00000000</i>
   <separator name="electronic smearing" >
    <i type="int" name="ISMEAR">    -5</i>
    <i name="SIGMA">      0.05000000</i>
    <i name="KSPACING">      0.50000000</i>
    <i type="logical" name="KGAMMA"> T  </i>
   </separator>
   <separator name="electronic projectors" >
    <i type="logical" name="LREAL"> T  </i>
    <v name="ROPT">     -0.00025000     -0.00025000     -0.00025000</v>
    <i type="int" name="LMAXPAW">  -100</i>
    <i type="int" name="LMAXMIX">     2</i>
    <i type="logical" name="NLSPLINE"> F  </i>
   </separator>
   <separator name="electronic startup" >
    <i type="int" name="ISTART">     0</i>
    <i type="int" name="ICHARG">     2</i>
    <i type="int" name="INIWAV">     1</i>
   </separator>
   <separator name="electronic spin" >
    <i type="int" name="ISPIN">     2</i>
    <i type="logical" name="LNONCOLLINEAR"> F  </i>
    <v name="MAGMOM">      1.26000000      1.26000000      0.60000000      0.60000000      0.60000000      0.60000000      0.60000000      0.60000000      0.60000000      0.60000000</v>
    <i name="NUPDOWN">     -1.00000000</i>
    <i type="logical" name="LSORBIT"> F  </i>
    <v name="SAXIS">      0.00000000      0.00000000      1.00000000</v>
    <i type="logical" name="LSPIRAL"> F  </i>
    <v name="QSPIRAL">      0.00000000      0.00000000      0.00000000</v>
    <i type="logical" name="LZEROZ"> F  </i>
   </separator>
   <separator name="electronic exchange-correlation" >
    <i type="logical" name="LASPH"> F  </i>
    <i type="logical" name="LMETAGGA"> F  </i>
   </separator>
   <separator name="electronic convergence" >
    <i type="int" name="NELM">   400</i>
    <i type="int" name="NELMDL">     0</i>
    <i type="int" name="NELMIN">     2</i>
    <i name="ENINI">    520.00000000</i>
    <separator name="electronic convergence detail" >
     <i type="logical" name="LDIAG"> T  </i>
     <i type="logical" name="LSUBROT"> F  </i>
     <i name="WEIMIN">      0.00100000</i>
     <i name="EBREAK">      0.00000052</i>
     <i name="DEPER">      0.30000000</i>
     <i type="int" name="NRMM">     4</i>
     <i name="TIME">      0.40000000</i>
    </separator>
   </separator>
   <separator name="electronic mixer" >
    <i name="AMIX">      0.40000000</i>
    <i name="BMIX">      1.00000000</i>
    <i name="AMIN">      0.01000000</i>
    <i name="AMIX_MAG">      1.60000000</i>
    <i name="BMIX_MAG">      1.00000000</i>
    <separator name="electronic mixer details" >
     <i type="int" name="IMIX">     4</i>
     <i type="logical" name="MIXFIRST"> F  </i>
     <i type="int" name="MAXMIX">   -45</i>
     <i name="WC">    100.00000000</i>
     <i type="int" name="INIMIX">     1</i>
     <i type="int" name="MIXPRE">     1</i>
     <i type="int" name="MREMOVE">     5</i>
    </separator>
   </separator>
   <separator name="electronic dipolcorrection" >
    <i type="logical" name="LDIPOL"> F  </i>
    <i type="logical" name="LMONO"> F  </i>
    <i type="int" name="IDIPOL">     0</i>
    <i name="EPSILON">      1.00000000</i>
    <v name="DIPOL">   -100.00000000   -100.00000000   -100.00000000</v>
    <i name="EFIELD">      0.00000000</i>
   </separator>
  </separator>
  <separator name="grids" >
   <i type="int" name="NGX">    54</i>
   <i type="int" name="NGY">    54</i>
   <i type="int" name="NGZ">   180</i>
   <i type="int" name="NGXF">   108</i>
   <i type="int" name="NGYF">   108</i>
   <i type="int" name="NGZF">   360</i>
   <i type="logical" name="ADDGRID"> F  </i>
  </separator>
  <separator name="ionic" >
   <i type="int" name="NSW">    99</i>
   <i type="int" name="IBRION">     2</i>
   <i type="int" name="MDALGO">     0</i>
   <i type="int" name="ISIF">     3</i>
   <i name="PSTRESS">      0.00000000</i>
   <i name="EDIFFG">      0.00100000</i>
   <i type="int" name="NFREE">     1</i>
   <i name="POTIM">      0.50000000</i>
   <i name="SMASS">     -3.00000000</i>
   <i name="SCALEE">      1.00000000</i>
  </separator>
  <separator name="ionic md" >
   <i name="TEBEG">      0.00010000</i>
   <i name="TEEND">      0.00010000</i>
   <i type="int" name="NBLOCK">     1</i>
   <i type="int" name="KBLOCK">    99</i>
   <i type="int" name="NPACO">   256</i>
   <i name="APACO">     16.00000000</i>
  </separator>
  <separator name="symmetry" >
   <i type="int" name="ISYM">     2</i>
   <i name="SYMPREC">      0.00001000</i>
  </separator>
  <separator name="dos" >
   <i type="int" name="LORBIT">    11</i>
   <v name="RWIGS">     -1.00000000     -1.00000000     -1.00000000</v>
   <i type="int" name="NEDOS">   301</i>
   <i name="EMIN">     10.00000000</i>
   <i name="EMAX">    -10.00000000</i>
   <i name="EFERMI">      0.00000000</i>
  </separator>
  <separator name="writing" >
   <i type="int" name="NWRITE">     2</i>
   <i type="logical" name="LWAVE"> F  </i>
   <i type="logical" name="LDOWNSAMPLE"> F  </i>
   <i type="logical" name="LCHARG"> T  </i>
   <i type="logical" name="LPARD"> F  </i>
   <i type="logical" name="LVTOT"> F  </i>
   <i type="logical" name="LVHAR"> F  </i>
   <i type="logical" name="LELF"> F  </i>
   <i type="logical" name="LOPTICS"> F  </i>
   <v name="STM">      0.00000000      0.00000000      0.00000000      0.00000000      0.00000000      0.00000000      0.00000000</v>
  </separator>
  <separator name="performance" >
   <i type="int" name="NPAR">    24</i>
   <i type="int" name="NSIM">     4</i>
   <i type="int" name="NBLK">    -1</i>
   <i type="logical" name="LPLANE"> T  </i>
   <i type="logical" name="LSCALAPACK"> T  </i>
   <i type="logical" name="LSCAAWARE"> F  </i>
   <i type="logical" name="LSCALU"> F  </i>
   <i type="logical" name="LASYNC"> F  </i>
   <i type="logical" name="LORBITALREAL"> F  </i>
  </separator>
  <separator name="miscellaneous" >
   <i type="int" name="IDIOT">     3</i>
   <i type="int" name="ISPECIAL">     0</i>
   <i type="logical" name="LMUSIC"> F  </i>
   <v name="POMASS">     58.69000000     72.61000000    127.60000000</v>
   <v name="DARWINR">      0.00000000      0.00000000      0.00000000</v>
   <v name="DARWINV">      1.00000000      1.00000000      1.00000000</v>
   <i type="logical" name="LCORR"> T  </i>
  </separator>
  <i type="logical" name="GGA_COMPAT"> T  </i>
  <i type="logical" name="LBERRY"> F  </i>
  <i type="int" name="ICORELEVEL">     0</i>
  <i type="logical" name="LDAU"> F  </i>
  <i type="int" name="I_CONSTRAINED_M">     0</i>
  <separator name="electronic exchange-correlation" >
   <i type="string" name="GGA">BO</i>
   <i type="int" name="VOSKOWN">     0</i>
   <i type="logical" name="LHFCALC"> F  </i>
   <i type="string" name="PRECFOCK"></i>
   <i type="logical" name="LSYMGRAD"> F  </i>
   <i type="logical" name="LHFONE"> F  </i>
   <i type="logical" name="LRHFCALC"> F  </i>
   <i type="logical" name="LTHOMAS"> F  </i>
   <i type="logical" name="LMODELHF"> F  </i>
   <i name="ENCUT4O">     -1.00000000</i>
   <i type="int" name="EXXOEP">     0</i>
   <i type="int" name="FOURORBIT">     0</i>
   <i name="AEXX">      0.00000000</i>
   <i name="HFALPHA">      0.00000000</i>
   <i name="MCALPHA">      0.00000000</i>
   <i name="ALDAX">      1.00000000</i>
   <i name="AGGAX">      1.00000000</i>
   <i name="ALDAC">      1.00000000</i>
   <i name="AGGAC">      0.00000000</i>
   <i type="int" name="NKREDX">     1</i>
   <i type="int" name="NKREDY">     1</i>
   <i type="int" name="NKREDZ">     1</i>
   <i type="logical" name="SHIFTRED"> F  </i>
   <i type="logical" name="ODDONLY"> F  </i>
   <i type="logical" name="EVENONLY"> F  </i>
   <i type="int" name="LMAXFOCK">     0</i>
   <i type="int" name="NMAXFOCKAE">     0</i>
   <i type="logical" name="LFOCKAEDFT"> F  </i>
   <i name="HFSCREEN">      0.00000000</i>
   <i name="HFSCREENC">      0.00000000</i>
   <i type="int" name="NBANDSGWLOW">     0</i>
  </separator>
  <separator name="vdW DFT" >
   <i type="logical" name="LUSE_VDW"> T  </i>
   <i name="Zab_VDW">     -0.84910000</i>
   <i name="PARAM1">      0.18333333</i>
   <i name="PARAM2">      0.22000000</i>
   <i name="PARAM3">      0.00000000</i>
  </separator>
  <separator name="model GW" >
   <i type="int" name="MODEL_GW">     0</i>
   <i name="MODEL_EPS0">     58.13010116</i>
   <i name="MODEL_ALPHA">      1.00000000</i>
  </separator>
  <separator name="linear response parameters" >
   <i type="logical" name="LEPSILON"> F  </i>
   <i type="logical" name="LRPA"> F  </i>
   <i type="logical" name="LNABLA"> F  </i>
   <i type="logical" name="LVEL"> F  </i>
   <i type="int" name="KINTER">     0</i>
   <i name="CSHIFT">      0.10000000</i>
   <i name="OMEGAMAX">     -1.00000000</i>
   <i name="DEG_THRESHOLD">      0.00200000</i>
   <i name="RTIME">     -0.10000000</i>
   <i name="WPLASMAI">      0.00000000</i>
   <v name="DFIELD">      0.00000000      0.00000000      0.00000000</v>
   <v name="WPLASMA">      0.00000000      0.00000000      0.00000000      0.00000000      0.00000000      0.00000000      0.00000000      0.00000000      0.00000000</v>
  </separator>
  <separator name="orbital magnetization" >
   <i type="logical" name="NUCIND"> F  </i>
   <v name="MAGPOS">      0.00000000      0.00000000      0.00000000</v>
   <i type="logical" name="LNICSALL"> T  </i>
   <i type="logical" name="ORBITALMAG"> F  </i>
   <i type="logical" name="LMAGBLOCH"> F  </i>
   <i type="logical" name="LCHIMAG"> F  </i>
   <i type="logical" name="LGAUGE"> T  </i>
   <i type="int" name="MAGATOM">     0</i>
   <v name="MAGDIPOL">      0.00000000      0.00000000      0.00000000</v>
   <v name="AVECCONST">      0.00000000      0.00000000      0.00000000</v>
  </separator>
  <separator name="response functions" >
   <i type="logical" name="LADDER"> F  </i>
   <i type="logical" name="LRPAFORCE"> F  </i>
   <i type="logical" name="LFXC"> F  </i>
   <i type="logical" name="LHARTREE"> T  </i>
   <i type="int" name="IBSE">     0</i>
   <v type="int" name="KPOINT">    -1     0     0     0</v>
   <i type="logical" name="LTCTE"> F  </i>
   <i type="logical" name="LTETE"> F  </i>
   <i type="logical" name="LTRIPLET"> F  </i>
   <i type="logical" name="LFXCEPS"> F  </i>
   <i type="logical" name="LFXHEG"> F  </i>
   <i type="int" name="NATURALO">     2</i>
   <i type="logical" name="L2ORDER"> F  </i>
   <i type="logical" name="LMP2LT"> F  </i>
   <i type="logical" name="LUSEW"> F  </i>
   <i name="ENCUTGW">     -2.00000000</i>
   <i name="ENCUTGWSOFT">     -2.00000000</i>
   <i name="ENCUTLF">     -1.00000000</i>
   <i type="int" name="LMAXMP2">    -1</i>
   <i name="SCISSOR">      0.00000000</i>
   <i type="int" name="NOMEGA">     0</i>
   <i type="int" name="NOMEGAR">     0</i>
   <i type="int" name="NBANDSGW">    -1</i>
   <i type="int" name="NBANDSO">    -1</i>
   <i type="int" name="NBANDSV">    -1</i>
   <i type="int" name="NELM">   400</i>
   <i type="int" name="NELMHF">     1</i>
   <i type="int" name="DIM">     3</i>
   <i type="int" name="ANTIRES">     0</i>
   <i name="OMEGAMAX">    -30.00000000</i>
   <i name="OMEGAMIN">    -30.00000000</i>
   <i name="OMEGATL">   -200.00000000</i>
   <i type="int" name="OMEGAGRID">   140</i>
   <i name="CSHIFT">     -0.10000000</i>
   <i type="logical" name="SELFENERGY"> F  </i>
   <i type="logical" name="LSPECTRAL"> F  </i>
   <i type="logical" name="LSPECTRALGW"> F  </i>
   <i type="logical" name="LSINGLES"> F  </i>
   <i type="logical" name="LFERMIGW"> F  </i>
   <i type="logical" name="ODDONLYGW"> F  </i>
   <i type="logical" name="EVENONLYGW"> F  </i>
   <i type="int" name="NKREDLFX">     1</i>
   <i type="int" name="NKREDLFY">     1</i>
   <i type="int" name="NKREDLFZ">     1</i>
   <i type="int" name="MAXMEM">  2800</i>
   <i type="int" name="TELESCOPE">     0</i>
   <i type="int" name="TAUPAR">     1</i>
   <i type="int" name="OMEGAPAR">    -1</i>
   <i name="LAMBDA">      1.00000000</i>
  </separator>
  <separator name="External order field" >
   <i name="OFIELD_KAPPA">      0.00000000</i>
   <v name="OFIELD_K">      0.00000000      0.00000000      0.00000000</v>
   <i name="OFIELD_Q6_NEAR">      0.00000000</i>
   <i name="OFIELD_Q6_FAR">      0.00000000</i>
   <i name="OFIELD_A">      0.00000000</i>
  </separator>
 </parameters>
 <atominfo>
  <atoms>      10 </atoms>
  <types>       3 </types>
  <array name="atoms" >
   <dimension dim="1">ion</dimension>
   <field type="string">element</field>
   <field type="int">atomtype</field>
   <set>
    <rc><c>Ni</c><c>   1</c></rc>
    <rc><c>Ni</c><c>   1</c></rc>
    <rc><c>Ge</c><c>   2</c></rc>
    <rc><c>Ge</c><c>   2</c></rc>
    <rc><c>Te</c><c>   3</c></rc>
    <rc><c>Te</c><c>   3</c></rc>
    <rc><c>Te</c><c>   3</c></rc>
    <rc><c>Te</c><c>   3</c></rc>
    <rc><c>Te</c><c>   3</c></rc>
    <rc><c>Te</c><c>   3</c></rc>
   </set>
  </array>
  <array name="atomtypes" >
   <dimension dim="1">type</dimension>
   <field type="int">atomspertype</field>
   <field type="string">element</field>
   <field>mass</field>
   <field>valence</field>
   <field type="string">pseudopotential</field>
   <set>
    <rc><c>   2</c><c>Ni</c><c>     58.69000000</c><c>     10.00000000</c><c> PAW_PBE Ni 06Sep2000                   </c></rc>
    <rc><c>   2</c><c>Ge</c><c>     72.61000000</c><c>      4.00000000</c><c> PAW_PBE Ge 05Jan2001                   </c></rc>
    <rc><c>   6</c><c>Te</c><c>    127.60000000</c><c>      6.00000000</c><c> PAW_PBE Te 08Apr2002                   </c></rc>
   </set>
  </array>
 </atominfo>
 <structure name="initialpos" >
  <crystal>
   <varray name="basis" >
    <v>       6.90777700      -0.00000000       0.00000000 </v>
    <v>       3.45388800       5.98231000       0.00000000 </v>
    <v>       0.00000000       0.00000000      23.44458800 </v>
   </varray>
   <i name="volume">    968.83501932 </i>
   <varray name="rec_basis" >
    <v>       0.14476437      -0.08357974       0.00000000 </v>
    <v>       0.00000000       0.16715951      -0.00000000 </v>
    <v>      -0.00000000       0.00000000       0.04265377 </v>
   </varray>
  </crystal>
  <varray name="positions" >
   <v>       0.33333300       0.33333300       0.49992500 </v>
   <v>       0.66666700       0.66666700       0.50007500 </v>
   <v>       0.00000000       0.00000000       0.44821600 </v>
   <v>       0.00000000       0.00000000       0.55178400 </v>
   <v>       0.62635700       0.00042000       0.57375200 </v>
   <v>       0.00042000       0.37322400       0.57375200 </v>
   <v>       0.37322400       0.62635700       0.57375200 </v>
   <v>       0.37364300       0.99958000       0.42624800 </v>
   <v>       0.99958000       0.62677600       0.42624800 </v>
   <v>       0.62677600       0.37364300       0.42624800 </v>
  </varray>
 </structure>
 <calculation>
  <scstep>
   <time name="dav">   21.04   32.03</time>
   <time name="total">   59.80   91.62</time>
   <energy>
    <i name="alphaZ">     21.34835156 </i>
    <i name="ewald">   8065.03639907 </i>
    <i name="hartreedc"> -11433.05750364 </i>
    <i name="XCdc">   -129.46728229 </i>
    <i name="pawpsdc">   2452.34597429 </i>
    <i name="pawaedc">  -2314.73340510 </i>
    <i name="eentropy">      0.00000000 </i>
    <i name="bandstr">     -6.23667204 </i>
    <i name="atom">   3722.34104111 </i>
    <i name="e_fr_energy">    377.57690295 </i>
    <i name="e_wo_entrp">    377.57690295 </i>
    <i name="e_0_energy">    377.57690295 </i>
   </energy>
  </scstep>
  <scstep>
   <time name="dav">   24.97   39.38</time>
   <time name="total">   24.98   39.39</time>
   <energy>
    <i name="e_fr_energy">      4.80126883 </i>
    <i name="e_wo_entrp">      4.80126883 </i>
    <i name="e_0_energy">      4.80126883 </i>
   </energy>
  </scstep>
  <scstep>
   <time name="dav">   26.80   40.76</time>
   <time name="total">   26.80   40.78</time>
   <energy>
    <i name="e_fr_energy">    -31.76805481 </i>
    <i name="e_wo_entrp">    -31.76805481 </i>
    <i name="e_0_energy">    -31.76805481 </i>
   </energy>
  </scstep>
  <scstep>
   <time name="dav">   27.20   41.17</time>
   <time name="total">   27.21   41.19</time>
   <energy>
    <i name="e_fr_energy">    -32.85896267 </i>
    <i name="e_wo_entrp">    -32.85896267 </i>
    <i name="e_0_energy">    -32.85896267 </i>
   </energy>
  </scstep>
  <scstep>
   <time name="dav">   30.70   45.12</time>
   <time name="total">   32.45   47.75</time>
   <energy>
    <i name="e_fr_energy">    -32.86949808 </i>
    <i name="e_wo_entrp">    -32.86949808 </i>
    <i name="e_0_energy">    -32.86949808 </i>
   </energy>
  </scstep>
  <scstep>
   <time name="dav">   23.89   35.49</time>
   <time name="total">   65.36   97.73</time>
   <energy>
    <i name="e_fr_energy">    -45.18736804 </i>
    <i name="e_wo_entrp">    -45.18736804 </i>
    <i name="e_0_energy">    -45.18736804 </i>
   </energy>
  </scstep>
  <scstep>
   <time name="dav">   22.38   33.67</time>
   <time name="total">   63.83   96.17</time>
   <energy>
    <i name="e_fr_energy">    -31.17757132 </i>
    <i name="e_wo_entrp">    -31.17757132 </i>
    <i name="e_0_energy">    -31.17757132 </i>
   </energy>
  </scstep>
  <scstep>
   <time name="dav">   28.13   40.83</time>
   <time name="total">   68.18  102.50</time>
   <energy>
    <i name="e_fr_energy">    -31.37995920 </i>
    <i name="e_wo_entrp">    -31.37995920 </i>
    <i name="e_0_energy">    -31.37995920 </i>
   </energy>
  </scstep>
  <scstep>
   <time name="dav">   20.28   30.98</time>
   <time name="total">   61.36   93.38</time>
   <energy>
    <i name="e_fr_energy">    -31.32621533 </i>
    <i name="e_wo_entrp">    -31.32621533 </i>
    <i name="e_0_energy">    -31.32621533 </i>
   </energy>
  </scstep>
  <scstep>
   <time name="dav">   26.02   38.69</time>
   <time name="total">   66.94  101.03</time>
   <energy>
    <i name="e_fr_energy">    -31.11743242 </i>
    <i name="e_wo_entrp">    -31.11743242 </i>
    <i name="e_0_energy">    -31.11743242 </i>
   </energy>
  </scstep>
  <scstep>
   <time name="dav">   24.46   37.54</time>
   <time name="total">   65.42   98.99</time>
   <energy>
    <i name="e_fr_energy">    -31.26870560 </i>
    <i name="e_wo_entrp">    -31.26870560 </i>
    <i name="e_0_energy">    -31.26870560 </i>
   </energy>
  </scstep>
  <scstep>
   <time name="dav">   20.91   32.73</time>
   <time name="total">   61.83   94.16</time>
   <energy>
    <i name="e_fr_energy">    -31.37509695 </i>
    <i name="e_wo_entrp">    -31.37509695 </i>
    <i name="e_0_energy">    -31.37509695 </i>
   </energy>
  </scstep>
  <scstep>
   <time name="dav">   21.06   31.38</time>
   <time name="total">   63.06   94.14</time>
   <energy>
    <i name="e_fr_energy">    -31.43215131 </i>
    <i name="e_wo_entrp">    -31.43215131 </i>
    <i name="e_0_energy">    -31.43215131 </i>
   </energy>
  </scstep>
  <scstep>
   <time name="dav">   19.89   30.38</time>
   <time name="total">   60.27   91.77</time>
   <energy>
    <i name="e_fr_energy">    -31.44021178 </i>
    <i name="e_wo_entrp">    -31.44021178 </i>
    <i name="e_0_energy">    -31.44021178 </i>
   </energy>
  </scstep>
  <scstep>
   <time name="dav">   20.33   30.81</time>
   <time name="total">   60.86   92.91</time>
   <energy>
    <i name="e_fr_energy">    -31.44105004 </i>
    <i name="e_wo_entrp">    -31.44105004 </i>
    <i name="e_0_energy">    -31.44105004 </i>
   </energy>
  </scstep>
  <scstep>
   <time name="dav">   23.09   34.78</time>
   <time name="total">   64.52   96.07</time>
   <energy>
    <i name="e_fr_energy">    -31.44119615 </i>
    <i name="e_wo_entrp">    -31.44119615 </i>
    <i name="e_0_energy">    -31.44119615 </i>
   </energy>
  </scstep>
  <scstep>
   <time name="dav">   21.11   32.22</time>
   <time name="total">   61.95   94.63</time>
   <energy>
    <i name="e_fr_energy">    -31.44204312 </i>
    <i name="e_wo_entrp">    -31.44204312 </i>
    <i name="e_0_energy">    -31.44204312 </i>
   </energy>
  </scstep>
  <scstep>
   <time name="dav">   18.92   27.75</time>
   <time name="total">   60.37   90.08</time>
   <energy>
    <i name="e_fr_energy">    -31.44300267 </i>
    <i name="e_wo_entrp">    -31.44300267 </i>
    <i name="e_0_energy">    -31.44300267 </i>
   </energy>
  </scstep>
  <scstep>
   <time name="dav">   19.58   30.56</time>
   <time name="total">   60.60   92.55</time>
   <energy>
    <i name="e_fr_energy">    -31.44337131 </i>
    <i name="e_wo_entrp">    -31.44337131 </i>
    <i name="e_0_energy">    -31.44337131 </i>
   </energy>
  </scstep>
  <scstep>
   <time name="dav">   19.65   30.12</time>
   <time name="total">   59.20   91.33</time>
   <energy>
    <i name="e_fr_energy">    -31.44353294 </i>
    <i name="e_wo_entrp">    -31.44353294 </i>
    <i name="e_0_energy">    -31.44353294 </i>
   </energy>
  </scstep>
  <scstep>
   <time name="dav">   18.94   28.79</time>
   <time name="total">   58.53   88.39</time>
   <energy>
    <i name="alphaZ">     21.34835156 </i>
    <i name="ewald">   8065.03639907 </i>
    <i name="hartreedc"> -11431.30724604 </i>
    <i name="XCdc">   -130.09302551 </i>
    <i name="pawpsdc">   2523.12654176 </i>
    <i name="pawaedc">  -2387.46662544 </i>
    <i name="eentropy">      0.00000000 </i>
    <i name="bandstr">   -414.42904972 </i>
    <i name="atom">   3722.34104111 </i>
    <i name="e_fr_energy">    -31.44361322 </i>
    <i name="e_wo_entrp">    -31.44361322 </i>
    <i name="e_0_energy">    -31.44361322 </i>
   </energy>
  </scstep>
  <structure>
   <crystal>
    <varray name="basis" >
     <v>       6.90777700      -0.00000000       0.00000000 </v>
     <v>       3.45388800       5.98231000       0.00000000 </v>
     <v>       0.00000000       0.00000000      23.44458800 </v>
    </varray>
    <i name="volume">    968.83501932 </i>
    <varray name="rec_basis" >
     <v>       0.14476437      -0.08357974       0.00000000 </v>
     <v>       0.00000000       0.16715951      -0.00000000 </v>
     <v>      -0.00000000       0.00000000       0.04265377 </v>
    </varray>
   </crystal>
   <varray name="positions" >
    <v>       0.33333300       0.33333300       0.49992500 </v>
    <v>       0.66666700       0.66666700       0.50007500 </v>
    <v>       0.00000000       0.00000000       0.44821600 </v>
    <v>       0.00000000       0.00000000       0.55178400 </v>
    <v>       0.62635700       0.00042000       0.57375200 </v>
    <v>       0.00042000       0.37322400       0.57375200 </v>
    <v>       0.37322400       0.62635700       0.57375200 </v>
    <v>       0.37364300       0.99958000       0.42624800 </v>
    <v>       0.99958000       0.62677600       0.42624800 </v>
    <v>       0.62677600       0.37364300       0.42624800 </v>
   </varray>
  </structure>
  <varray name="forces" >
   <v>       0.00000000       0.00000000       0.00390346 </v>
   <v>       0.00000000      -0.00000000      -0.00390346 </v>
   <v>       0.00000000       0.00000000      -0.34524579 </v>
   <v>       0.00000000      -0.00000000       0.34524579 </v>
   <v>      -0.43303950      -0.00583173      -0.55777985 </v>
   <v>       0.21146929       0.37793905      -0.55777985 </v>
   <v>       0.22157021      -0.37210732      -0.55777985 </v>
   <v>       0.43303950       0.00583173       0.55777985 </v>
   <v>      -0.21146929      -0.37793905       0.55777985 </v>
   <v>      -0.22157021       0.37210732       0.55777985 </v>
  </varray>
  <varray name="stress" >
   <v>      -7.75060816       0.00000405       0.00000000 </v>
   <v>      -0.00000276      -7.75060721      -0.00000000 </v>
   <v>      -0.00000000       0.00000000      -7.66018138 </v>
  </varray>
  <energy>
   <i name="e_fr_energy">    -31.44361322 </i>
   <i name="e_wo_entrp">    -31.44361322 </i>
   <i name="e_0_energy">      0.00000000 </i>
  </energy>
  <time name="totalsc"> 1288.65 1950.13</time>
 </calculation>
 <calculation>
  <scstep>
   <time name="dav">   23.58   35.60</time>
   <time name="total">   64.58   97.61</time>
   <energy>
    <i name="alphaZ">     22.85829662 </i>
    <i name="ewald">   8321.89270562 </i>
    <i name="hartreedc"> -11765.82619039 </i>
    <i name="XCdc">   -126.96855430 </i>
    <i name="pawpsdc">   2523.15849551 </i>
    <i name="pawaedc">  -2387.51455504 </i>
    <i name="eentropy">      0.00000000 </i>
    <i name="bandstr">   -345.44730790 </i>
    <i name="atom">   3722.34104111 </i>
    <i name="e_fr_energy">    -35.50606877 </i>
    <i name="e_wo_entrp">    -35.50606877 </i>
    <i name="e_0_energy">    -35.50606877 </i>
   </energy>
  </scstep>
  <scstep>
   <time name="dav">   20.68   31.02</time>
   <time name="total">   61.76   93.71</time>
   <energy>
    <i name="e_fr_energy">    -53.75391779 </i>
    <i name="e_wo_entrp">    -53.75391779 </i>
    <i name="e_0_energy">    -53.75391779 </i>
   </energy>
  </scstep>
  <scstep>
   <time name="dav">   22.32   33.02</time>
   <time name="total">   63.21   95.70</time>
   <energy>
    <i name="e_fr_energy">    -32.49048000 </i>
    <i name="e_wo_entrp">    -32.49048000 </i>
    <i name="e_0_energy">    -32.49048000 </i>
   </energy>
  </scstep>
  <scstep>
   <time name="dav">   26.64   40.25</time>
   <time name="total">   68.52  102.16</time>
   <energy>
    <i name="e_fr_energy">    -32.48539013 </i>
    <i name="e_wo_entrp">    -32.48539013 </i>
    <i name="e_0_energy">    -32.48539013 </i>
   </energy>
  </scstep>
  <scstep>
   <time name="dav">   23.97   37.24</time>
   <time name="total">   65.25   99.66</time>
   <energy>
    <i name="e_fr_energy">    -31.70920318 </i>
    <i name="e_wo_entrp">    -31.70920318 </i>
    <i name="e_0_energy">    -31.70920318 </i>
   </energy>
  </scstep>
  <scstep>
   <time name="dav">   26.64   39.14</time>
   <time name="total">   67.84  101.94</time>
   <energy>
    <i name="e_fr_energy">    -31.75859559 </i>
    <i name="e_wo_entrp">    -31.75859559 </i>
    <i name="e_0_energy">    -31.75859559 </i>
   </energy>
  </scstep>
  <scstep>
   <time name="dav">   22.48   34.49</time>
   <time name="total">   63.26   96.63</time>
   <energy>
    <i name="e_fr_energy">    -31.71878264 </i>
    <i name="e_wo_entrp">    -31.71878264 </i>
    <i name="e_0_energy">    -31.71878264 </i>
   </energy>
  </scstep>
  <scstep>
   <time name="dav">   22.52   33.62</time>
   <time name="total">   62.72   96.78</time>
   <energy>
    <i name="e_fr_energy">    -31.73132740 </i>
    <i name="e_wo_entrp">    -31.73132740 </i>
    <i name="e_0_energy">    -31.73132740 </i>
   </energy>
  </scstep>
  <scstep>
   <time name="dav">   23.41   35.97</time>
   <time name="total">   64.29   98.34</time>
   <energy>
    <i name="e_fr_energy">    -31.73365252 </i>
    <i name="e_wo_entrp">    -31.73365252 </i>
    <i name="e_0_energy">    -31.73365252 </i>
   </energy>
  </scstep>
  <scstep>
   <time name="dav">   21.36   32.17</time>
   <time name="total">   61.79   92.83</time>
   <energy>
    <i name="e_fr_energy">    -31.73241539 </i>
    <i name="e_wo_entrp">    -31.73241539 </i>
    <i name="e_0_energy">    -31.73241539 </i>
   </energy>
  </scstep>
  <scstep>
   <time name="dav">   22.84   33.33</time>
   <time name="total">   64.24   95.22</time>
   <energy>
    <i name="e_fr_energy">    -31.73657098 </i>
    <i name="e_wo_entrp">    -31.73657098 </i>
    <i name="e_0_energy">    -31.73657098 </i>
   </energy>
  </scstep>
  <scstep>
   <time name="dav">   22.02   33.92</time>
   <time name="total">   64.48   96.65</time>
   <energy>
    <i name="e_fr_energy">    -31.73371025 </i>
    <i name="e_wo_entrp">    -31.73371025 </i>
    <i name="e_0_energy">    -31.73371025 </i>
   </energy>
  </scstep>
  <scstep>
   <time name="dav">   24.22   37.09</time>
   <time name="total">   66.41  100.83</time>
   <energy>
    <i name="e_fr_energy">    -31.73414357 </i>
    <i name="e_wo_entrp">    -31.73414357 </i>
    <i name="e_0_energy">    -31.73414357 </i>
   </energy>
  </scstep>
  <scstep>
   <time name="dav">   23.19   33.38</time>
   <time name="total">   64.26   95.45</time>
   <energy>
    <i name="e_fr_energy">    -31.73433814 </i>
    <i name="e_wo_entrp">    -31.73433814 </i>
    <i name="e_0_energy">    -31.73433814 </i>
   </energy>
  </scstep>
  <scstep>
   <time name="dav">   19.80   29.08</time>
   <time name="total">   60.18   90.77</time>
   <energy>
    <i name="e_fr_energy">    -31.73449123 </i>
    <i name="e_wo_entrp">    -31.73449123 </i>
    <i name="e_0_energy">    -31.73449123 </i>
   </energy>
  </scstep>
  <scstep>
   <time name="dav">   17.46   26.40</time>
   <time name="total">   56.72   85.28</time>
   <energy>
    <i name="alphaZ">     22.85829662 </i>
    <i name="ewald">   8321.89270562 </i>
    <i name="hartreedc"> -11701.09877954 </i>
    <i name="XCdc">   -128.81144289 </i>
    <i name="pawpsdc">   2564.92930934 </i>
    <i name="pawaedc">  -2429.98901609 </i>
    <i name="eentropy">      0.00000000 </i>
    <i name="bandstr">   -403.85665939 </i>
    <i name="atom">   3722.34104111 </i>
    <i name="e_fr_energy">    -31.73454521 </i>
    <i name="e_wo_entrp">    -31.73454521 </i>
    <i name="e_0_energy">    -31.73454521 </i>
   </energy>
  </scstep>
  <structure>
   <crystal>
    <varray name="basis" >
     <v>       6.75159013       0.00000008       0.00000000 </v>
     <v>       3.37579453       5.84704827      -0.00000000 </v>
     <v>      -0.00000000       0.00000000      22.92068354 </v>
    </varray>
    <i name="volume">    904.83691481 </i>
    <varray name="rec_basis" >
     <v>       0.14811326      -0.08551322       0.00000000 </v>
     <v>      -0.00000000       0.17102647      -0.00000000 </v>
     <v>      -0.00000000       0.00000000       0.04362872 </v>
    </varray>
   </crystal>
   <varray name="positions" >
    <v>       0.33333300       0.33333300       0.49993303 </v>
    <v>       0.66666700       0.66666700       0.50006697 </v>
    <v>       0.00000000       0.00000000       0.44750558 </v>
    <v>       0.00000000      -0.00000000       0.55249442 </v>
    <v>       0.62335625       0.00037297       0.57260424 </v>
    <v>       0.00037297       0.37627178       0.57260424 </v>
    <v>       0.37627178       0.62335625       0.57260424 </v>
    <v>       0.37664375       0.99962703       0.42739576 </v>
    <v>       0.99962703       0.62372822       0.42739576 </v>
    <v>       0.62372822       0.37664375       0.42739576 </v>
   </varray>
  </structure>
  <varray name="forces" >
   <v>      -0.00000000       0.00000000      -0.00006513 </v>
   <v>      -0.00000000       0.00000000       0.00006513 </v>
   <v>      -0.00000000       0.00000000      -0.54576107 </v>
   <v>      -0.00000000       0.00000000       0.54576107 </v>
   <v>      -0.63924581      -0.00720457      -0.19829756 </v>
   <v>       0.31338352       0.55720536      -0.19829756 </v>
   <v>       0.32586229      -0.55000079      -0.19829756 </v>
   <v>       0.63924581       0.00720457       0.19829756 </v>
   <v>      -0.31338352      -0.55720536       0.19829756 </v>
   <v>      -0.32586229       0.55000079       0.19829756 </v>
  </varray>
  <varray name="stress" >
   <v>       3.65172262      -0.00000137       0.00000000 </v>
   <v>       0.00000078       3.65172220      -0.00000000 </v>
   <v>       0.00000000       0.00000000      -1.71588139 </v>
  </varray>
  <energy>
   <i name="e_fr_energy">    -31.73454521 </i>
   <i name="e_wo_entrp">    -31.73454521 </i>
   <i name="e_0_energy">      0.00000000 </i>
  </energy>
  <time name="totalsc"> 1118.92 1692.03</time>
 </calculation>
 <calculation>
  <scstep>
   <time name="dav">   21.81   32.16</time>
   <time name="total">   61.61   93.33</time>
   <energy>
    <i name="alphaZ">     23.01800946 </i>
    <i name="ewald">   8348.56827969 </i>
    <i name="hartreedc"> -11735.04890625 </i>
    <i name="XCdc">   -128.49404104 </i>
    <i name="pawpsdc">   2565.09853092 </i>
    <i name="pawaedc">  -2430.14171005 </i>
    <i name="eentropy">      0.00000000 </i>
    <i name="bandstr">   -397.11469499 </i>
    <i name="atom">   3722.34104111 </i>
    <i name="e_fr_energy">    -31.77349115 </i>
    <i name="e_wo_entrp">    -31.77349115 </i>
    <i name="e_0_energy">    -31.77349115 </i>
   </energy>
  </scstep>
  <scstep>
   <time name="dav">   21.29   32.55</time>
   <time name="total">   62.01   94.57</time>
   <energy>
    <i name="e_fr_energy">    -32.04681362 </i>
    <i name="e_wo_entrp">    -32.04681362 </i>
    <i name="e_0_energy">    -32.04681362 </i>
   </energy>
  </scstep>
  <scstep>
   <time name="dav">   21.51   33.02</time>
   <time name="total">   63.23   95.07</time>
   <energy>
    <i name="e_fr_energy">    -31.73808004 </i>
    <i name="e_wo_entrp">    -31.73808004 </i>
    <i name="e_0_energy">    -31.73808004 </i>
   </energy>
  </scstep>
  <scstep>
   <time name="dav">   21.52   32.67</time>
   <time name="total">   62.38   93.38</time>
   <energy>
    <i name="e_fr_energy">    -31.73642242 </i>
    <i name="e_wo_entrp">    -31.73642242 </i>
    <i name="e_0_energy">    -31.73642242 </i>
   </energy>
  </scstep>
  <scstep>
   <time name="dav">   26.76   40.90</time>
   <time name="total">   67.44  102.83</time>
   <energy>
    <i name="e_fr_energy">    -31.73588784 </i>
    <i name="e_wo_entrp">    -31.73588784 </i>
    <i name="e_0_energy">    -31.73588784 </i>
   </energy>
  </scstep>
  <scstep>
   <time name="dav">   22.87   34.80</time>
   <time name="total">   61.06   93.96</time>
   <energy>
    <i name="alphaZ">     23.01800946 </i>
    <i name="ewald">   8348.56827969 </i>
    <i name="hartreedc"> -11728.62990228 </i>
    <i name="XCdc">   -128.66341123 </i>
    <i name="pawpsdc">   2568.65615304 </i>
    <i name="pawaedc">  -2433.80428105 </i>
    <i name="eentropy">      0.00000000 </i>
    <i name="bandstr">   -403.22181103 </i>
    <i name="atom">   3722.34104111 </i>
    <i name="e_fr_energy">    -31.73592230 </i>
    <i name="e_wo_entrp">    -31.73592230 </i>
    <i name="e_0_energy">    -31.73592230 </i>
   </energy>
  </scstep>
  <structure>
   <crystal>
    <varray name="basis" >
     <v>       6.73587583       0.00000009       0.00000000 </v>
     <v>       3.36793737       5.83343929      -0.00000000 </v>
     <v>      -0.00000000       0.00000000      22.86797237 </v>
    </varray>
    <i name="volume">    898.55861045 </i>
    <varray name="rec_basis" >
     <v>       0.14845879      -0.08571272       0.00000000 </v>
     <v>      -0.00000000       0.17142546      -0.00000000 </v>
     <v>      -0.00000000       0.00000000       0.04372928 </v>
    </varray>
   </crystal>
   <varray name="positions" >
    <v>       0.33333300       0.33333300       0.49993386 </v>
    <v>       0.66666700       0.66666700       0.50006614 </v>
    <v>       0.00000000       0.00000000       0.44743247 </v>
    <v>       0.00000000      -0.00000000       0.55256753 </v>
    <v>       0.62304735       0.00036813       0.57248612 </v>
    <v>       0.00036813       0.37658552       0.57248612 </v>
    <v>       0.37658552       0.62304735       0.57248612 </v>
    <v>       0.37695265       0.99963187       0.42751388 </v>
    <v>       0.99963187       0.62341448       0.42751388 </v>
    <v>       0.62341448       0.37695265       0.42751388 </v>
   </varray>
  </structure>
  <varray name="forces" >
   <v>      -0.00000000       0.00000000      -0.00088371 </v>
   <v>      -0.00000000      -0.00000000       0.00088371 </v>
   <v>      -0.00000000      -0.00000000      -0.54940542 </v>
   <v>      -0.00000000       0.00000000       0.54940542 </v>
   <v>      -0.65182835      -0.00695426      -0.14520071 </v>
   <v>       0.31989156       0.56797701      -0.14520071 </v>
   <v>       0.33193679      -0.56102274      -0.14520071 </v>
   <v>       0.65182835       0.00695426       0.14520071 </v>
   <v>      -0.31989156      -0.56797701       0.14520071 </v>
   <v>      -0.33193679       0.56102274       0.14520071 </v>
  </varray>
  <varray name="stress" >
   <v>       5.25031622      -0.00000206      -0.00000000 </v>
   <v>       0.00000123       5.25031561       0.00000000 </v>
   <v>      -0.00000000       0.00000000      -0.64317597 </v>
  </varray>
  <energy>
   <i name="e_fr_energy">    -31.73592230 </i>
   <i name="e_wo_entrp">    -31.73592230 </i>
   <i name="e_0_energy">      0.00000000 </i>
  </energy>
  <time name="totalsc">  478.48  725.38</time>
 </calculation>
 <calculation>
  <scstep>
   <time name="dav">   21.48   33.74</time>
   <time name="total">   63.17   95.59</time>
   <energy>
    <i name="alphaZ">     23.21677518 </i>
    <i name="ewald">   8178.83243241 </i>
    <i name="hartreedc"> -11580.70248854 </i>
    <i name="XCdc">   -128.19180102 </i>
    <i name="pawpsdc">   2569.08955543 </i>
    <i name="pawaedc">  -2434.25533994 </i>
    <i name="eentropy">      0.00000000 </i>
    <i name="bandstr">   -382.32655523 </i>
    <i name="atom">   3722.34104111 </i>
    <i name="e_fr_energy">    -31.99638060 </i>
    <i name="e_wo_entrp">    -31.99638060 </i>
    <i name="e_0_energy">    -31.99638060 </i>
   </energy>
  </scstep>
  <scstep>
   <time name="dav">   21.60   32.75</time>
   <time name="total">   62.51   94.46</time>
   <energy>
    <i name="e_fr_energy">    -32.45624355 </i>
    <i name="e_wo_entrp">    -32.45624355 </i>
    <i name="e_0_energy">    -32.45624355 </i>
   </energy>
  </scstep>
  <scstep>
   <time name="dav">   22.28   34.25</time>
   <time name="total">   65.42   96.59</time>
   <energy>
    <i name="e_fr_energy">    -31.91873724 </i>
    <i name="e_wo_entrp">    -31.91873724 </i>
    <i name="e_0_energy">    -31.91873724 </i>
   </energy>
  </scstep>
  <scstep>
   <time name="dav">   19.88   31.24</time>
   <time name="total">   61.88   94.25</time>
   <energy>
    <i name="e_fr_energy">    -31.89718428 </i>
    <i name="e_wo_entrp">    -31.89718428 </i>
    <i name="e_0_energy">    -31.89718428 </i>
   </energy>
  </scstep>
  <scstep>
   <time name="dav">   24.25   36.84</time>
   <time name="total">   64.64   99.50</time>
   <energy>
    <i name="e_fr_energy">    -31.89430513 </i>
    <i name="e_wo_entrp">    -31.89430513 </i>
    <i name="e_0_energy">    -31.89430513 </i>
   </energy>
  </scstep>
  <scstep>
   <time name="dav">   21.48   32.74</time>
   <time name="total">   63.41   94.60</time>
   <energy>
    <i name="e_fr_energy">    -31.89517677 </i>
    <i name="e_wo_entrp">    -31.89517677 </i>
    <i name="e_0_energy">    -31.89517677 </i>
   </energy>
  </scstep>
  <scstep>
   <time name="dav">   20.28   32.19</time>
   <time name="total">   61.61   94.21</time>
   <energy>
    <i name="e_fr_energy">    -31.89601157 </i>
    <i name="e_wo_entrp">    -31.89601157 </i>
    <i name="e_0_energy">    -31.89601157 </i>
   </energy>
  </scstep>
  <scstep>
   <time name="dav">   21.17   31.76</time>
   <time name="total">   61.90   94.02</time>
   <energy>
    <i name="e_fr_energy">    -31.89703405 </i>
    <i name="e_wo_entrp">    -31.89703405 </i>
    <i name="e_0_energy">    -31.89703405 </i>
   </energy>
  </scstep>
  <scstep>
   <time name="dav">   23.67   34.43</time>
   <time name="total">   64.96   96.76</time>
   <energy>
    <i name="e_fr_energy">    -31.89796216 </i>
    <i name="e_wo_entrp">    -31.89796216 </i>
    <i name="e_0_energy">    -31.89796216 </i>
   </energy>
  </scstep>
  <scstep>
   <time name="dav">   21.12   32.68</time>
   <time name="total">   62.44   95.38</time>
   <energy>
    <i name="e_fr_energy">    -31.89829117 </i>
    <i name="e_wo_entrp">    -31.89829117 </i>
    <i name="e_0_energy">    -31.89829117 </i>
   </energy>
  </scstep>
  <scstep>
   <time name="dav">   23.56   35.04</time>
   <time name="total">   63.25   95.75</time>
   <energy>
    <i name="e_fr_energy">    -31.89813834 </i>
    <i name="e_wo_entrp">    -31.89813834 </i>
    <i name="e_0_energy">    -31.89813834 </i>
   </energy>
  </scstep>
  <scstep>
   <time name="dav">   18.60   28.75</time>
   <time name="total">   60.61   91.45</time>
   <energy>
    <i name="e_fr_energy">    -31.89783071 </i>
    <i name="e_wo_entrp">    -31.89783071 </i>
    <i name="e_0_energy">    -31.89783071 </i>
   </energy>
  </scstep>
  <scstep>
   <time name="dav">   21.00   30.19</time>
   <time name="total">   61.01   92.29</time>
   <energy>
    <i name="e_fr_energy">    -31.89762429 </i>
    <i name="e_wo_entrp">    -31.89762429 </i>
    <i name="e_0_energy">    -31.89762429 </i>
   </energy>
  </scstep>
  <scstep>
   <time name="dav">   18.62   28.94</time>
   <time name="total">   57.44   88.94</time>
   <energy>
    <i name="alphaZ">     23.21677518 </i>
    <i name="ewald">   8178.83243241 </i>
    <i name="hartreedc"> -11555.76992214 </i>
    <i name="XCdc">   -128.58230583 </i>
    <i name="pawpsdc">   2580.08184570 </i>
    <i name="pawaedc">  -2445.51032990 </i>
    <i name="eentropy">      0.00000000 </i>
    <i name="bandstr">   -406.50710993 </i>
    <i name="atom">   3722.34104111 </i>
    <i name="e_fr_energy">    -31.89757340 </i>
    <i name="e_wo_entrp">    -31.89757340 </i>
    <i name="e_0_energy">    -31.89757340 </i>
   </energy>
  </scstep>
  <structure>
   <crystal>
    <varray name="basis" >
     <v>       6.75300387       0.00000009      -0.00000000 </v>
     <v>       3.37650139       5.84827261      -0.00000000 </v>
     <v>      -0.00000000      -0.00000000      22.55732903 </v>
    </varray>
    <i name="volume">    890.86578281 </i>
    <varray name="rec_basis" >
     <v>       0.14808225      -0.08549532       0.00000000 </v>
     <v>      -0.00000000       0.17099066      -0.00000000 </v>
     <v>       0.00000000       0.00000000       0.04433149 </v>
    </varray>
   </crystal>
   <varray name="positions" >
    <v>       0.33333300       0.33333300       0.49993631 </v>
    <v>       0.66666700       0.66666700       0.50006369 </v>
    <v>       0.00000000       0.00000000       0.44586522 </v>
    <v>       0.00000000      -0.00000000       0.55413478 </v>
    <v>       0.61668810       0.00028398       0.57155181 </v>
    <v>       0.00028398       0.38302892       0.57155181 </v>
    <v>       0.38302892       0.61668810       0.57155181 </v>
    <v>       0.38331190       0.99971602       0.42844819 </v>
    <v>       0.99971602       0.61697108       0.42844819 </v>
    <v>       0.61697108       0.38331190       0.42844819 </v>
   </varray>
  </structure>
  <varray name="forces" >
   <v>      -0.00000000      -0.00000000       0.00049858 </v>
   <v>      -0.00000000      -0.00000000      -0.00049858 </v>
   <v>      -0.00000000      -0.00000000      -0.41131210 </v>
   <v>      -0.00000000      -0.00000000       0.41131210 </v>
   <v>      -0.38506832      -0.00691310       0.00858285 </v>
   <v>       0.18654721       0.33693548       0.00858285 </v>
   <v>       0.19852111      -0.33002238       0.00858285 </v>
   <v>       0.38506832       0.00691310      -0.00858285 </v>
   <v>      -0.18654721      -0.33693548      -0.00858285 </v>
   <v>      -0.19852111       0.33002238      -0.00858285 </v>
  </varray>
  <varray name="stress" >
   <v>       5.33296849      -0.00000037       0.00000000 </v>
   <v>      -0.00000048       5.33296787       0.00000000 </v>
   <v>       0.00000000       0.00000000       2.00981624 </v>
  </varray>
  <energy>
   <i name="e_fr_energy">    -31.89757340 </i>
   <i name="e_wo_entrp">    -31.89757340 </i>
   <i name="e_0_energy">      0.00000000 </i>
  </energy>
  <time name="totalsc">  974.96 1476.51</time>
 </calculation>
 <calculation>
  <scstep>
   <time name="dav">   23.80   36.95</time>
   <time name="total">   65.36   99.09</time>
   <energy>
    <i name="alphaZ">     23.43841311 </i>
    <i name="ewald">   7997.26523648 </i>
    <i name="hartreedc"> -11397.61827162 </i>
    <i name="XCdc">   -128.03956572 </i>
    <i name="pawpsdc">   2580.12016623 </i>
    <i name="pawaedc">  -2445.54350519 </i>
    <i name="eentropy">      0.00000000 </i>
    <i name="bandstr">   -384.02213105 </i>
    <i name="atom">   3722.34104111 </i>
    <i name="e_fr_energy">    -32.05861665 </i>
    <i name="e_wo_entrp">    -32.05861665 </i>
    <i name="e_0_energy">    -32.05861665 </i>
   </energy>
  </scstep>
  <scstep>
   <time name="dav">   23.58   35.12</time>
   <time name="total">   64.98   97.73</time>
   <energy>
    <i name="e_fr_energy">    -32.69319609 </i>
    <i name="e_wo_entrp">    -32.69319609 </i>
    <i name="e_0_energy">    -32.69319609 </i>
   </energy>
  </scstep>
  <scstep>
   <time name="dav">   23.08   34.03</time>
   <time name="total">   64.60   97.15</time>
   <energy>
    <i name="e_fr_energy">    -31.93080966 </i>
    <i name="e_wo_entrp">    -31.93080966 </i>
    <i name="e_0_energy">    -31.93080966 </i>
   </energy>
  </scstep>
  <scstep>
   <time name="dav">   22.58   34.23</time>
   <time name="total">   63.82   96.05</time>
   <energy>
    <i name="e_fr_energy">    -31.96041514 </i>
    <i name="e_wo_entrp">    -31.96041514 </i>
    <i name="e_0_energy">    -31.96041514 </i>
   </energy>
  </scstep>
  <scstep>
   <time name="dav">   20.81   32.08</time>
   <time name="total">   60.72   93.98</time>
   <energy>
    <i name="e_fr_energy">    -31.95974287 </i>
    <i name="e_wo_entrp">    -31.95974287 </i>
    <i name="e_0_energy">    -31.95974287 </i>
   </energy>
  </scstep>
  <scstep>
   <time name="dav">   22.47   33.72</time>
   <time name="total">   62.31   95.12</time>
   <energy>
    <i name="e_fr_energy">    -31.96120864 </i>
    <i name="e_wo_entrp">    -31.96120864 </i>
    <i name="e_0_energy">    -31.96120864 </i>
   </energy>
  </scstep>
  <scstep>
   <time name="dav">   19.48   30.98</time>
   <time name="total">   62.25   93.80</time>
   <energy>
    <i name="e_fr_energy">    -31.96264576 </i>
    <i name="e_wo_entrp">    -31.96264576 </i>
    <i name="e_0_energy">    -31.96264576 </i>
   </energy>
  </scstep>
  <scstep>
   <time name="dav">   22.10   31.89</time>
   <time name="total">   63.49   93.23</time>
   <energy>
    <i name="e_fr_energy">    -31.96377127 </i>
    <i name="e_wo_entrp">    -31.96377127 </i>
    <i name="e_0_energy">    -31.96377127 </i>
   </energy>
  </scstep>
  <scstep>
   <time name="dav">   21.27   33.16</time>
   <time name="total">   61.81   96.12</time>
   <energy>
    <i name="e_fr_energy">    -31.96486943 </i>
    <i name="e_wo_entrp">    -31.96486943 </i>
    <i name="e_0_energy">    -31.96486943 </i>
   </energy>
  </scstep>
  <scstep>
   <time name="dav">   21.13   32.48</time>
   <time name="total">   63.17   95.92</time>
   <energy>
    <i name="e_fr_energy">    -31.96533604 </i>
    <i name="e_wo_entrp">    -31.96533604 </i>
    <i name="e_0_energy">    -31.96533604 </i>
   </energy>
  </scstep>
  <scstep>
   <time name="dav">   20.37   31.25</time>
   <time name="total">   61.80   94.41</time>
   <energy>
    <i name="e_fr_energy">    -31.96551615 </i>
    <i name="e_wo_entrp">    -31.96551615 </i>
    <i name="e_0_energy">    -31.96551615 </i>
   </energy>
  </scstep>
  <scstep>
   <time name="dav">   19.84   28.72</time>
   <time name="total">   58.75   87.67</time>
   <energy>
    <i name="alphaZ">     23.43841311 </i>
    <i name="ewald">   7997.26523648 </i>
    <i name="hartreedc"> -11375.52396319 </i>
    <i name="XCdc">   -128.44396713 </i>
    <i name="pawpsdc">   2593.66759580 </i>
    <i name="pawaedc">  -2459.42352536 </i>
    <i name="eentropy">      0.00000000 </i>
    <i name="bandstr">   -405.28631191 </i>
    <i name="atom">   3722.34104111 </i>
    <i name="e_fr_energy">    -31.96548110 </i>
    <i name="e_wo_entrp">    -31.96548110 </i>
    <i name="e_0_energy">    -31.96548110 </i>
   </energy>
  </scstep>
  <structure>
   <crystal>
    <varray name="basis" >
     <v>       6.77147822       0.00000010      -0.00000000 </v>
     <v>       3.38573855       5.86427186      -0.00000000 </v>
     <v>      -0.00000000      -0.00000000      22.22226857 </v>
    </varray>
    <i name="volume">    882.44159263 </i>
    <varray name="rec_basis" >
     <v>       0.14767824      -0.08526206       0.00000000 </v>
     <v>      -0.00000000       0.17052416      -0.00000000 </v>
     <v>       0.00000000       0.00000000       0.04499991 </v>
    </varray>
   </crystal>
   <varray name="positions" >
    <v>       0.33333300       0.33333300       0.49993899 </v>
    <v>       0.66666700       0.66666700       0.50006101 </v>
    <v>      -0.00000000       0.00000000       0.44415151 </v>
    <v>      -0.00000000      -0.00000000       0.55584849 </v>
    <v>       0.60984640       0.00019344       0.57053019 </v>
    <v>       0.00019344       0.38996116       0.57053019 </v>
    <v>       0.38996116       0.60984640       0.57053019 </v>
    <v>       0.39015360       0.99980656       0.42946981 </v>
    <v>       0.99980656       0.61003884       0.42946981 </v>
    <v>       0.61003884       0.39015360       0.42946981 </v>
   </varray>
  </structure>
  <varray name="forces" >
   <v>       0.00000000       0.00000000       0.00057450 </v>
   <v>       0.00000000       0.00000000      -0.00057450 </v>
   <v>       0.00000000       0.00000000      -0.21474902 </v>
   <v>       0.00000000       0.00000000       0.21474902 </v>
   <v>      -0.15491562      -0.00144370       0.21940742 </v>
   <v>       0.07620752       0.13488271       0.21940742 </v>
   <v>       0.07870811      -0.13343900       0.21940742 </v>
   <v>       0.15491562       0.00144370      -0.21940742 </v>
   <v>      -0.07620752      -0.13488271      -0.21940742 </v>
   <v>      -0.07870811       0.13343900      -0.21940742 </v>
  </varray>
  <varray name="stress" >
   <v>       5.63312377      -0.00000069      -0.00000000 </v>
   <v>      -0.00000021       5.63312311       0.00000000 </v>
   <v>       0.00000000      -0.00000000       4.37353302 </v>
  </varray>
  <energy>
   <i name="e_fr_energy">    -31.96548110 </i>
   <i name="e_wo_entrp">    -31.96548110 </i>
   <i name="e_0_energy">      0.00000000 </i>
  </energy>
  <time name="totalsc">  854.47 1293.52</time>
 </calculation>
 <calculation>
  <scstep>
   <time name="dav">   22.08   33.30</time>
   <time name="total">   64.46   95.65</time>
   <energy>
    <i name="alphaZ">     22.29992337 </i>
    <i name="ewald">   7742.40044765 </i>
    <i name="hartreedc"> -11070.40847722 </i>
    <i name="XCdc">   -130.68881278 </i>
    <i name="pawpsdc">   2593.74015967 </i>
    <i name="pawaedc">  -2459.50583229 </i>
    <i name="eentropy">      0.00000000 </i>
    <i name="bandstr">   -453.89709985 </i>
    <i name="atom">   3722.34104111 </i>
    <i name="e_fr_energy">    -33.71865033 </i>
    <i name="e_wo_entrp">    -33.71865033 </i>
    <i name="e_0_energy">    -33.71865033 </i>
   </energy>
  </scstep>
  <scstep>
   <time name="dav">   25.68   39.36</time>
   <time name="total">   65.46  101.49</time>
   <energy>
    <i name="e_fr_energy">    -44.95969767 </i>
    <i name="e_wo_entrp">    -44.95969767 </i>
    <i name="e_0_energy">    -44.95969767 </i>
   </energy>
  </scstep>
  <scstep>
   <time name="dav">   22.76   33.80</time>
   <time name="total">   62.53   95.11</time>
   <energy>
    <i name="e_fr_energy">    -32.70318599 </i>
    <i name="e_wo_entrp">    -32.70318599 </i>
    <i name="e_0_energy">    -32.70318599 </i>
   </energy>
  </scstep>
  <scstep>
   <time name="dav">   20.51   30.82</time>
   <time name="total">   61.87   94.09</time>
   <energy>
    <i name="e_fr_energy">    -32.03783375 </i>
    <i name="e_wo_entrp">    -32.03783375 </i>
    <i name="e_0_energy">    -32.03783375 </i>
   </energy>
  </scstep>
  <scstep>
   <time name="dav">   22.63   34.59</time>
   <time name="total">   62.99   96.85</time>
   <energy>
    <i name="e_fr_energy">    -32.00408830 </i>
    <i name="e_wo_entrp">    -32.00408830 </i>
    <i name="e_0_energy">    -32.00408830 </i>
   </energy>
  </scstep>
  <scstep>
   <time name="dav">   25.39   39.28</time>
   <time name="total">   66.18  101.14</time>
   <energy>
    <i name="e_fr_energy">    -31.97639448 </i>
    <i name="e_wo_entrp">    -31.97639448 </i>
    <i name="e_0_energy">    -31.97639448 </i>
   </energy>
  </scstep>
  <scstep>
   <time name="dav">   21.90   31.50</time>
   <time name="total">   62.07   92.77</time>
   <energy>
    <i name="e_fr_energy">    -31.97732646 </i>
    <i name="e_wo_entrp">    -31.97732646 </i>
    <i name="e_0_energy">    -31.97732646 </i>
   </energy>
  </scstep>
  <scstep>
   <time name="dav">   21.78   33.34</time>
   <time name="total">   65.10   95.71</time>
   <energy>
    <i name="e_fr_energy">    -31.97687074 </i>
    <i name="e_wo_entrp">    -31.97687074 </i>
    <i name="e_0_energy">    -31.97687074 </i>
   </energy>
  </scstep>
  <scstep>
   <time name="dav">   22.43   32.41</time>
   <time name="total">   63.22   93.63</time>
   <energy>
    <i name="e_fr_energy">    -31.97676894 </i>
    <i name="e_wo_entrp">    -31.97676894 </i>
    <i name="e_0_energy">    -31.97676894 </i>
   </energy>
  </scstep>
  <scstep>
   <time name="dav">   17.61   27.27</time>
   <time name="total">   58.53   86.60</time>
   <energy>
    <i name="alphaZ">     22.29992337 </i>
    <i name="ewald">   7742.40044765 </i>
    <i name="hartreedc"> -11110.50299348 </i>
    <i name="XCdc">   -129.59303933 </i>
    <i name="pawpsdc">   2562.94889590 </i>
    <i name="pawaedc">  -2427.98515822 </i>
    <i name="eentropy">      0.00000000 </i>
    <i name="bandstr">   -413.88588427 </i>
    <i name="atom">   3722.34104111 </i>
    <i name="e_fr_energy">    -31.97676726 </i>
    <i name="e_wo_entrp">    -31.97676726 </i>
    <i name="e_0_energy">    -31.97676726 </i>
   </energy>
  </scstep>
  <structure>
   <crystal>
    <varray name="basis" >
     <v>       6.89983848       0.00000009      -0.00000000 </v>
     <v>       3.44991867       5.97543508      -0.00000000 </v>
     <v>      -0.00000000      -0.00000000      22.49584702 </v>
    </varray>
    <i name="volume">    927.49334806 </i>
    <varray name="rec_basis" >
     <v>       0.14493093      -0.08367590       0.00000000 </v>
     <v>      -0.00000000       0.16735183       0.00000000 </v>
     <v>       0.00000000       0.00000000       0.04445265 </v>
    </varray>
   </crystal>
   <varray name="positions" >
    <v>       0.33333300       0.33333300       0.49994092 </v>
    <v>       0.66666700       0.66666700       0.50005908 </v>
    <v>      -0.00000000       0.00000000       0.44332389 </v>
    <v>      -0.00000000       0.00000000       0.55667611 </v>
    <v>       0.60750661       0.00016576       0.57097220 </v>
    <v>       0.00016576       0.39232863       0.57097220 </v>
    <v>       0.39232863       0.60750661       0.57097220 </v>
    <v>       0.39249339       0.99983424       0.42902780 </v>
    <v>       0.99983424       0.60767137       0.42902780 </v>
    <v>       0.60767137       0.39249339       0.42902780 </v>
   </varray>
  </structure>
  <varray name="forces" >
   <v>      -0.00000000      -0.00000000       0.00407179 </v>
   <v>      -0.00000000       0.00000000      -0.00407179 </v>
   <v>      -0.00000000      -0.00000000       0.13202994 </v>
   <v>      -0.00000000       0.00000000      -0.13202994 </v>
   <v>      -0.02249275      -0.00280751      -0.15885302 </v>
   <v>       0.00881499       0.02088305      -0.15885302 </v>
   <v>       0.01367775      -0.01807553      -0.15885302 </v>
   <v>       0.02249275       0.00280751       0.15885302 </v>
   <v>      -0.00881499      -0.02088305       0.15885302 </v>
   <v>      -0.01367775       0.01807553       0.15885302 </v>
  </varray>
  <varray name="stress" >
   <v>      -4.90249040       0.00000278       0.00000000 </v>
   <v>      -0.00000197      -4.90248981      -0.00000000 </v>
   <v>       0.00000000       0.00000000      -2.50579577 </v>
  </varray>
  <energy>
   <i name="e_fr_energy">    -31.97676726 </i>
   <i name="e_wo_entrp">    -31.97676726 </i>
   <i name="e_0_energy">      0.00000000 </i>
  </energy>
  <time name="totalsc">  731.92 1105.37</time>
 </calculation>
 <calculation>
  <scstep>
   <time name="dav">   24.45   36.54</time>
   <time name="total">   65.90   98.31</time>
   <energy>
    <i name="alphaZ">     22.83976603 </i>
    <i name="ewald">   7863.59256427 </i>
    <i name="hartreedc"> -11256.52995708 </i>
    <i name="XCdc">   -128.49869965 </i>
    <i name="pawpsdc">   2562.76347015 </i>
    <i name="pawaedc">  -2427.78082760 </i>
    <i name="eentropy">      0.00000000 </i>
    <i name="bandstr">   -391.20534001 </i>
    <i name="atom">   3722.34104111 </i>
    <i name="e_fr_energy">    -32.47798278 </i>
    <i name="e_wo_entrp">    -32.47798278 </i>
    <i name="e_0_energy">    -32.47798278 </i>
   </energy>
  </scstep>
  <scstep>
   <time name="dav">   20.80   32.09</time>
   <time name="total">   63.18   93.93</time>
   <energy>
    <i name="e_fr_energy">    -35.97058468 </i>
    <i name="e_wo_entrp">    -35.97058468 </i>
    <i name="e_0_energy">    -35.97058468 </i>
   </energy>
  </scstep>
  <scstep>
   <time name="dav">   21.72   32.36</time>
   <time name="total">   62.05   93.59</time>
   <energy>
    <i name="e_fr_energy">    -31.97576661 </i>
    <i name="e_wo_entrp">    -31.97576661 </i>
    <i name="e_0_energy">    -31.97576661 </i>
   </energy>
  </scstep>
  <scstep>
   <time name="dav">   21.65   32.56</time>
   <time name="total">   63.38   94.78</time>
   <energy>
    <i name="e_fr_energy">    -32.09588172 </i>
    <i name="e_wo_entrp">    -32.09588172 </i>
    <i name="e_0_energy">    -32.09588172 </i>
   </energy>
  </scstep>
  <scstep>
   <time name="dav">   22.96   34.11</time>
   <time name="total">   64.63   95.74</time>
   <energy>
    <i name="e_fr_energy">    -32.01077129 </i>
    <i name="e_wo_entrp">    -32.01077129 </i>
    <i name="e_0_energy">    -32.01077129 </i>
   </energy>
  </scstep>
  <scstep>
   <time name="dav">   22.06   32.42</time>
   <time name="total">   64.04   94.47</time>
   <energy>
    <i name="e_fr_energy">    -32.01107379 </i>
    <i name="e_wo_entrp">    -32.01107379 </i>
    <i name="e_0_energy">    -32.01107379 </i>
   </energy>
  </scstep>
  <scstep>
   <time name="dav">   25.22   39.97</time>
   <time name="total">   66.20  101.77</time>
   <energy>
    <i name="e_fr_energy">    -32.01143012 </i>
    <i name="e_wo_entrp">    -32.01143012 </i>
    <i name="e_0_energy">    -32.01143012 </i>
   </energy>
  </scstep>
  <scstep>
   <time name="dav">   21.30   32.26</time>
   <time name="total">   62.62   95.03</time>
   <energy>
    <i name="e_fr_energy">    -32.01158089 </i>
    <i name="e_wo_entrp">    -32.01158089 </i>
    <i name="e_0_energy">    -32.01158089 </i>
   </energy>
  </scstep>
  <scstep>
   <time name="dav">   17.10   25.78</time>
   <time name="total">   58.75   89.61</time>
   <energy>
    <i name="e_fr_energy">    -32.01177770 </i>
    <i name="e_wo_entrp">    -32.01177770 </i>
    <i name="e_0_energy">    -32.01177770 </i>
   </energy>
  </scstep>
  <scstep>
   <time name="dav">   17.13   26.06</time>
   <time name="total">   58.40   88.69</time>
   <energy>
    <i name="e_fr_energy">    -32.01198324 </i>
    <i name="e_wo_entrp">    -32.01198324 </i>
    <i name="e_0_energy">    -32.01198324 </i>
   </energy>
  </scstep>
  <scstep>
   <time name="dav">   17.61   27.20</time>
   <time name="total">   57.65   87.68</time>
   <energy>
    <i name="alphaZ">     22.83976603 </i>
    <i name="ewald">   7863.59256427 </i>
    <i name="hartreedc"> -11237.38472352 </i>
    <i name="XCdc">   -129.03950784 </i>
    <i name="pawpsdc">   2577.09780366 </i>
    <i name="pawaedc">  -2442.45263366 </i>
    <i name="eentropy">      0.00000000 </i>
    <i name="bandstr">   -409.00638926 </i>
    <i name="atom">   3722.34104111 </i>
    <i name="e_fr_energy">    -32.01207921 </i>
    <i name="e_wo_entrp">    -32.01207921 </i>
    <i name="e_0_energy">    -32.01207921 </i>
   </energy>
  </scstep>
  <structure>
   <crystal>
    <varray name="basis" >
     <v>       6.83790082       0.00000009      -0.00000000 </v>
     <v>       3.41894985       5.92179551      -0.00000000 </v>
     <v>      -0.00000000      -0.00000000      22.36383726 </v>
    </varray>
    <i name="volume">    905.57103645 </i>
    <varray name="rec_basis" >
     <v>       0.14624371      -0.08443384       0.00000000 </v>
     <v>      -0.00000000       0.16886770       0.00000000 </v>
     <v>       0.00000000       0.00000000       0.04471505 </v>
    </varray>
   </crystal>
   <varray name="positions" >
    <v>       0.33333300       0.33333300       0.49994000 </v>
    <v>       0.66666700       0.66666700       0.50006000 </v>
    <v>      -0.00000000       0.00000000       0.44371838 </v>
    <v>      -0.00000000       0.00000000       0.55628162 </v>
    <v>       0.60861463       0.00017886       0.57076151 </v>
    <v>       0.00017886       0.39120751       0.57076151 </v>
    <v>       0.39120751       0.60861463       0.57076151 </v>
    <v>       0.39138537       0.99982114       0.42923849 </v>
    <v>       0.99982114       0.60879249       0.42923849 </v>
    <v>       0.60879249       0.39138537       0.42923849 </v>
   </varray>
  </structure>
  <varray name="forces" >
   <v>      -0.00000000       0.00000000       0.00199080 </v>
   <v>      -0.00000000      -0.00000000      -0.00199080 </v>
   <v>       0.00000000       0.00000000      -0.02240833 </v>
   <v>      -0.00000000       0.00000000       0.02240833 </v>
   <v>      -0.07889625      -0.00251644       0.00962957 </v>
   <v>       0.03726882       0.06958438       0.00962957 </v>
   <v>       0.04162744      -0.06706793       0.00962957 </v>
   <v>       0.07889625       0.00251644      -0.00962957 </v>
   <v>      -0.03726882      -0.06958438      -0.00962957 </v>
   <v>      -0.04162744       0.06706793      -0.00962957 </v>
  </varray>
  <varray name="stress" >
   <v>      -0.43276398       0.00000056       0.00000000 </v>
   <v>      -0.00000049      -0.43276393       0.00000000 </v>
   <v>       0.00000000       0.00000000       0.16701354 </v>
  </varray>
  <energy>
   <i name="e_fr_energy">    -32.01207921 </i>
   <i name="e_wo_entrp">    -32.01207921 </i>
   <i name="e_0_energy">      0.00000000 </i>
  </energy>
  <time name="totalsc">  785.94 1184.80</time>
 </calculation>
 <calculation>
  <scstep>
   <time name="dav">   21.05   30.82</time>
   <time name="total">   61.72   92.49</time>
   <energy>
    <i name="alphaZ">     22.85940753 </i>
    <i name="ewald">   7888.09793019 </i>
    <i name="hartreedc"> -11261.50136445 </i>
    <i name="XCdc">   -129.01889657 </i>
    <i name="pawpsdc">   2577.06344926 </i>
    <i name="pawaedc">  -2442.42343938 </i>
    <i name="eentropy">      0.00000000 </i>
    <i name="bandstr">   -409.43362693 </i>
    <i name="atom">   3722.34104111 </i>
    <i name="e_fr_energy">    -32.01549923 </i>
    <i name="e_wo_entrp">    -32.01549923 </i>
    <i name="e_0_energy">    -32.01549923 </i>
   </energy>
  </scstep>
  <scstep>
   <time name="dav">   20.80   32.03</time>
   <time name="total">   61.42   93.63</time>
   <energy>
    <i name="e_fr_energy">    -32.01852984 </i>
    <i name="e_wo_entrp">    -32.01852984 </i>
    <i name="e_0_energy">    -32.01852984 </i>
   </energy>
  </scstep>
  <scstep>
   <time name="dav">   19.94   30.82</time>
   <time name="total">   60.19   93.60</time>
   <energy>
    <i name="e_fr_energy">    -32.01511528 </i>
    <i name="e_wo_entrp">    -32.01511528 </i>
    <i name="e_0_energy">    -32.01511528 </i>
   </energy>
  </scstep>
  <scstep>
   <time name="dav">   21.17   31.45</time>
   <time name="total">   63.04   94.90</time>
   <energy>
    <i name="e_fr_energy">    -32.01493570 </i>
    <i name="e_wo_entrp">    -32.01493570 </i>
    <i name="e_0_energy">    -32.01493570 </i>
   </energy>
  </scstep>
  <scstep>
   <time name="dav">   20.99   30.58</time>
   <time name="total">   59.47   89.15</time>
   <energy>
    <i name="alphaZ">     22.85940753 </i>
    <i name="ewald">   7888.09793019 </i>
    <i name="hartreedc"> -11261.32094567 </i>
    <i name="XCdc">   -129.03835199 </i>
    <i name="pawpsdc">   2577.68135900 </i>
    <i name="pawaedc">  -2443.05207185 </i>
    <i name="eentropy">      0.00000000 </i>
    <i name="bandstr">   -409.58334603 </i>
    <i name="atom">   3722.34104111 </i>
    <i name="e_fr_energy">    -32.01497770 </i>
    <i name="e_wo_entrp">    -32.01497770 </i>
    <i name="e_0_energy">    -32.01497770 </i>
   </energy>
  </scstep>
  <structure>
   <crystal>
    <varray name="basis" >
     <v>       6.83215179       0.00000010      -0.00000000 </v>
     <v>       3.41607532       5.91681671      -0.00000000 </v>
     <v>      -0.00000000       0.00000000      22.38224192 </v>
    </varray>
    <i name="volume">    904.79294201 </i>
    <varray name="rec_basis" >
     <v>       0.14636677      -0.08450489       0.00000000 </v>
     <v>      -0.00000000       0.16900980      -0.00000000 </v>
     <v>       0.00000000      -0.00000000       0.04467828 </v>
    </varray>
   </crystal>
   <varray name="positions" >
    <v>       0.33333300       0.33333300       0.49994486 </v>
    <v>       0.66666700       0.66666700       0.50005514 </v>
    <v>      -0.00000000       0.00000000       0.44364333 </v>
    <v>      -0.00000000       0.00000000       0.55635667 </v>
    <v>       0.60794356       0.00015520       0.57079594 </v>
    <v>       0.00015520       0.39190224       0.57079594 </v>
    <v>       0.39190224       0.60794356       0.57079594 </v>
    <v>       0.39205644       0.99984480       0.42920406 </v>
    <v>       0.99984480       0.60809776       0.42920406 </v>
    <v>       0.60809776       0.39205644       0.42920406 </v>
   </varray>
  </structure>
  <varray name="forces" >
   <v>      -0.00000000      -0.00000000       0.00137605 </v>
   <v>       0.00000000      -0.00000000      -0.00137605 </v>
   <v>       0.00000000      -0.00000000      -0.00015461 </v>
   <v>      -0.00000000      -0.00000000       0.00015461 </v>
   <v>      -0.05908120      -0.00212514       0.00497639 </v>
   <v>       0.02770017       0.05222839       0.00497639 </v>
   <v>       0.03138103      -0.05010324       0.00497639 </v>
   <v>       0.05908120       0.00212514      -0.00497639 </v>
   <v>      -0.02770017      -0.05222839      -0.00497639 </v>
   <v>      -0.03138103       0.05010324      -0.00497639 </v>
  </varray>
  <varray name="stress" >
   <v>      -0.01561666      -0.00000032       0.00000000 </v>
   <v>       0.00000033      -0.01561666       0.00000000 </v>
   <v>      -0.00000000      -0.00000000       0.35693827 </v>
  </varray>
  <energy>
   <i name="e_fr_energy">    -32.01497770 </i>
   <i name="e_wo_entrp">    -32.01497770 </i>
   <i name="e_0_energy">      0.00000000 </i>
  </energy>
  <time name="totalsc">  406.28  615.79</time>
 </calculation>
 <calculation>
  <scstep>
   <time name="dav">   21.56   32.22</time>
   <time name="total">   63.36   94.53</time>
   <energy>
    <i name="alphaZ">     22.89767657 </i>
    <i name="ewald">   7935.77750670 </i>
    <i name="hartreedc"> -11308.53878837 </i>
    <i name="XCdc">   -128.99274402 </i>
    <i name="pawpsdc">   2577.71369981 </i>
    <i name="pawaedc">  -2443.09539912 </i>
    <i name="eentropy">      0.00000000 </i>
    <i name="bandstr">   -410.12356640 </i>
    <i name="atom">   3722.34104111 </i>
    <i name="e_fr_energy">    -32.02057371 </i>
    <i name="e_wo_entrp">    -32.02057371 </i>
    <i name="e_0_energy">    -32.02057371 </i>
   </energy>
  </scstep>
  <scstep>
   <time name="dav">   22.13   33.59</time>
   <time name="total">   63.20   96.28</time>
   <energy>
    <i name="e_fr_energy">    -32.03242869 </i>
    <i name="e_wo_entrp">    -32.03242869 </i>
    <i name="e_0_energy">    -32.03242869 </i>
   </energy>
  </scstep>
  <scstep>
   <time name="dav">   22.82   35.33</time>
   <time name="total">   63.51   97.69</time>
   <energy>
    <i name="e_fr_energy">    -32.01843277 </i>
    <i name="e_wo_entrp">    -32.01843277 </i>
    <i name="e_0_energy">    -32.01843277 </i>
   </energy>
  </scstep>
  <scstep>
   <time name="dav">   22.34   35.41</time>
   <time name="total">   64.14   98.38</time>
   <energy>
    <i name="e_fr_energy">    -32.01799838 </i>
    <i name="e_wo_entrp">    -32.01799838 </i>
    <i name="e_0_energy">    -32.01799838 </i>
   </energy>
  </scstep>
  <scstep>
   <time name="dav">   20.93   30.99</time>
   <time name="total">   60.77   90.37</time>
   <energy>
    <i name="alphaZ">     22.89767657 </i>
    <i name="ewald">   7935.77750670 </i>
    <i name="hartreedc"> -11308.36797840 </i>
    <i name="XCdc">   -129.02948774 </i>
    <i name="pawpsdc">   2578.79570522 </i>
    <i name="pawaedc">  -2444.19044724 </i>
    <i name="eentropy">      0.00000000 </i>
    <i name="bandstr">   -410.24206064 </i>
    <i name="atom">   3722.34104111 </i>
    <i name="e_fr_energy">    -32.01804441 </i>
    <i name="e_wo_entrp">    -32.01804441 </i>
    <i name="e_0_energy">    -32.01804441 </i>
   </energy>
  </scstep>
  <structure>
   <crystal>
    <varray name="basis" >
     <v>       6.82100456       0.00000012       0.00000000 </v>
     <v>       3.41050169       5.90716294       0.00000000 </v>
     <v>      -0.00000000       0.00000000      22.41792809 </v>
    </varray>
    <i name="volume">    903.28075534 </i>
    <varray name="rec_basis" >
     <v>       0.14660597      -0.08464299       0.00000000 </v>
     <v>      -0.00000000       0.16928600      -0.00000000 </v>
     <v>      -0.00000000      -0.00000000       0.04460716 </v>
    </varray>
   </crystal>
   <varray name="positions" >
    <v>       0.33333300       0.33333300       0.49995428 </v>
    <v>       0.66666700       0.66666700       0.50004572 </v>
    <v>      -0.00000000       0.00000000       0.44349793 </v>
    <v>      -0.00000000       0.00000000       0.55650207 </v>
    <v>       0.60664129       0.00010927       0.57086265 </v>
    <v>       0.00010927       0.39325044       0.57086265 </v>
    <v>       0.39325044       0.60664129       0.57086265 </v>
    <v>       0.39335871       0.99989073       0.42913735 </v>
    <v>       0.99989073       0.60674956       0.42913735 </v>
    <v>       0.60674956       0.39335871       0.42913735 </v>
   </varray>
  </structure>
  <varray name="forces" >
   <v>       0.00000000      -0.00000000       0.00334549 </v>
   <v>       0.00000000       0.00000000      -0.00334549 </v>
   <v>       0.00000000       0.00000000       0.03485711 </v>
   <v>       0.00000000      -0.00000000      -0.03485711 </v>
   <v>      -0.02611347      -0.00034903      -0.00159698 </v>
   <v>       0.01275446       0.02278945      -0.00159698 </v>
   <v>       0.01335901      -0.02244041      -0.00159698 </v>
   <v>       0.02611347       0.00034903       0.00159698 </v>
   <v>      -0.01275446      -0.02278945       0.00159698 </v>
   <v>      -0.01335901       0.02244041       0.00159698 </v>
  </varray>
  <varray name="stress" >
   <v>       0.54313479       0.00000110       0.00000000 </v>
   <v>      -0.00000119       0.54313473       0.00000000 </v>
   <v>       0.00000000       0.00000000       0.35074036 </v>
  </varray>
  <energy>
   <i name="e_fr_energy">    -32.01804441 </i>
   <i name="e_wo_entrp">    -32.01804441 </i>
   <i name="e_0_energy">      0.00000000 </i>
  </energy>
  <time name="totalsc">  415.54  630.59</time>
 </calculation>
 <calculation>
  <scstep>
   <time name="dav">   19.45   30.81</time>
   <time name="total">   60.28   92.41</time>
   <energy>
    <i name="alphaZ">     22.77646952 </i>
    <i name="ewald">   7930.57341081 </i>
    <i name="hartreedc"> -11296.94976528 </i>
    <i name="XCdc">   -129.26061892 </i>
    <i name="pawpsdc">   2578.89123571 </i>
    <i name="pawaedc">  -2444.29797703 </i>
    <i name="eentropy">      0.00000000 </i>
    <i name="bandstr">   -416.11358915 </i>
    <i name="atom">   3722.34104111 </i>
    <i name="e_fr_energy">    -32.03979324 </i>
    <i name="e_wo_entrp">    -32.03979324 </i>
    <i name="e_0_energy">    -32.03979324 </i>
   </energy>
  </scstep>
  <scstep>
   <time name="dav">   20.12   30.62</time>
   <time name="total">   61.36   93.45</time>
   <energy>
    <i name="e_fr_energy">    -32.21290163 </i>
    <i name="e_wo_entrp">    -32.21290163 </i>
    <i name="e_0_energy">    -32.21290163 </i>
   </energy>
  </scstep>
  <scstep>
   <time name="dav">   20.52   30.68</time>
   <time name="total">   61.88   92.16</time>
   <energy>
    <i name="e_fr_energy">    -32.02093052 </i>
    <i name="e_wo_entrp">    -32.02093052 </i>
    <i name="e_0_energy">    -32.02093052 </i>
   </energy>
  </scstep>
  <scstep>
   <time name="dav">   19.90   31.06</time>
   <time name="total">   59.22   92.67</time>
   <energy>
    <i name="e_fr_energy">    -32.01759500 </i>
    <i name="e_wo_entrp">    -32.01759500 </i>
    <i name="e_0_energy">    -32.01759500 </i>
   </energy>
  </scstep>
  <scstep>
   <time name="dav">   25.40   38.95</time>
   <time name="total">   65.78  100.68</time>
   <energy>
    <i name="e_fr_energy">    -32.01744794 </i>
    <i name="e_wo_entrp">    -32.01744794 </i>
    <i name="e_0_energy">    -32.01744794 </i>
   </energy>
  </scstep>
  <scstep>
   <time name="dav">   17.04   26.37</time>
   <time name="total">   54.67   85.67</time>
   <energy>
    <i name="alphaZ">     22.77646952 </i>
    <i name="ewald">   7930.57341081 </i>
    <i name="hartreedc"> -11302.04996213 </i>
    <i name="XCdc">   -129.14074304 </i>
    <i name="pawpsdc">   2576.55281151 </i>
    <i name="pawaedc">  -2441.89057591 </i>
    <i name="eentropy">      0.00000000 </i>
    <i name="bandstr">   -411.17982100 </i>
    <i name="atom">   3722.34104111 </i>
    <i name="e_fr_energy">    -32.01736912 </i>
    <i name="e_wo_entrp">    -32.01736912 </i>
    <i name="e_0_energy">    -32.01736912 </i>
   </energy>
  </scstep>
  <structure>
   <crystal>
    <varray name="basis" >
     <v>       6.83173991       0.00000017       0.00000000 </v>
     <v>       3.41586933       5.91646004       0.00000000 </v>
[...]
        <r>  0.0000  0.0028  0.0045  0.0011  0.0301  0.0629  0.0000  0.0402  0.0548 </r>
        <r>  0.0093  0.0123  0.0217  0.0040  0.0004  0.0000  0.0008  0.0000  0.0001 </r>
        <r>  0.0093  0.0123  0.0217  0.0040  0.0004  0.0000  0.0008  0.0000  0.0001 </r>
        <r>  0.0025  0.0123  0.0101  0.0188  0.0000  0.0000  0.0001  0.0001  0.0001 </r>
        <r>  0.0039  0.0014  0.0170  0.0004  0.0005  0.0001  0.0007  0.0000  0.0002 </r>
        <r>  0.0025  0.0216  0.0100  0.0099  0.0000  0.0001  0.0001  0.0000  0.0000 </r>
        <r>  0.0025  0.0123  0.0101  0.0188  0.0000  0.0000  0.0001  0.0001  0.0001 </r>
        <r>  0.0039  0.0014  0.0170  0.0004  0.0005  0.0001  0.0007  0.0000  0.0002 </r>
        <r>  0.0025  0.0216  0.0100  0.0099  0.0000  0.0001  0.0001  0.0000  0.0000 </r>
       </set>
       <set comment="band 30">
        <r>  0.0029  0.0015  0.0039  0.0019  0.0023  0.0285  0.0319  0.0393  0.0059 </r>
        <r>  0.0029  0.0015  0.0039  0.0019  0.0023  0.0285  0.0319  0.0393  0.0059 </r>
        <r>  0.0013  0.0068  0.0544  0.0023  0.0001  0.0000  0.0024  0.0000  0.0000 </r>
        <r>  0.0013  0.0068  0.0544  0.0023  0.0001  0.0000  0.0024  0.0000  0.0000 </r>
        <r>  0.0007  0.0078  0.0026  0.0041  0.0001  0.0001  0.0000  0.0004  0.0001 </r>
        <r>  0.0058  0.0235  0.0617  0.0077  0.0000  0.0003  0.0005  0.0001  0.0000 </r>
        <r>  0.0007  0.0068  0.0026  0.0054  0.0002  0.0004  0.0000  0.0001  0.0000 </r>
        <r>  0.0007  0.0078  0.0026  0.0041  0.0001  0.0001  0.0000  0.0004  0.0001 </r>
        <r>  0.0058  0.0235  0.0617  0.0077  0.0000  0.0003  0.0005  0.0001  0.0000 </r>
        <r>  0.0007  0.0068  0.0026  0.0054  0.0002  0.0004  0.0000  0.0001  0.0000 </r>
       </set>
       <set comment="band 31">
        <r>  0.0001  0.0000  0.0143  0.0000  0.0062  0.0086  0.0020  0.0148  0.0096 </r>
        <r>  0.0001  0.0000  0.0143  0.0000  0.0062  0.0086  0.0020  0.0148  0.0096 </r>
        <r>  0.0000  0.0046  0.0000  0.0138  0.0001  0.0000  0.0000  0.0001  0.0002 </r>
        <r>  0.0000  0.0046  0.0000  0.0138  0.0001  0.0000  0.0000  0.0001  0.0002 </r>
        <r>  0.0014  0.0038  0.0727  0.0068  0.0000  0.0000  0.0008  0.0000  0.0000 </r>
        <r>  0.0000  0.0099  0.0000  0.0300  0.0000  0.0000  0.0000  0.0001  0.0000 </r>
        <r>  0.0014  0.0071  0.0725  0.0034  0.0000  0.0000  0.0008  0.0000  0.0000 </r>
        <r>  0.0014  0.0038  0.0727  0.0068  0.0000  0.0000  0.0008  0.0000  0.0000 </r>
        <r>  0.0000  0.0099  0.0000  0.0300  0.0000  0.0000  0.0000  0.0001  0.0000 </r>
        <r>  0.0014  0.0071  0.0725  0.0034  0.0000  0.0000  0.0008  0.0000  0.0000 </r>
       </set>
       <set comment="band 32">
        <r>  0.0000  0.0001  0.0004  0.0002  0.0456  0.0144  0.0000  0.0431  0.0561 </r>
        <r>  0.0000  0.0001  0.0004  0.0002  0.0456  0.0144  0.0000  0.0431  0.0561 </r>
        <r>  0.0117  0.0013  0.0136  0.0004  0.0001  0.0001  0.0018  0.0000  0.0000 </r>
        <r>  0.0117  0.0013  0.0136  0.0004  0.0001  0.0001  0.0018  0.0000  0.0000 </r>
        <r>  0.0014  0.0018  0.0167  0.0155  0.0000  0.0003  0.0000  0.0002  0.0001 </r>
        <r>  0.0073  0.0013  0.0623  0.0004  0.0002  0.0003  0.0000  0.0001  0.0001 </r>
        <r>  0.0014  0.0132  0.0166  0.0042  0.0001  0.0000  0.0000  0.0004  0.0000 </r>
        <r>  0.0014  0.0018  0.0167  0.0155  0.0000  0.0003  0.0000  0.0002  0.0001 </r>
        <r>  0.0073  0.0013  0.0623  0.0004  0.0002  0.0003  0.0000  0.0001  0.0001 </r>
        <r>  0.0014  0.0132  0.0166  0.0042  0.0001  0.0000  0.0000  0.0004  0.0000 </r>
       </set>
       <set comment="band 33">
        <r>  0.0002  0.0001  0.0011  0.0002  0.0662  0.0194  0.0067  0.0202  0.0226 </r>
        <r>  0.0002  0.0001  0.0011  0.0002  0.0662  0.0194  0.0067  0.0202  0.0226 </r>
        <r>  0.0293  0.0003  0.0005  0.0001  0.0001  0.0002  0.0012  0.0001  0.0000 </r>
        <r>  0.0293  0.0003  0.0005  0.0001  0.0001  0.0002  0.0012  0.0001  0.0000 </r>
        <r>  0.0044  0.0043  0.0291  0.0204  0.0001  0.0003  0.0000  0.0002  0.0005 </r>
        <r>  0.0005  0.0197  0.0151  0.0066  0.0006  0.0000  0.0001  0.0000  0.0002 </r>
        <r>  0.0045  0.0167  0.0295  0.0079  0.0005  0.0004  0.0000  0.0001  0.0001 </r>
        <r>  0.0044  0.0043  0.0291  0.0204  0.0001  0.0003  0.0000  0.0002  0.0005 </r>
        <r>  0.0005  0.0197  0.0151  0.0066  0.0006  0.0000  0.0001  0.0000  0.0002 </r>
        <r>  0.0045  0.0167  0.0295  0.0079  0.0005  0.0004  0.0000  0.0001  0.0001 </r>
       </set>
       <set comment="band 34">
        <r>  0.0001  0.0003  0.0003  0.0003  0.0150  0.0694  0.0052  0.0747  0.0136 </r>
        <r>  0.0001  0.0003  0.0003  0.0003  0.0150  0.0694  0.0052  0.0747  0.0136 </r>
        <r>  0.0000  0.0036  0.0000  0.0109  0.0003  0.0002  0.0000  0.0005  0.0008 </r>
        <r>  0.0000  0.0036  0.0000  0.0109  0.0003  0.0002  0.0000  0.0005  0.0008 </r>
        <r>  0.0075  0.0186  0.0214  0.0136  0.0002  0.0003  0.0001  0.0001  0.0001 </r>
        <r>  0.0000  0.0055  0.0000  0.0161  0.0001  0.0004  0.0000  0.0011  0.0003 </r>
        <r>  0.0075  0.0054  0.0210  0.0269  0.0000  0.0000  0.0001  0.0004  0.0003 </r>
        <r>  0.0075  0.0186  0.0214  0.0136  0.0002  0.0003  0.0001  0.0001  0.0001 </r>
        <r>  0.0000  0.0055  0.0000  0.0161  0.0001  0.0004  0.0000  0.0011  0.0003 </r>
        <r>  0.0075  0.0054  0.0210  0.0269  0.0000  0.0000  0.0001  0.0004  0.0003 </r>
       </set>
       <set comment="band 35">
        <r>  0.0000  0.0001  0.0005  0.0001  0.0066  0.0212  0.0016  0.0246  0.0052 </r>
        <r>  0.0000  0.0001  0.0005  0.0001  0.0066  0.0212  0.0016  0.0246  0.0052 </r>
        <r>  0.0462  0.0028  0.0028  0.0010  0.0000  0.0002  0.0004  0.0001  0.0000 </r>
        <r>  0.0462  0.0028  0.0028  0.0010  0.0000  0.0002  0.0004  0.0001  0.0000 </r>
        <r>  0.0023  0.0138  0.0039  0.0308  0.0002  0.0002  0.0001  0.0001  0.0008 </r>
        <r>  0.0093  0.0479  0.0197  0.0160  0.0013  0.0001  0.0001  0.0000  0.0004 </r>
        <r>  0.0023  0.0090  0.0039  0.0353  0.0010  0.0001  0.0001  0.0002  0.0000 </r>
        <r>  0.0023  0.0138  0.0039  0.0308  0.0002  0.0002  0.0001  0.0001  0.0008 </r>
        <r>  0.0093  0.0479  0.0197  0.0160  0.0013  0.0001  0.0001  0.0000  0.0004 </r>
        <r>  0.0023  0.0090  0.0039  0.0353  0.0010  0.0001  0.0001  0.0002  0.0000 </r>
       </set>
       <set comment="band 36">
        <r>  0.0013  0.0005  0.0007  0.0003  0.0075  0.0602  0.0000  0.0649  0.0094 </r>
        <r>  0.0013  0.0005  0.0007  0.0003  0.0075  0.0602  0.0000  0.0649  0.0094 </r>
        <r>  0.0000  0.0016  0.0000  0.0049  0.0002  0.0000  0.0000  0.0000  0.0007 </r>
        <r>  0.0000  0.0016  0.0000  0.0049  0.0002  0.0000  0.0000  0.0000  0.0007 </r>
        <r>  0.0021  0.0554  0.0013  0.0017  0.0008  0.0003  0.0000  0.0001  0.0005 </r>
        <r>  0.0000  0.0133  0.0000  0.0398  0.0005  0.0003  0.0000  0.0008  0.0016 </r>
        <r>  0.0021  0.0095  0.0014  0.0479  0.0000  0.0000  0.0000  0.0004  0.0013 </r>
        <r>  0.0021  0.0554  0.0013  0.0017  0.0008  0.0003  0.0000  0.0001  0.0005 </r>
        <r>  0.0000  0.0133  0.0000  0.0398  0.0005  0.0003  0.0000  0.0008  0.0016 </r>
        <r>  0.0021  0.0095  0.0014  0.0479  0.0000  0.0000  0.0000  0.0004  0.0013 </r>
       </set>
       <set comment="band 37">
        <r>  0.0003  0.0006  0.0000  0.0014  0.0019  0.0369  0.0001  0.0196  0.0013 </r>
        <r>  0.0003  0.0006  0.0000  0.0014  0.0019  0.0369  0.0001  0.0196  0.0013 </r>
        <r>  0.0224  0.0003  0.0707  0.0001  0.0000  0.0000  0.0009  0.0000  0.0000 </r>
        <r>  0.0224  0.0003  0.0707  0.0001  0.0000  0.0000  0.0009  0.0000  0.0000 </r>
        <r>  0.0001  0.0002  0.0357  0.0232  0.0001  0.0001  0.0009  0.0004  0.0011 </r>
        <r>  0.0000  0.0090  0.0075  0.0030  0.0006  0.0008  0.0004  0.0003  0.0002 </r>
        <r>  0.0001  0.0158  0.0357  0.0076  0.0011  0.0003  0.0010  0.0001  0.0001 </r>
        <r>  0.0001  0.0002  0.0357  0.0232  0.0001  0.0001  0.0009  0.0004  0.0011 </r>
        <r>  0.0000  0.0090  0.0075  0.0030  0.0006  0.0008  0.0004  0.0003  0.0002 </r>
        <r>  0.0001  0.0158  0.0357  0.0076  0.0011  0.0003  0.0010  0.0001  0.0001 </r>
       </set>
       <set comment="band 38">
        <r>  0.0369  0.0003  0.0011  0.0007  0.0033  0.0011  0.0013  0.0025  0.0042 </r>
        <r>  0.0369  0.0003  0.0011  0.0007  0.0033  0.0011  0.0013  0.0025  0.0042 </r>
        <r>  0.0004  0.0577  0.0000  0.0192  0.0046  0.0024  0.0001  0.0008  0.0015 </r>
        <r>  0.0004  0.0577  0.0000  0.0192  0.0046  0.0024  0.0001  0.0008  0.0015 </r>
        <r>  0.0015  0.0003  0.0002  0.0047  0.0045  0.0019  0.0002  0.0006  0.0021 </r>
        <r>  0.0099  0.0327  0.0010  0.0109  0.0039  0.0014  0.0017  0.0005  0.0013 </r>
        <r>  0.0015  0.0038  0.0002  0.0012  0.0036  0.0011  0.0002  0.0014  0.0030 </r>
        <r>  0.0015  0.0003  0.0002  0.0047  0.0045  0.0019  0.0002  0.0006  0.0021 </r>
        <r>  0.0099  0.0327  0.0010  0.0109  0.0039  0.0014  0.0017  0.0005  0.0013 </r>
        <r>  0.0015  0.0038  0.0002  0.0012  0.0036  0.0011  0.0002  0.0014  0.0030 </r>
       </set>
       <set comment="band 39">
        <r>  0.0335  0.0032  0.0010  0.0014  0.0090  0.0025  0.0027  0.0036  0.0052 </r>
        <r>  0.0335  0.0032  0.0010  0.0014  0.0090  0.0025  0.0027  0.0036  0.0052 </r>
        <r>  0.0000  0.0144  0.0000  0.0432  0.0012  0.0006  0.0000  0.0018  0.0037 </r>
        <r>  0.0000  0.0144  0.0000  0.0432  0.0012  0.0006  0.0000  0.0018  0.0037 </r>
        <r>  0.0060  0.0132  0.0002  0.0276  0.0024  0.0006  0.0013  0.0009  0.0036 </r>
        <r>  0.0000  0.0011  0.0000  0.0033  0.0015  0.0004  0.0000  0.0011  0.0045 </r>
        <r>  0.0060  0.0391  0.0002  0.0017  0.0026  0.0009  0.0013  0.0006  0.0034 </r>
        <r>  0.0060  0.0132  0.0002  0.0276  0.0024  0.0006  0.0013  0.0009  0.0036 </r>
        <r>  0.0000  0.0011  0.0000  0.0033  0.0015  0.0004  0.0000  0.0011  0.0045 </r>
        <r>  0.0060  0.0391  0.0002  0.0017  0.0026  0.0009  0.0013  0.0006  0.0034 </r>
       </set>
       <set comment="band 40">
        <r>  0.0012  0.0003  0.0050  0.0007  0.0012  0.0055  0.0014  0.0025  0.0035 </r>
        <r>  0.0012  0.0003  0.0050  0.0007  0.0012  0.0055  0.0014  0.0025  0.0035 </r>
        <r>  0.0000  0.0182  0.0000  0.0539  0.0015  0.0002  0.0000  0.0007  0.0045 </r>
        <r>  0.0000  0.0182  0.0000  0.0539  0.0015  0.0002  0.0000  0.0007  0.0045 </r>
        <r>  0.0072  0.0160  0.0009  0.0210  0.0018  0.0002  0.0014  0.0003  0.0052 </r>
        <r>  0.0000  0.0020  0.0000  0.0061  0.0021  0.0001  0.0000  0.0002  0.0064 </r>
        <r>  0.0072  0.0357  0.0009  0.0014  0.0031  0.0003  0.0014  0.0001  0.0039 </r>
        <r>  0.0072  0.0160  0.0009  0.0210  0.0018  0.0002  0.0014  0.0003  0.0052 </r>
        <r>  0.0000  0.0020  0.0000  0.0061  0.0021  0.0001  0.0000  0.0002  0.0064 </r>
        <r>  0.0072  0.0357  0.0009  0.0014  0.0031  0.0003  0.0014  0.0001  0.0039 </r>
       </set>
       <set comment="band 41">
        <r>  0.0036  0.0005  0.0047  0.0013  0.0016  0.0001  0.0031  0.0003  0.0026 </r>
        <r>  0.0036  0.0005  0.0047  0.0013  0.0016  0.0001  0.0031  0.0003  0.0026 </r>
        <r>  0.0004  0.0734  0.0017  0.0247  0.0060  0.0009  0.0006  0.0003  0.0020 </r>
        <r>  0.0004  0.0734  0.0017  0.0247  0.0060  0.0009  0.0006  0.0003  0.0020 </r>
        <r>  0.0013  0.0011  0.0009  0.0017  0.0060  0.0002  0.0006  0.0003  0.0027 </r>
        <r>  0.0155  0.0292  0.0009  0.0097  0.0044  0.0002  0.0018  0.0001  0.0015 </r>
        <r>  0.0013  0.0004  0.0009  0.0024  0.0053  0.0002  0.0006  0.0003  0.0035 </r>
        <r>  0.0013  0.0011  0.0009  0.0017  0.0060  0.0002  0.0006  0.0003  0.0027 </r>
        <r>  0.0155  0.0292  0.0009  0.0097  0.0044  0.0002  0.0018  0.0001  0.0015 </r>
        <r>  0.0013  0.0004  0.0009  0.0024  0.0053  0.0002  0.0006  0.0003  0.0035 </r>
       </set>
       <set comment="band 42">
        <r>  0.0002  0.0023  0.0004  0.0008  0.0031  0.0013  0.0001  0.0014  0.0036 </r>
        <r>  0.0002  0.0023  0.0004  0.0008  0.0031  0.0013  0.0001  0.0014  0.0036 </r>
        <r>  0.0173  0.0011  0.0795  0.0004  0.0001  0.0000  0.0108  0.0000  0.0000 </r>
        <r>  0.0173  0.0011  0.0795  0.0004  0.0001  0.0000  0.0108  0.0000  0.0000 </r>
        <r>  0.0011  0.0002  0.0090  0.0003  0.0001  0.0006  0.0005  0.0046  0.0000 </r>
        <r>  0.0001  0.0007  0.0214  0.0002  0.0003  0.0023  0.0005  0.0008  0.0001 </r>
        <r>  0.0011  0.0004  0.0089  0.0001  0.0000  0.0046  0.0005  0.0005  0.0001 </r>
        <r>  0.0011  0.0002  0.0090  0.0003  0.0001  0.0006  0.0005  0.0046  0.0000 </r>
        <r>  0.0001  0.0007  0.0214  0.0002  0.0003  0.0023  0.0005  0.0008  0.0001 </r>
        <r>  0.0011  0.0004  0.0089  0.0001  0.0000  0.0046  0.0005  0.0005  0.0001 </r>
       </set>
       <set comment="band 43">
        <r>  0.0392  0.0051  0.0043  0.0064  0.0012  0.0007  0.0031  0.0003  0.0024 </r>
        <r>  0.0392  0.0051  0.0043  0.0064  0.0012  0.0007  0.0031  0.0003  0.0024 </r>
        <r>  0.0003  0.0149  0.0012  0.0050  0.0008  0.0006  0.0003  0.0002  0.0003 </r>
        <r>  0.0003  0.0149  0.0012  0.0050  0.0008  0.0006  0.0003  0.0002  0.0003 </r>
        <r>  0.0003  0.0092  0.0002  0.0010  0.0008  0.0157  0.0006  0.0010  0.0006 </r>
        <r>  0.0007  0.0085  0.0127  0.0029  0.0002  0.0017  0.0034  0.0006  0.0001 </r>
        <r>  0.0003  0.0013  0.0002  0.0088  0.0012  0.0075  0.0006  0.0093  0.0002 </r>
        <r>  0.0003  0.0092  0.0002  0.0010  0.0008  0.0157  0.0006  0.0010  0.0006 </r>
        <r>  0.0007  0.0085  0.0127  0.0029  0.0002  0.0017  0.0034  0.0006  0.0001 </r>
        <r>  0.0003  0.0013  0.0002  0.0088  0.0012  0.0075  0.0006  0.0093  0.0002 </r>
       </set>
       <set comment="band 44">
        <r>  0.0101  0.0055  0.0030  0.0035  0.0014  0.0002  0.0007  0.0001  0.0017 </r>
        <r>  0.0101  0.0055  0.0030  0.0035  0.0014  0.0002  0.0007  0.0001  0.0017 </r>
        <r>  0.0000  0.0016  0.0000  0.0047  0.0001  0.0001  0.0000  0.0004  0.0004 </r>
        <r>  0.0000  0.0016  0.0000  0.0047  0.0001  0.0001  0.0000  0.0004  0.0004 </r>
        <r>  0.0012  0.0018  0.0094  0.0025  0.0003  0.0027  0.0021  0.0028  0.0004 </r>
        <r>  0.0000  0.0014  0.0000  0.0042  0.0002  0.0025  0.0000  0.0076  0.0006 </r>
        <r>  0.0012  0.0032  0.0094  0.0011  0.0001  0.0009  0.0021  0.0046  0.0005 </r>
        <r>  0.0012  0.0018  0.0094  0.0025  0.0003  0.0027  0.0021  0.0028  0.0004 </r>
        <r>  0.0000  0.0014  0.0000  0.0042  0.0002  0.0025  0.0000  0.0076  0.0006 </r>
        <r>  0.0012  0.0032  0.0094  0.0011  0.0001  0.0009  0.0021  0.0046  0.0005 </r>
       </set>
       <set comment="band 45">
        <r>  0.0001  0.0005  0.0000  0.0015  0.0001  0.0002  0.0012  0.0002  0.0002 </r>
        <r>  0.0001  0.0005  0.0000  0.0015  0.0001  0.0002  0.0012  0.0002  0.0002 </r>
        <r>  0.0017  0.0008  0.0033  0.0003  0.0002  0.0000  0.0023  0.0000  0.0001 </r>
        <r>  0.0017  0.0008  0.0033  0.0003  0.0002  0.0000  0.0023  0.0000  0.0001 </r>
        <r>  0.0001  0.0001  0.0009  0.0014  0.0001  0.0001  0.0003  0.0002  0.0000 </r>
        <r>  0.0029  0.0022  0.0033  0.0007  0.0001  0.0002  0.0045  0.0001  0.0000 </r>
        <r>  0.0001  0.0007  0.0009  0.0008  0.0000  0.0001  0.0003  0.0002  0.0001 </r>
        <r>  0.0001  0.0001  0.0009  0.0014  0.0001  0.0001  0.0003  0.0002  0.0000 </r>
        <r>  0.0029  0.0022  0.0033  0.0007  0.0001  0.0002  0.0045  0.0001  0.0000 </r>
        <r>  0.0001  0.0007  0.0009  0.0008  0.0000  0.0001  0.0003  0.0002  0.0001 </r>
       </set>
       <set comment="band 46">
        <r>  0.0032  0.0007  0.0000  0.0012  0.0001  0.0000  0.0029  0.0000  0.0002 </r>
        <r>  0.0032  0.0007  0.0000  0.0012  0.0001  0.0000  0.0029  0.0000  0.0002 </r>
        <r>  0.0000  0.0006  0.0000  0.0017  0.0000  0.0000  0.0000  0.0000  0.0001 </r>
        <r>  0.0000  0.0006  0.0000  0.0017  0.0000  0.0000  0.0000  0.0000  0.0001 </r>
        <r>  0.0028  0.0005  0.0020  0.0023  0.0000  0.0000  0.0034  0.0001  0.0002 </r>
        <r>  0.0000  0.0003  0.0000  0.0010  0.0000  0.0000  0.0000  0.0001  0.0001 </r>
        <r>  0.0028  0.0022  0.0020  0.0006  0.0001  0.0001  0.0034  0.0001  0.0001 </r>
        <r>  0.0028  0.0005  0.0020  0.0023  0.0000  0.0000  0.0034  0.0001  0.0002 </r>
        <r>  0.0000  0.0003  0.0000  0.0010  0.0000  0.0000  0.0000  0.0001  0.0001 </r>
        <r>  0.0028  0.0022  0.0020  0.0006  0.0001  0.0001  0.0034  0.0001  0.0001 </r>
       </set>
       <set comment="band 47">
        <r>  0.0149  0.0006  0.0045  0.0011  0.0008  0.0003  0.0000  0.0002  0.0018 </r>
        <r>  0.0149  0.0006  0.0045  0.0011  0.0008  0.0003  0.0000  0.0002  0.0018 </r>
        <r>  0.0010  0.0059  0.0117  0.0020  0.0004  0.0028  0.0013  0.0009  0.0001 </r>
        <r>  0.0010  0.0059  0.0117  0.0020  0.0004  0.0028  0.0013  0.0009  0.0001 </r>
        <r>  0.0001  0.0030  0.0053  0.0007  0.0005  0.0057  0.0000  0.0000  0.0003 </r>
        <r>  0.0012  0.0016  0.0095  0.0005  0.0017  0.0053  0.0014  0.0018  0.0006 </r>
        <r>  0.0001  0.0005  0.0053  0.0031  0.0001  0.0015  0.0000  0.0041  0.0007 </r>
        <r>  0.0001  0.0030  0.0053  0.0007  0.0005  0.0057  0.0000  0.0000  0.0003 </r>
        <r>  0.0012  0.0016  0.0095  0.0005  0.0017  0.0053  0.0014  0.0018  0.0006 </r>
        <r>  0.0001  0.0005  0.0053  0.0031  0.0001  0.0015  0.0000  0.0041  0.0007 </r>
       </set>
       <set comment="band 48">
        <r>  0.0403  0.0035  0.0016  0.0057  0.0000  0.0002  0.0010  0.0005  0.0001 </r>
        <r>  0.0403  0.0035  0.0016  0.0057  0.0000  0.0002  0.0010  0.0005  0.0001 </r>
        <r>  0.0000  0.0021  0.0000  0.0063  0.0001  0.0001  0.0000  0.0002  0.0003 </r>
        <r>  0.0000  0.0021  0.0000  0.0063  0.0001  0.0001  0.0000  0.0002  0.0003 </r>
        <r>  0.0013  0.0024  0.0082  0.0019  0.0002  0.0027  0.0003  0.0010  0.0000 </r>
        <r>  0.0000  0.0040  0.0000  0.0121  0.0000  0.0052  0.0000  0.0155  0.0001 </r>
        <r>  0.0013  0.0029  0.0081  0.0013  0.0001  0.0009  0.0003  0.0028  0.0002 </r>
        <r>  0.0013  0.0024  0.0082  0.0019  0.0002  0.0027  0.0003  0.0010  0.0000 </r>
        <r>  0.0000  0.0040  0.0000  0.0121  0.0000  0.0052  0.0000  0.0155  0.0001 </r>
        <r>  0.0013  0.0029  0.0081  0.0013  0.0001  0.0009  0.0003  0.0028  0.0002 </r>
       </set>
      </set>
     </set>
    </set>
   </array>
  </projected>
 </calculation>
 <structure name="finalpos" >
  <crystal>
   <varray name="basis" >
    <v>       6.82487685       0.00000014       0.00000000 </v>
    <v>       3.41243783       5.91051645       0.00000000 </v>
    <v>       0.00000000       0.00000000      22.43543131 </v>
   </varray>
   <i name="volume">    905.01268834 </i>
   <varray name="rec_basis" >
    <v>       0.14652279      -0.08459496       0.00000000 </v>
    <v>      -0.00000000       0.16918995      -0.00000000 </v>
    <v>      -0.00000000      -0.00000000       0.04457235 </v>
   </varray>
  </crystal>
  <varray name="positions" >
   <v>       0.33333300       0.33333300       0.49995978 </v>
   <v>       0.66666700       0.66666700       0.50004022 </v>
   <v>      -0.00000000       0.00000000       0.44351707 </v>
   <v>      -0.00000000       0.00000000       0.55648293 </v>
   <v>       0.60633440       0.00010046       0.57087118 </v>
   <v>       0.00010046       0.39356614       0.57087118 </v>
   <v>       0.39356614       0.60633440       0.57087118 </v>
   <v>       0.39366560       0.99989954       0.42912882 </v>
   <v>       0.99989954       0.60643386       0.42912882 </v>
   <v>       0.60643386       0.39366560       0.42912882 </v>
  </varray>
 </structure>
</modeling>
