unknown system                          
           1
     6.907777   -0.000000    0.000000
     3.453888    5.982310    0.000000
     0.000000    0.000000   23.444588
   Ni   Ge   Te
   2   2   6
Direct configuration=     1
   0.33333300  0.33333300  0.49992500
   0.66666700  0.66666700  0.50007500
   0.00000000  0.00000000  0.44821600
   0.00000000  0.00000000  0.55178400
   0.62635700  0.00042000  0.57375200
   0.00042000  0.37322400  0.57375200
   0.37322400  0.62635700  0.57375200
   0.37364300  0.99958000  0.42624800
   0.99958000  0.62677600  0.42624800
   0.62677600  0.37364300  0.42624800
unknown system                          
           1
     6.751590    0.000000    0.000000
     3.375795    5.847048   -0.000000
    -0.000000    0.000000   22.920684
   Ni   Ge   Te
   2   2   6
Direct configuration=     2
   0.33333300  0.33333300  0.49993303
   0.66666700  0.66666700  0.50006697
   0.00000000  0.00000000  0.44750558
   0.00000000 -0.00000000  0.55249442
   0.62335625  0.00037297  0.57260424
   0.00037297  0.37627178  0.57260424
   0.37627178  0.62335625  0.57260424
   0.37664375  0.99962703  0.42739576
   0.99962703  0.62372822  0.42739576
   0.62372822  0.37664375  0.42739576
unknown system                          
           1
     6.735876    0.000000    0.000000
     3.367937    5.833439   -0.000000
    -0.000000    0.000000   22.867972
   Ni   Ge   Te
   2   2   6
Direct configuration=     3
   0.33333300  0.33333300  0.49993386
   0.66666700  0.66666700  0.50006614
   0.00000000  0.00000000  0.44743247
   0.00000000 -0.00000000  0.55256753
   0.62304735  0.00036813  0.57248612
   0.00036813  0.37658552  0.57248612
   0.37658552  0.62304735  0.57248612
   0.37695265  0.99963187  0.42751388
   0.99963187  0.62341448  0.42751388
   0.62341448  0.37695265  0.42751388
unknown system                          
           1
     6.753004    0.000000   -0.000000
     3.376501    5.848273   -0.000000
    -0.000000   -0.000000   22.557329
   Ni   Ge   Te
   2   2   6
Direct configuration=     4
   0.33333300  0.33333300  0.49993631
   0.66666700  0.66666700  0.50006369
   0.00000000  0.00000000  0.44586522
   0.00000000 -0.00000000  0.55413478
   0.61668810  0.00028398  0.57155181
   0.00028398  0.38302892  0.57155181
   0.38302892  0.61668810  0.57155181
   0.38331190  0.99971602  0.42844819
   0.99971602  0.61697108  0.42844819
   0.61697108  0.38331190  0.42844819
unknown system                          
           1
     6.771478    0.000000   -0.000000
     3.385739    5.864272   -0.000000
    -0.000000   -0.000000   22.222269
   Ni   Ge   Te
   2   2   6
Direct configuration=     5
   0.33333300  0.33333300  0.49993899
   0.66666700  0.66666700  0.50006101
  -0.00000000  0.00000000  0.44415151
  -0.00000000 -0.00000000  0.55584849
   0.60984640  0.00019344  0.57053019
   0.00019344  0.38996116  0.57053019
   0.38996116  0.60984640  0.57053019
   0.39015360  0.99980656  0.42946981
   0.99980656  0.61003884  0.42946981
   0.61003884  0.39015360  0.42946981
unknown system                          
           1
     6.899838    0.000000   -0.000000
     3.449919    5.975435   -0.000000
    -0.000000   -0.000000   22.495847
   Ni   Ge   Te
   2   2   6
Direct configuration=     6
   0.33333300  0.33333300  0.49994092
   0.66666700  0.66666700  0.50005908
  -0.00000000  0.00000000  0.44332389
  -0.00000000  0.00000000  0.55667611
   0.60750661  0.00016576  0.57097220
   0.00016576  0.39232863  0.57097220
   0.39232863  0.60750661  0.57097220
   0.39249339  0.99983424  0.42902780
   0.99983424  0.60767137  0.42902780
   0.60767137  0.39249339  0.42902780
unknown system                          
           1
     6.837901    0.000000   -0.000000
     3.418950    5.921796   -0.000000
    -0.000000   -0.000000   22.363837
   Ni   Ge   Te
   2   2   6
Direct configuration=     7
   0.33333300  0.33333300  0.49994000
   0.66666700  0.66666700  0.50006000
  -0.00000000  0.00000000  0.44371838
  -0.00000000  0.00000000  0.55628162
   0.60861463  0.00017886  0.57076151
   0.00017886  0.39120751  0.57076151
   0.39120751  0.60861463  0.57076151
   0.39138537  0.99982114  0.42923849
   0.99982114  0.60879249  0.42923849
   0.60879249  0.39138537  0.42923849
unknown system                          
           1
     6.832152    0.000000   -0.000000
     3.416075    5.916817   -0.000000
    -0.000000    0.000000   22.382242
   Ni   Ge   Te
   2   2   6
Direct configuration=     8
   0.33333300  0.33333300  0.49994486
   0.66666700  0.66666700  0.50005514
  -0.00000000  0.00000000  0.44364333
  -0.00000000  0.00000000  0.55635667
   0.60794356  0.00015520  0.57079594
   0.00015520  0.39190224  0.57079594
   0.39190224  0.60794356  0.57079594
   0.39205644  0.99984480  0.42920406
   0.99984480  0.60809776  0.42920406
   0.60809776  0.39205644  0.42920406
unknown system                          
           1
     6.821005    0.000000    0.000000
     3.410502    5.907163    0.000000
    -0.000000    0.000000   22.417928
   Ni   Ge   Te
   2   2   6
Direct configuration=     9
   0.33333300  0.33333300  0.49995428
   0.66666700  0.66666700  0.50004572
  -0.00000000  0.00000000  0.44349793
  -0.00000000  0.00000000  0.55650207
   0.60664129  0.00010927  0.57086265
   0.00010927  0.39325044  0.57086265
   0.39325044  0.60664129  0.57086265
   0.39335871  0.99989073  0.42913735
   0.99989073  0.60674956  0.42913735
   0.60674956  0.39335871  0.42913735
unknown system                          
           1
     6.831740    0.000000    0.000000
     3.415869    5.916460    0.000000
     0.000000    0.000000   22.466453
   Ni   Ge   Te
   2   2   6
Direct configuration=    10
   0.33333300  0.33333300  0.49996947
   0.66666700  0.66666700  0.50003053
  -0.00000000  0.00000000  0.44355080
  -0.00000000  0.00000000  0.55644920
   0.60579284  0.00008492  0.57088621
   0.00008492  0.39412323  0.57088621
   0.39412323  0.60579284  0.57088621
   0.39420716  0.99991508  0.42911379
   0.99991508  0.60587677  0.42911379
   0.60587677  0.39420716  0.42911379
unknown system                          
           1
     6.824877    0.000000    0.000000
     3.412438    5.910516    0.000000
     0.000000    0.000000   22.435431
   Ni   Ge   Te
   2   2   6
Direct configuration=    11
   0.33333300  0.33333300  0.49995978
   0.66666700  0.66666700  0.50004022
  -0.00000000  0.00000000  0.44351707
  -0.00000000  0.00000000  0.55648293
   0.60633440  0.00010046  0.57087118
   0.00010046  0.39356614  0.57087118
   0.39356614  0.60633440  0.57087118
   0.39366560  0.99989954  0.42912882
   0.99989954  0.60643386  0.42912882
   0.60643386  0.39366560  0.42912882
