 vasp.5.4.4.18Apr17-6-g9f103f2a35 (build May  1 2020 15:48:39) complex           
 executed on             LinuxGNU date 2020.06.26  09:38:36
 running on   16 total cores
 distrk:  each k-point on   16 cores,    1 groups
 distr:  one band on NCORES_PER_BAND=   1 cores,   16 groups


--------------------------------------------------------------------------------------------------------


 INCAR:
 POTCAR:   PAW_PBE Ni 06Sep2000                   
 POTCAR:   PAW_PBE Ge 05Jan2001                   
 POTCAR:    PAW_PBE P 17Jan2003                   
 POTCAR:   PAW_PBE Te 08Apr2002                   

 ----------------------------------------------------------------------------- 
|                                                                             |
|           W    W    AA    RRRRR   N    N  II  N    N   GGGG   !!!           |
|           W    W   A  A   R    R  NN   N  II  NN   N  G    G  !!!           |
|           W    W  A    A  R    R  N N  N  II  N N  N  G       !!!           |
|           W WW W  AAAAAA  RRRRR   N  N N  II  N  N N  G  GGG   !            |
|           WW  WW  A    A  R   R   N   NN  II  N   NN  G    G                |
|           W    W  A    A  R    R  N    N  II  N    N   GGGG   !!!           |
|                                                                             |
|      For optimal performance we recommend to set                            |
|        NCORE= 4 - approx SQRT( number of cores)                             |
|      NCORE specifies how many cores store one orbital (NPAR=cpu/NCORE).     |
|      This setting can  greatly improve the performance of VASP for DFT.     |
|      The default,   NCORE=1            might be grossly inefficient         |
|      on modern multi-core architectures or massively parallel machines.     |
|      Do your own testing !!!!                                               |
|      Unfortunately you need to use the default for GW and RPA calculations. |
|      (for HF NCORE is supported but not extensively tested yet)             |
|                                                                             |
 ----------------------------------------------------------------------------- 


 ----------------------------------------------------------------------------- 
|                                                                             |
|  ADVICE TO THIS USER RUNNING 'VASP/VAMP'   (HEAR YOUR MASTER'S VOICE ...):  |
|                                                                             |
|      You have switched on vdW-DFT.                                          |
|      This routine was written and supplied by Jiri Klimes.                  |
|      We recommed that you carefully read and cite the following             |
|      publication                                                            |
|      J. Klimes, D.R. Bowler, A. Michelides                                  |
|        J. Phys.: Cond Matt. 22 022201 (2010)                                |
|      J. Klimes, D.R. Bowler, A. Michelides                                  |
|        Phys. Rev. B. 83, 195131 (2011)                                      |
|      and references therein.                                                |
|                                                                             |
 ----------------------------------------------------------------------------- 

 POTCAR:   PAW_PBE Ni 06Sep2000                   
   VRHFIN =Ni:                                                                  
   LEXCH  = PE                                                                  
   EATOM  =  1077.9025 eV,   79.2236 Ry                                         
                                                                                
   TITEL  = PAW_PBE Ni 06Sep2000                                                
   LULTRA =        F    use ultrasoft PP ?                                      
   IUNSCR =        1    unscreen: 0-lin 1-nonlin 2-no                           
   RPACOR =    2.000    partial core radius                                     
   POMASS =   58.690; ZVAL   =   10.000    mass and valenz                      
   RCORE  =    2.300    outmost cutoff radius                                   
   RWIGS  =    2.430; RWIGS  =    1.286    wigner-seitz radius (au A)           
   ENMAX  =  269.533; ENMIN  =  202.150 eV                                      
   RCLOC  =    1.681    cutoff for local pot                                    
   LCOR   =        T    correct aug charges                                     
   LPAW   =        T    paw PP                                                  
   EAUG   =  544.565                                                            
   DEXC   =    -.009                                                            
   RMAX   =    2.808    core radius for proj-oper                               
   RAUG   =    1.300    factor for augmentation sphere                          
   RDEP   =    2.390    radius for radial grids                                 
   QCUT   =   -4.451; QGAM   =    8.902    optimization parameters              
                                                                                
   Description                                                                  
     l     E      TYP  RCUT    TYP  RCUT                                        
     2   .000     23  2.300                                                     
     2   .000     23  2.300                                                     
     0   .000     23  2.300                                                     
     0   .000     23  2.300                                                     
     1  -.200     23  2.300                                                     
     1   .000     23  2.300                                                     
     3   .000      7   .000                                                     
  local pseudopotential read in
  partial core-charges read in
  atomic valenz-charges read in
  non local Contribution for L=           2  read in
    real space projection operators read in
  non local Contribution for L=           2  read in
    real space projection operators read in
  non local Contribution for L=           0  read in
    real space projection operators read in
  non local Contribution for L=           0  read in
    real space projection operators read in
  non local Contribution for L=           1  read in
    real space projection operators read in
  non local Contribution for L=           1  read in
    real space projection operators read in
    PAW grid and wavefunctions read in

   number of l-projection  operators is LMAX  =           6
   number of lm-projection operators is LMMAX =          18

 POTCAR:   PAW_PBE Ge 05Jan2001                   
   VRHFIN =Ge: s2p2                                                             
   LEXCH  = PE                                                                  
   EATOM  =   104.9960 eV,    7.7170 Ry                                         
                                                                                
   TITEL  = PAW_PBE Ge 05Jan2001                                                
   LULTRA =        F    use ultrasoft PP ?                                      
   IUNSCR =        1    unscreen: 0-lin 1-nonlin 2-no                           
   RPACOR =    2.170    partial core radius                                     
   POMASS =   72.610; ZVAL   =    4.000    mass and valenz                      
   RCORE  =    2.300    outmost cutoff radius                                   
   RWIGS  =    2.300; RWIGS  =    1.217    wigner-seitz radius (au A)           
   ENMAX  =  173.807; ENMIN  =  130.355 eV                                      
   ICORE  =        3    local potential                                         
   LCOR   =        T    correct aug charges                                     
   LPAW   =        T    paw PP                                                  
   EAUG   =  385.843                                                            
   DEXC   =    -.138                                                            
   RMAX   =    3.497    core radius for proj-oper                               
   RAUG   =    1.300    factor for augmentation sphere                          
   RDEP   =    2.318    radius for radial grids                                 
   QCUT   =   -3.574; QGAM   =    7.148    optimization parameters              
                                                                                
   Description                                                                  
     l     E      TYP  RCUT    TYP  RCUT                                        
     0   .000     23  2.300                                                     
     0   .000     23  2.300                                                     
     1   .000     23  2.300                                                     
     1   .000     23  2.300                                                     
     2   .000     23  2.300                                                     
     3  -.100      7  2.300                                                     
  local pseudopotential read in
  partial core-charges read in
  atomic valenz-charges read in
  non local Contribution for L=           0  read in
    real space projection operators read in
  non local Contribution for L=           0  read in
    real space projection operators read in
  non local Contribution for L=           1  read in
    real space projection operators read in
  non local Contribution for L=           1  read in
    real space projection operators read in
  non local Contribution for L=           2  read in
    real space projection operators read in
    PAW grid and wavefunctions read in

   number of l-projection  operators is LMAX  =           5
   number of lm-projection operators is LMMAX =          13

 POTCAR:    PAW_PBE P 17Jan2003                   
   VRHFIN =P : s2p3                                                             
   LEXCH  = PE                                                                  
   EATOM  =   176.0430 eV,   12.9388 Ry                                         
                                                                                
   TITEL  = PAW_PBE P 17Jan2003                                                 
   LULTRA =        F    use ultrasoft PP ?                                      
   IUNSCR =        1    unscreen: 0-lin 1-nonlin 2-no                           
   RPACOR =    1.500    partial core radius                                     
   POMASS =   30.974; ZVAL   =    5.000    mass and valenz                      
   RCORE  =    1.900    outmost cutoff radius                                   
   RWIGS  =    2.330; RWIGS  =    1.233    wigner-seitz radius (au A)           
   ENMAX  =  270.000; ENMIN  =  191.280 eV                                      
   ICORE  =        2    local potential                                         
   LCOR   =        T    correct aug charges                                     
   LPAW   =        T    paw PP                                                  
   EAUG   =  342.924                                                            
   DEXC   =    -.002                                                            
   RMAX   =    2.887    core radius for proj-oper                               
   RAUG   =    1.300    factor for augmentation sphere                          
   RDEP   =    1.931    radius for radial grids                                 
   QCUT   =   -4.330; QGAM   =    8.659    optimization parameters              
                                                                                
   Description                                                                  
     l     E      TYP  RCUT    TYP  RCUT                                        
     0   .000     23  1.900                                                     
     0   .000     23  1.900                                                     
     1   .000     23  1.900                                                     
     1   .000     23  1.900                                                     
     2   .000     23  1.900                                                     
  local pseudopotential read in
  partial core-charges read in
  atomic valenz-charges read in
  non local Contribution for L=           0  read in
    real space projection operators read in
  non local Contribution for L=           0  read in
    real space projection operators read in
  non local Contribution for L=           1  read in
    real space projection operators read in
  non local Contribution for L=           1  read in
    real space projection operators read in
    PAW grid and wavefunctions read in

   number of l-projection  operators is LMAX  =           4
   number of lm-projection operators is LMMAX =           8

 POTCAR:   PAW_PBE Te 08Apr2002                   
   VRHFIN =Te: s2p4                                                             
   LEXCH  = PE                                                                  
   EATOM  =   223.2721 eV,   16.4100 Ry                                         
                                                                                
   TITEL  = PAW_PBE Te 08Apr2002                                                
   LULTRA =        F    use ultrasoft PP ?                                      
   IUNSCR =        1    unscreen: 0-lin 1-nonlin 2-no                           
   RPACOR =    2.200    partial core radius                                     
   POMASS =  127.600; ZVAL   =    6.000    mass and valenz                      
   RCORE  =    2.300    outmost cutoff radius                                   
   RWIGS  =    2.900; RWIGS  =    1.535    wigner-seitz radius (au A)           
   ENMAX  =  174.982; ENMIN  =  131.236 eV                                      
   ICORE  =        3    local potential                                         
   LCOR   =        T    correct aug charges                                     
   LPAW   =        T    paw PP                                                  
   EAUG   =  368.792                                                            
   DEXC   =    -.169                                                            
   RMAX   =    3.486    core radius for proj-oper                               
   RAUG   =    1.300    factor for augmentation sphere                          
   RDEP   =    2.397    radius for radial grids                                 
   QCUT   =   -3.586; QGAM   =    7.172    optimization parameters              
                                                                                
   Description                                                                  
     l     E      TYP  RCUT    TYP  RCUT                                        
     0   .000     23  2.300                                                     
     0   .000     23  2.300                                                     
     1   .000     23  2.300                                                     
     1   .000     23  2.300                                                     
     2   .000     23  2.300                                                     
     3  -.100     23  2.300                                                     
  local pseudopotential read in
  partial core-charges read in
  atomic valenz-charges read in
  non local Contribution for L=           0  read in
    real space projection operators read in
  non local Contribution for L=           0  read in
    real space projection operators read in
  non local Contribution for L=           1  read in
    real space projection operators read in
  non local Contribution for L=           1  read in
    real space projection operators read in
  non local Contribution for L=           2  read in
    real space projection operators read in
    PAW grid and wavefunctions read in

   number of l-projection  operators is LMAX  =           5
   number of lm-projection operators is LMMAX =          13

 Optimization of the real space projectors (new method)

 maximal supplied QI-value         = 16.25
 optimisation between [QCUT,QGAM] = [ 11.54, 23.24] = [ 37.28,151.24] Ry 
 Optimized for a Real-space Cutoff    1.49 Angstroem

   l    n(q)    QCUT    max X(q) W(low)/X(q) W(high)/X(q)  e(spline) 
   2      9    11.539     4.811    0.20E-04    0.14E-04    0.45E-07
   2      9    11.539    15.146    0.24E-03    0.12E-03    0.20E-06
   0     10    11.539    14.357    0.18E-04    0.12E-05    0.14E-07
   0     10    11.539    43.282    0.39E-04    0.17E-04    0.23E-06
   1     10    11.539     5.514    0.99E-05    0.13E-04    0.19E-07
   1     10    11.539     7.697    0.38E-04    0.79E-04    0.91E-07
 Optimization of the real space projectors (new method)

 maximal supplied QI-value         = 16.25
 optimisation between [QCUT,QGAM] = [ 11.54, 23.24] = [ 37.28,151.24] Ry 
 Optimized for a Real-space Cutoff    1.28 Angstroem

   l    n(q)    QCUT    max X(q) W(low)/X(q) W(high)/X(q)  e(spline) 
   0      9    11.539     8.651    0.22E-04    0.16E-04    0.10E-07
   0      9    11.539    33.192    0.11E-03    0.16E-03    0.65E-07
   1      8    11.539     5.899    0.37E-04    0.28E-04    0.43E-07
   1      8    11.539    27.289    0.22E-03    0.28E-04    0.14E-06
   2      8    11.539     4.673    0.11E-03    0.18E-03    0.58E-07
 Optimization of the real space projectors (new method)

 maximal supplied QI-value         = 19.84
 optimisation between [QCUT,QGAM] = [ 11.51, 23.22] = [ 37.09,150.92] Ry 
 Optimized for a Real-space Cutoff    1.21 Angstroem

   l    n(q)    QCUT    max X(q) W(low)/X(q) W(high)/X(q)  e(spline) 
   0      8    11.508     6.651    0.19E-04    0.31E-05    0.49E-08
   0      8    11.508    90.285    0.95E-04    0.17E-03    0.51E-07
   1      8    11.508     4.328    0.14E-04    0.32E-04    0.22E-07
   1      8    11.508    54.583    0.16E-03    0.71E-04    0.89E-07
 Optimization of the real space projectors (new method)

 maximal supplied QI-value         = 16.25
 optimisation between [QCUT,QGAM] = [ 11.54, 23.24] = [ 37.28,151.24] Ry 
 Optimized for a Real-space Cutoff    1.36 Angstroem

   l    n(q)    QCUT    max X(q) W(low)/X(q) W(high)/X(q)  e(spline) 
   0      9    11.539     7.090    0.13E-04    0.25E-05    0.51E-08
   0      9    11.539   101.654    0.53E-04    0.69E-04    0.12E-06
   1      9    11.539     5.276    0.20E-04    0.98E-05    0.24E-07
   1      9    11.539    81.891    0.24E-03    0.13E-04    0.15E-06
   2      9    11.539     5.599    0.30E-04    0.97E-04    0.54E-07

 ----------------------------------------------------------------------------- 
|                                                                             |
|  ADVICE TO THIS USER RUNNING 'VASP/VAMP'   (HEAR YOUR MASTER'S VOICE ...):  |
|                                                                             |
|      You enforced a specific xc-type in the INCAR file,                     |
|      a different type was found on the POTCAR file                          |
|          I HOPE YOU KNOW, WHAT YOU ARE  DOING                               |
|                                                                             |
 ----------------------------------------------------------------------------- 

 PAW_PBE Ni 06Sep2000                   :
 energy of atom  1       EATOM=-1077.9025
 kinetic energy error for atom=    0.0030 (will be added to EATOM!!)
 PAW_PBE Ge 05Jan2001                   :
 energy of atom  2       EATOM= -104.9960
 kinetic energy error for atom=    0.0002 (will be added to EATOM!!)
  PAW_PBE P 17Jan2003                   :
 energy of atom  3       EATOM= -176.0430
 kinetic energy error for atom=    0.0011 (will be added to EATOM!!)
 PAW_PBE Te 08Apr2002                   :
 energy of atom  4       EATOM= -223.2721
 kinetic energy error for atom=    0.0007 (will be added to EATOM!!)


 POSCAR: Ni2 Ge P Te6                            
  positions in direct lattice
  velocities in cartesian coordinates
  No initial velocities read in
 exchange correlation table for  LEXCH =       42
   RHO(1)=    0.500       N(1)  =     2000
   RHO(2)=  100.500       N(2)  =     4000



--------------------------------------------------------------------------------------------------------


 ion  position               nearest neighbor table
   1  0.333  0.333  0.500-   6 2.78   5 2.78   7 2.78   8 2.78  10 2.78   9 2.78
   2  0.667  0.667  0.500-   9 2.78   8 2.78  10 2.78   5 2.78   7 2.78   6 2.78
   3  0.000  0.000  0.448-   4 2.43   8 2.63  10 2.63   9 2.63
   4  0.000  0.000  0.552-   3 2.43   5 2.63   7 2.63   6 2.63
   5  0.626  0.000  0.574-   4 2.63   1 2.78   2 2.78
   6  0.000  0.373  0.574-   4 2.63   1 2.78   2 2.78
   7  0.373  0.626  0.574-   4 2.63   1 2.78   2 2.78
   8  0.374  1.000  0.426-   3 2.63   2 2.78   1 2.78
   9  1.000  0.627  0.426-   3 2.63   2 2.78   1 2.78
  10  0.627  0.374  0.426-   3 2.63   2 2.78   1 2.78

  LATTYP: Found a hexagonal cell.
 ALAT       =     6.9077769333
 C/A-ratio  =     3.3939410937
  
  Lattice vectors:
  
 A1 = (   3.4538890000,  -5.9823100000,   0.0000000000)
 A2 = (  -6.9077770000,   0.0000000000,   0.0000000000)
 A3 = (   0.0000000000,   0.0000000000, -23.4445880000)


Analysis of symmetry for initial positions (statically):
=====================================================================
 Subroutine PRICEL returns:
 Original cell was already a primitive cell.
 

 Routine SETGRP: Setting up the symmetry group for a 
 hexagonal supercell.


 Subroutine GETGRP returns: Found  3 space group operations
 (whereof  3 operations were pure point group operations)
 out of a pool of 24 trial point group operations.


The static configuration has the point symmetry C_3 .


Analysis of symmetry for dynamics (positions and initial velocities):
=====================================================================
 Subroutine PRICEL returns:
 Original cell was already a primitive cell.
 

 Routine SETGRP: Setting up the symmetry group for a 
 hexagonal supercell.


 Subroutine GETGRP returns: Found  3 space group operations
 (whereof  3 operations were pure point group operations)
 out of a pool of 24 trial point group operations.


The dynamic configuration has the point symmetry C_3 .


Analysis of constrained symmetry for selective dynamics:
=====================================================================
 Subroutine PRICEL returns:
 Original cell was already a primitive cell.
 

 Routine SETGRP: Setting up the symmetry group for a 
 hexagonal supercell.


 Subroutine GETGRP returns: Found  3 space group operations
 (whereof  3 operations were pure point group operations)
 out of a pool of 24 trial point group operations.


The constrained configuration has the point symmetry C_3 .


Analysis of structural, dynamic, and magnetic symmetry:
=====================================================================
 Subroutine PRICEL returns:
 Original cell was already a primitive cell.
 

 Routine SETGRP: Setting up the symmetry group for a 
 hexagonal supercell.


 Subroutine GETGRP returns: Found  3 space group operations
 (whereof  3 operations were pure point group operations)
 out of a pool of 24 trial point group operations.


The magnetic configuration has the point symmetry C_3 .


 Subroutine INISYM returns: Found  3 space group operations
 (whereof  3 operations are pure point group operations),
 and found     1 'primitive' translations



 KPOINTS: Kpoints from vasprun.xml                

Automatic generation of k-mesh.
Space group operators:
 irot       det(A)        alpha          n_x          n_y          n_z        tau_x        tau_y        tau_z
    1     1.000000     0.000000     1.000000     0.000000     0.000000     0.000000     0.000000     0.000000
    2     1.000000   120.000000     0.000000     0.000000     1.000000     0.000000     0.000000     0.000000
    3     1.000000   120.000000     0.000000     0.000000    -1.000000     0.000000     0.000000     0.000000
 
 Subroutine IBZKPT returns following result:
 ===========================================
 
 Found      5 irreducible k-points:
 
 Following reciprocal coordinates:
            Coordinates               Weight
  0.000000  0.000000  0.000000      1.000000
  0.200000  0.000000  0.000000      6.000000
  0.400000  0.000000  0.000000      6.000000
  0.400000  0.200000  0.000000      6.000000
 -0.400000  0.200000  0.000000      6.000000
 
 Following cartesian coordinates:
            Coordinates               Weight
  0.000000  0.000000  0.000000      1.000000
  0.028953 -0.016716  0.000000      6.000000
  0.057906 -0.033432  0.000000      6.000000
  0.057906  0.000000  0.000000      6.000000
 -0.057906  0.066864  0.000000      6.000000
 
 TETIRR: Found     15 inequivalent tetrahedra from      150


--------------------------------------------------------------------------------------------------------




 Dimension of arrays:
   k-points           NKPTS =      5   k-points in BZ     NKDIM =      5   number of bands    NBANDS=     48
   number of dos      NEDOS =    301   number of ions     NIONS =     10
   non local maximal  LDIM  =      6   non local SUM 2l+1 LMDIM =     18
   total plane-waves  NPLWV = 524880
   max r-space proj   IRMAX =   7543   max aug-charges    IRDMAX=  31706
   dimension x,y,z NGX =    54 NGY =   54 NGZ =  180
   dimension x,y,z NGXF=   108 NGYF=  108 NGZF=  360
   support grid    NGXF=   108 NGYF=  108 NGZF=  360
   ions per type =               2   1   1   6
   NGX,Y,Z   is equivalent  to a cutoff of  13.00, 13.00, 12.76 a.u.
   NGXF,Y,Z  is equivalent  to a cutoff of  25.99, 25.99, 25.53 a.u.

 SYSTEM =  unknown system                          
 POSCAR =  Ni2 Ge P Te6                            

 Startparameter for this run:
   NWRITE =      2    write-flag & timer
   PREC   = accura    normal or accurate (medium, high low for compatibility)
   ISTART =      0    job   : 0-new  1-cont  2-samecut
   ICHARG =      2    charge: 1-file 2-atom 10-const
   ISPIN  =      2    spin polarized calculation?
   LNONCOLLINEAR =      F non collinear calculations
   LSORBIT =      F    spin-orbit coupling
   INIWAV =      1    electr: 0-lowe 1-rand  2-diag
   LASPH  =      F    aspherical Exc in radial PAW
   METAGGA=      F    non-selfconsistent MetaGGA calc.

 Electronic Relaxation 1
   ENCUT  =  520.0 eV  38.22 Ry    6.18 a.u.  12.84 12.84 43.59*2*pi/ulx,y,z
   ENINI  =  520.0     initial cutoff
   ENAUG  =  544.6 eV  augmentation charge cutoff
   NELM   =    400;   NELMIN=  2; NELMDL=  0     # of ELM steps 
   EDIFF  = 0.1E-03   stopping-criterion for ELM
   LREAL  =      T    real-space projection
   NLSPLINE    = F    spline interpolate recip. space projectors
   LCOMPAT=      F    compatible to vasp.4.4
   GGA_COMPAT  = T    GGA compatible to vasp.4.4-vasp.4.6
   LMAXPAW     = -100 max onsite density
   LMAXMIX     =    2 max onsite mixed and CHGCAR
   VOSKOWN=      0    Vosko Wilk Nusair interpolation
   ROPT   =   -0.00025  -0.00025  -0.00025  -0.00025
 Ionic relaxation
   EDIFFG = 0.1E-02   stopping-criterion for IOM
   NSW    =     99    number of steps for IOM
   NBLOCK =      1;   KBLOCK =     99    inner block; outer block 
   IBRION =      2    ionic relax: 0-MD 1-quasi-New 2-CG
   NFREE  =      1    steps in history (QN), initial steepest desc. (CG)
   ISIF   =      3    stress and relaxation
   IWAVPR =     11    prediction:  0-non 1-charg 2-wave 3-comb
   ISYM   =      2    0-nonsym 1-usesym 2-fastsym
   LCORR  =      T    Harris-Foulkes like correction to forces

   POTIM  = 0.5000    time-step for ionic-motion
   TEIN   =    0.0    initial temperature
   TEBEG  =    0.0;   TEEND  =   0.0 temperature during run
   SMASS  =  -3.00    Nose mass-parameter (am)
   estimated Nose-frequenzy (Omega)   =  0.10E-29 period in steps =****** mass=  -0.109E-26a.u.
   SCALEE = 1.0000    scale energy and forces
   NPACO  =    256;   APACO  = 16.0  distance and # of slots for P.C.
   PSTRESS=    0.0 pullay stress

  Mass of Ions in am
   POMASS =  58.69 72.61 30.97127.60
  Ionic Valenz
   ZVAL   =  10.00  4.00  5.00  6.00
  Atomic Wigner-Seitz radii
   RWIGS  =  -1.00 -1.00 -1.00 -1.00
  virtual crystal weights 
   VCA    =   1.00  1.00  1.00  1.00
   NELECT =      65.0000    total number of electrons
   NUPDOWN=      -1.0000    fix difference up-down

 DOS related values:
   EMIN   =  10.00;   EMAX   =-10.00  energy-range for DOS
   EFERMI =   0.00
   ISMEAR =    -5;   SIGMA  =   0.05  broadening in eV -4-tet -1-fermi 0-gaus

 Electronic relaxation 2 (details)
   IALGO  =     38    algorithm
   LDIAG  =      T    sub-space diagonalisation (order eigenvalues)
   LSUBROT=      F    optimize rotation matrix (better conditioning)
   TURBO    =      0    0=normal 1=particle mesh
   IRESTART =      0    0=no restart 2=restart with 2 vectors
   NREBOOT  =      0    no. of reboots
   NMIN     =      0    reboot dimension
   EREF     =   0.00    reference energy to select bands
   IMIX   =      4    mixing-type and parameters
     AMIX     =   0.40;   BMIX     =  1.00
     AMIX_MAG =   1.60;   BMIX_MAG =  1.00
     AMIN     =   0.01
     WC   =   100.;   INIMIX=   1;  MIXPRE=   1;  MAXMIX= -45

 Intra band minimization:
   WEIMIN = 0.0010     energy-eigenvalue tresh-hold
   EBREAK =  0.52E-06  absolut break condition
   DEPER  =   0.30     relativ break condition  

   TIME   =   0.40     timestep for ELM

  volume/ion in A,a.u.               =      96.88       653.80
  Fermi-wavevector in a.u.,A,eV,Ry     =   0.665216  1.257076  6.020745  0.442512
  Thomas-Fermi vector in A             =   1.739143

 Write flags
   LWAVE        =      F    write WAVECAR
   LDOWNSAMPLE  =      F    k-point downsampling of WAVECAR
   LCHARG       =      T    write CHGCAR
   LVTOT        =      F    write LOCPOT, total local potential
   LVHAR        =      F    write LOCPOT, Hartree potential only
   LELF         =      F    write electronic localiz. function (ELF)
   LORBIT       =     11    0 simple, 1 ext, 2 COOP (PROOUT), +10 PAW based schemes


 Dipole corrections
   LMONO  =      F    monopole corrections only (constant potential shift)
   LDIPOL =      F    correct potential (dipole corrections)
   IDIPOL =      0    1-x, 2-y, 3-z, 4-all directions 
   EPSILON=  1.0000000 bulk dielectric constant

 Exchange correlation treatment:
   GGA     =    BO    GGA type
   LEXCH   =    42    internal setting for exchange type
   VOSKOWN=      0    Vosko Wilk Nusair interpolation
   LHFCALC =     F    Hartree Fock is set to
   LHFONE  =     F    Hartree Fock one center treatment
   AEXX    =    0.0000 exact exchange contribution

 vdW DFT:
   LUSE_VDW   =     T    switch on vdW DFT
   Zab_VDW    =-.8491    correlation parameter
   PARAM1     =0.1833
   PARAM2     =0.2200
   PARAM3     =0.0000
   -- rVV10 --
   BPARAM     = 6.3000
   CPARAM     = 0.0093

 Linear response parameters
   LEPSILON=     F    determine dielectric tensor
   LRPA    =     F    only Hartree local field effects (RPA)
   LNABLA  =     F    use nabla operator in PAW spheres
   LVEL    =     F    velocity operator in full k-point grid
   LINTERFAST=   F  fast interpolation
   KINTER  =     0    interpolate to denser k-point grid
   CSHIFT  =0.1000    complex shift for real part using Kramers Kronig
   OMEGAMAX=  -1.0    maximum frequency
   DEG_THRESHOLD= 0.2000000E-02 threshold for treating states as degnerate
   RTIME   =   -0.100 relaxation time in fs
  (WPLASMAI=    0.000 imaginary part of plasma frequency in eV, 0.658/RTIME)
   DFIELD  = 0.0000000 0.0000000 0.0000000 field for delta impulse in time

 Orbital magnetization related:
   ORBITALMAG=     F  switch on orbital magnetization
   LCHIMAG   =     F  perturbation theory with respect to B field
   DQ        =  0.001000  dq finite difference perturbation B field
   LLRAUG    =     F  two centre corrections for induced B field



--------------------------------------------------------------------------------------------------------


 conjugate gradient relaxation of ions
   using selective dynamics as specified on POSCAR
 charge density and potential will be updated during run
 spin polarized calculation
 Variant of blocked Davidson
 Davidson routine will perform the subspace rotation
 perform sub-space diagonalisation
    after iterative eigenvector-optimisation
 modified Broyden-mixing scheme, WC =      100.0
 initial mixing is a Kerker type mixing with AMIX =  0.4000 and BMIX =      1.0000
 Hartree-type preconditioning will be used
 using additional bands           15
 real space projection scheme for non local part
 use partial core corrections
 calculate Harris-corrections to forces   (improved forces if not selfconsistent)
 use gradient corrections 
 use of overlap-Matrix (Vanderbilt PP)
 Fermi weights with tetrahedron method with Bloechl corrections


--------------------------------------------------------------------------------------------------------


  energy-cutoff  :      520.00
  volume of cell :      968.84
      direct lattice vectors                 reciprocal lattice vectors
     6.907777000 -0.000000000  0.000000000     0.144764372 -0.083579742  0.000000000
     3.453888000  5.982310000  0.000000000     0.000000000  0.167159509 -0.000000000
     0.000000000  0.000000000 23.444588000    -0.000000000  0.000000000  0.042653767

  length of vectors
     6.907777000  6.907776433 23.444588000     0.167159495  0.167159509  0.042653767



 k-points in units of 2pi/SCALE and weight: Kpoints from vasprun.xml                
   0.00000000  0.00000000  0.00000000       0.040
   0.02895287 -0.01671595  0.00000000       0.240
   0.05790575 -0.03343190  0.00000000       0.240
   0.05790575  0.00000000  0.00000000       0.240
  -0.05790575  0.06686380  0.00000000       0.240

 k-points in reciprocal lattice and weights: Kpoints from vasprun.xml                
   0.00000000  0.00000000  0.00000000       0.040
   0.20000000  0.00000000  0.00000000       0.240
   0.40000000  0.00000000  0.00000000       0.240
   0.40000000  0.20000000  0.00000000       0.240
  -0.40000000  0.20000000  0.00000000       0.240

 position of ions in fractional coordinates (direct lattice) 
   0.33333300  0.33333300  0.49992500
   0.66666700  0.66666700  0.50007500
   0.00000000  0.00000000  0.44821600
   0.00000000  0.00000000  0.55178400
   0.62635700  0.00042000  0.57375200
   0.00042000  0.37322400  0.57375200
   0.37322400  0.62635700  0.57375200
   0.37364300  0.99958000  0.42624800
   0.99958000  0.62677600  0.42624800
   0.62677600  0.37364300  0.42624800

 position of ions in cartesian coordinates  (Angst):
   3.45388488  1.99410134 11.72053566
   6.90778012  3.98820866 11.72405234
   0.00000000  0.00000000 10.50823946
   0.00000000  0.00000000 12.93634854
   4.32818511  0.00251257 13.45137925
   1.29197516  2.23274167 13.45137925
   4.74151509  3.74706174 13.45137925
   6.03347989  5.97979743  9.99320875
   9.06968984  3.74956833  9.99320875
   5.62014991  2.23524826  9.99320875



--------------------------------------------------------------------------------------------------------


 k-point  1 :   0.0000 0.0000 0.0000  plane waves:   26073
 k-point  2 :   0.2000 0.0000 0.0000  plane waves:   26070
 k-point  3 :   0.4000 0.0000 0.0000  plane waves:   26086
 k-point  4 :   0.4000 0.2000 0.0000  plane waves:   26085
 k-point  5 :  -0.4000 0.2000 0.0000  plane waves:   26115

 maximum and minimum number of plane-waves per node :     26115    26070

 maximum number of plane-waves:     26115
 maximum index in each direction: 
   IXMAX=   13   IYMAX=   12   IZMAX=   43
   IXMIN=  -13   IYMIN=  -13   IZMIN=  -43


 serial   3D FFT for wavefunctions
 parallel 3D FFT for charge:
    minimum data exchange during FFTs selected (reduces bandwidth)


 total amount of memory used by VASP MPI-rank0   130713. kBytes
=======================================================================

   base      :      30000. kBytes
   nonlr-proj:       8213. kBytes
   fftplans  :      11247. kBytes
   grid      :      68332. kBytes
   one-center:        311. kBytes
   wavefun   :      12610. kBytes

     INWAV:  cpu time    0.0000: real time    0.0002
 Broyden mixing: mesh for mixing (old mesh)
   NGX = 25   NGY = 25   NGZ = 87
  (NGX  =108   NGY  =108   NGZ  =360)
  gives a total of  54375 points

 initial charge density was supplied:
 charge density of overlapping atoms calculated
 number of electron      65.0000000 magnetization       7.3200000
 keeping initial charge density in first step


--------------------------------------------------------------------------------------------------------


 Maximum index for non-local projection operator         7247
 Maximum index for augmentation-charges         2278 (set IRDMAX)


--------------------------------------------------------------------------------------------------------


 First call to EWALD:  gamma=   0.179
 Maximum number of real-space cells 4x 4x 1
 Maximum number of reciprocal cells 2x 2x 6

    FEWALD:  cpu time    0.0040: real time    0.0014


--------------------------------------- Iteration      1(   1)  ---------------------------------------


vdW kernel read from vdw_kernel.bindat
  0.0000  0.2424  0.5071  0.7962  1.1119  1.4567  1.8333  2.2446  2.6937  3.1842
  3.7199  4.3049  4.9438  5.6415  6.4036  7.2358  8.1446  9.1372 10.2212 11.4050
 12.6979 14.1099 15.6519 17.3360 19.1751 21.1837 23.3773 25.7729 28.3892 31.2465
 34.3669 37.7748 41.4965 45.5611 50.0000

    POTLOK:  cpu time   52.2640: real time   52.6222
    SETDIJ:  cpu time    0.0520: real time    0.0507
     EDDAV:  cpu time   22.7760: real time   23.0056
 BZINTS: Fermi energy:  5.521479; 65.000000 electrons
         Band energy:  10.935578;  BLOECHL correction: -0.036651
       DOS:  cpu time    0.0040: real time    0.0066
    --------------------------------------------
      LOOP:  cpu time   75.0960: real time   75.6851

 eigenvalue-minimisations  :   960
 total energy-change (2. order) : 0.4012776E+03  (-0.1978325E+04)
 number of electron      65.0000000 magnetization       7.3200000
 augmentation part       65.0000000 magnetization       7.3200000

 Free energy of the ion-electron system (eV)
  ---------------------------------------------------
  alpha Z        PSCENC =        19.82141849
  Ewald energy   TEWEN  =      8338.88239735
  -Hartree energ DENC   =    -11773.86302338
  -exchange      EXHF   =         0.00000000
  -V(xc)+E(xc)   XCENC  =      -118.84770884
  PAW double counting   =      2458.64793336    -2327.33533323
  entropy T*S    EENTRO =         0.00000000
  eigenvalues    EBANDS =        10.93557828
  atomic energy  EATOM  =      3793.03632354
  Solvation  Ediel_sol  =         0.00000000
  ---------------------------------------------------
  free energy    TOTEN  =       401.27758556 eV

  energy without entropy =      401.27758556  energy(sigma->0) =      401.27758556


--------------------------------------------------------------------------------------------------------




--------------------------------------- Iteration      1(   2)  ---------------------------------------


     EDDAV:  cpu time   32.2920: real time   33.2123
 BZINTS: Fermi energy: -1.110551; 65.000000 electrons
         Band energy:-378.649368;  BLOECHL correction: -0.031599
       DOS:  cpu time    0.0040: real time    0.0049
    --------------------------------------------
      LOOP:  cpu time   32.2960: real time   33.2172

 eigenvalue-minimisations  :  1440
 total energy-change (2. order) :-0.3895849E+03  (-0.3745951E+03)
 number of electron      65.0000000 magnetization       7.3200000
 augmentation part       65.0000000 magnetization       7.3200000

 Free energy of the ion-electron system (eV)
  ---------------------------------------------------
  alpha Z        PSCENC =        19.82141849
  Ewald energy   TEWEN  =      8338.88239735
  -Hartree energ DENC   =    -11773.86302338
  -exchange      EXHF   =         0.00000000
  -V(xc)+E(xc)   XCENC  =      -118.84770884
  PAW double counting   =      2458.64793336    -2327.33533323
  entropy T*S    EENTRO =         0.00000000
  eigenvalues    EBANDS =      -378.64936799
  atomic energy  EATOM  =      3793.03632354
  Solvation  Ediel_sol  =         0.00000000
  ---------------------------------------------------
  free energy    TOTEN  =        11.69263929 eV

  energy without entropy =       11.69263929  energy(sigma->0) =       11.69263929


--------------------------------------------------------------------------------------------------------




--------------------------------------- Iteration      1(   3)  ---------------------------------------


     EDDAV:  cpu time   27.9400: real time   29.3036
 BZINTS: Fermi energy: -1.828155; 65.000000 electrons
         Band energy:-422.194678;  BLOECHL correction:  0.000000
       DOS:  cpu time    0.0000: real time    0.0012
    --------------------------------------------
      LOOP:  cpu time   27.9400: real time   29.3048

 eigenvalue-minimisations  :  1248
 total energy-change (2. order) :-0.4354531E+02  (-0.4304856E+02)
 number of electron      65.0000000 magnetization       7.3200000
 augmentation part       65.0000000 magnetization       7.3200000

 Free energy of the ion-electron system (eV)
  ---------------------------------------------------
  alpha Z        PSCENC =        19.82141849
  Ewald energy   TEWEN  =      8338.88239735
  -Hartree energ DENC   =    -11773.86302338
  -exchange      EXHF   =         0.00000000
  -V(xc)+E(xc)   XCENC  =      -118.84770884
  PAW double counting   =      2458.64793336    -2327.33533323
  entropy T*S    EENTRO =         0.00000000
  eigenvalues    EBANDS =      -422.19467767
  atomic energy  EATOM  =      3793.03632354
  Solvation  Ediel_sol  =         0.00000000
  ---------------------------------------------------
  free energy    TOTEN  =       -31.85267039 eV

  energy without entropy =      -31.85267039  energy(sigma->0) =      -31.85267039


--------------------------------------------------------------------------------------------------------




--------------------------------------- Iteration      1(   4)  ---------------------------------------


     EDDAV:  cpu time   30.3680: real time   30.6160
 BZINTS: Fermi energy: -1.821241; 65.000000 electrons
         Band energy:-423.845077;  BLOECHL correction:  0.000000
       DOS:  cpu time    0.0040: real time    0.0018
    --------------------------------------------
      LOOP:  cpu time   30.3720: real time   30.6178

 eigenvalue-minimisations  :  1328
 total energy-change (2. order) :-0.1650399E+01  (-0.1647930E+01)
 number of electron      65.0000000 magnetization       7.3200000
 augmentation part       65.0000000 magnetization       7.3200000

 Free energy of the ion-electron system (eV)
  ---------------------------------------------------
  alpha Z        PSCENC =        19.82141849
  Ewald energy   TEWEN  =      8338.88239735
  -Hartree energ DENC   =    -11773.86302338
  -exchange      EXHF   =         0.00000000
  -V(xc)+E(xc)   XCENC  =      -118.84770884
  PAW double counting   =      2458.64793336    -2327.33533323
  entropy T*S    EENTRO =         0.00000000
  eigenvalues    EBANDS =      -423.84507685
  atomic energy  EATOM  =      3793.03632354
  Solvation  Ediel_sol  =         0.00000000
  ---------------------------------------------------
  free energy    TOTEN  =       -33.50306957 eV

  energy without entropy =      -33.50306957  energy(sigma->0) =      -33.50306957


--------------------------------------------------------------------------------------------------------




--------------------------------------- Iteration      1(   5)  ---------------------------------------


     EDDAV:  cpu time   31.5360: real time   32.2125
 BZINTS: Fermi energy: -1.835632; 65.000000 electrons
         Band energy:-423.873417;  BLOECHL correction:  0.000000
       DOS:  cpu time    0.0000: real time    0.0020
    CHARGE:  cpu time    2.1200: real time    2.1239
    MIXING:  cpu time    0.0560: real time    0.0546
    --------------------------------------------
      LOOP:  cpu time   33.7120: real time   34.3930

 eigenvalue-minimisations  :  1392
 total energy-change (2. order) :-0.2833994E-01  (-0.2833608E-01)
 number of electron      64.9999996 magnetization       6.8568150
 augmentation part        2.3769258 magnetization       5.2915776

 Broyden mixing:
  rms(total) = 0.14501E+01    rms(broyden)= 0.14492E+01
  rms(prec ) = 0.15474E+01
  weight for this iteration     100.00

 Free energy of the ion-electron system (eV)
  ---------------------------------------------------
  alpha Z        PSCENC =        19.82141849
  Ewald energy   TEWEN  =      8338.88239735
  -Hartree energ DENC   =    -11773.86302338
  -exchange      EXHF   =         0.00000000
  -V(xc)+E(xc)   XCENC  =      -118.84770884
  PAW double counting   =      2458.64793336    -2327.33533323
  entropy T*S    EENTRO =         0.00000000
  eigenvalues    EBANDS =      -423.87341679
  atomic energy  EATOM  =      3793.03632354
  Solvation  Ediel_sol  =         0.00000000
  ---------------------------------------------------
  free energy    TOTEN  =       -33.53140951 eV

  energy without entropy =      -33.53140951  energy(sigma->0) =      -33.53140951


--------------------------------------------------------------------------------------------------------




--------------------------------------- Iteration      1(   6)  ---------------------------------------


    POTLOK:  cpu time   52.4480: real time   52.5484
    SETDIJ:  cpu time    0.0520: real time    0.0515
     EDDAV:  cpu time   26.7640: real time   26.9125
 BZINTS: Fermi energy: -2.879502; 65.036070 electrons
         Band energy:-526.161448;  BLOECHL correction: -0.049700
       DOS:  cpu time    0.0080: real time    0.0088
    CHARGE:  cpu time    2.1960: real time    2.2114
    MIXING:  cpu time    0.0400: real time    0.0409
    --------------------------------------------
      LOOP:  cpu time   81.5080: real time   81.7735

 eigenvalue-minimisations  :  1136
 total energy-change (2. order) :-0.1006802E+02  (-0.6142714E+01)
 number of electron      65.0360697 magnetization       6.6686224
 augmentation part        6.9992027 magnetization       4.7596948

 Broyden mixing:
  rms(total) = 0.24686E+01    rms(broyden)= 0.24683E+01
  rms(prec ) = 0.26484E+01
  weight for this iteration     100.00

 eigenvalues of (default mixing * dielectric matrix)
  average eigenvalue GAMMA=   0.3051
  0.3051

 Free energy of the ion-electron system (eV)
  ---------------------------------------------------
  alpha Z        PSCENC =        19.82141849
  Ewald energy   TEWEN  =      8338.88239735
  -Hartree energ DENC   =    -11693.08991498
  -exchange      EXHF   =         0.00000000
  -V(xc)+E(xc)   XCENC  =      -121.52468718
  PAW double counting   =      2358.61601475    -2213.17953230
  entropy T*S    EENTRO =         0.00000000
  eigenvalues    EBANDS =      -526.16144826
  atomic energy  EATOM  =      3793.03632354
  Solvation  Ediel_sol  =         0.00000000
  ---------------------------------------------------
  free energy    TOTEN  =       -43.59942860 eV

  energy without entropy =      -43.59942860  energy(sigma->0) =      -43.59942860


--------------------------------------------------------------------------------------------------------




--------------------------------------- Iteration      1(   7)  ---------------------------------------


    POTLOK:  cpu time   51.9160: real time   52.0818
    SETDIJ:  cpu time    0.0520: real time    0.0506
     EDDAV:  cpu time   25.4120: real time   25.6318
 BZINTS: Fermi energy: -2.497359; 65.000000 electrons
         Band energy:-448.651284;  BLOECHL correction: -0.021646
       DOS:  cpu time    0.0040: real time    0.0071
    CHARGE:  cpu time    2.1560: real time    2.1577
    MIXING:  cpu time    0.0400: real time    0.0422
    --------------------------------------------
      LOOP:  cpu time   79.5800: real time   79.9711

 eigenvalue-minimisations  :  1088
 total energy-change (2. order) : 0.1142536E+02  (-0.2090625E+01)
 number of electron      64.9999997 magnetization       6.3237075
 augmentation part        5.0911016 magnetization       4.2286586

 Broyden mixing:
  rms(total) = 0.69332E+00    rms(broyden)= 0.69320E+00
  rms(prec ) = 0.76237E+00
  weight for this iteration     100.00

 eigenvalues of (default mixing * dielectric matrix)
  average eigenvalue GAMMA=   0.5753
  0.5753  0.5753

 Free energy of the ion-electron system (eV)
  ---------------------------------------------------
  alpha Z        PSCENC =        19.82141849
  Ewald energy   TEWEN  =      8338.88239735
  -Hartree energ DENC   =    -11747.63984683
  -exchange      EXHF   =         0.00000000
  -V(xc)+E(xc)   XCENC  =      -119.86626338
  PAW double counting   =      2456.80495606    -2324.56176513
  entropy T*S    EENTRO =         0.00000000
  eigenvalues    EBANDS =      -448.65128384
  atomic energy  EATOM  =      3793.03632354
  Solvation  Ediel_sol  =         0.00000000
  ---------------------------------------------------
  free energy    TOTEN  =       -32.17406375 eV

  energy without entropy =      -32.17406375  energy(sigma->0) =      -32.17406375


--------------------------------------------------------------------------------------------------------




--------------------------------------- Iteration      1(   8)  ---------------------------------------


    POTLOK:  cpu time   51.2280: real time   51.7305
    SETDIJ:  cpu time    0.0480: real time    0.0524
     EDDAV:  cpu time   34.0440: real time   34.3105
 BZINTS: Fermi energy: -1.980368; 65.000000 electrons
         Band energy:-423.045682;  BLOECHL correction: -0.008037
       DOS:  cpu time    0.0040: real time    0.0063
    CHARGE:  cpu time    2.1600: real time    2.1627
    MIXING:  cpu time    0.0440: real time    0.0445
    --------------------------------------------
      LOOP:  cpu time   87.5280: real time   88.3069

 eigenvalue-minimisations  :  1504
 total energy-change (2. order) :-0.7965449E-01  (-0.6881603E+00)
 number of electron      64.9999996 magnetization       5.8096478
 augmentation part        3.2612058 magnetization       4.1003358

 Broyden mixing:
  rms(total) = 0.75563E+00    rms(broyden)= 0.75522E+00
  rms(prec ) = 0.80638E+00
  weight for this iteration     100.00

 eigenvalues of (default mixing * dielectric matrix)
  average eigenvalue GAMMA=   0.7049
  1.1510  0.4819  0.4819

 Free energy of the ion-electron system (eV)
  ---------------------------------------------------
  alpha Z        PSCENC =        19.82141849
  Ewald energy   TEWEN  =      8338.88239735
  -Hartree energ DENC   =    -11770.78436886
  -exchange      EXHF   =         0.00000000
  -V(xc)+E(xc)   XCENC  =      -119.23786548
  PAW double counting   =      2512.00858824    -2382.93452919
  entropy T*S    EENTRO =         0.00000000
  eigenvalues    EBANDS =      -423.04568233
  atomic energy  EATOM  =      3793.03632354
  Solvation  Ediel_sol  =         0.00000000
  ---------------------------------------------------
  free energy    TOTEN  =       -32.25371825 eV

  energy without entropy =      -32.25371825  energy(sigma->0) =      -32.25371825


--------------------------------------------------------------------------------------------------------




--------------------------------------- Iteration      1(   9)  ---------------------------------------


    POTLOK:  cpu time   51.0840: real time   51.3924
    SETDIJ:  cpu time    0.0560: real time    0.0538
     EDDAV:  cpu time   30.4200: real time   30.5793
 BZINTS: Fermi energy: -2.410085; 65.000000 electrons
         Band energy:-439.526455;  BLOECHL correction: -0.015811
       DOS:  cpu time    0.0040: real time    0.0068
    CHARGE:  cpu time    2.1000: real time    2.1970
    MIXING:  cpu time    0.0520: real time    0.0528
    --------------------------------------------
      LOOP:  cpu time   83.7160: real time   84.2820

 eigenvalue-minimisations  :  1344
 total energy-change (2. order) : 0.4692513E-01  (-0.3543271E+00)
 number of electron      64.9999997 magnetization       5.3180878
 augmentation part        4.6011767 magnetization       3.3534059

 Broyden mixing:
  rms(total) = 0.39619E+00    rms(broyden)= 0.39600E+00
  rms(prec ) = 0.42713E+00
  weight for this iteration     100.00

 eigenvalues of (default mixing * dielectric matrix)
  average eigenvalue GAMMA=   0.9164
  1.9712  0.7946  0.4499  0.4499

 Free energy of the ion-electron system (eV)
  ---------------------------------------------------
  alpha Z        PSCENC =        19.82141849
  Ewald energy   TEWEN  =      8338.88239735
  -Hartree energ DENC   =    -11754.88609506
  -exchange      EXHF   =         0.00000000
  -V(xc)+E(xc)   XCENC  =      -119.67353375
  PAW double counting   =      2500.55631780    -2370.41716662
  entropy T*S    EENTRO =         0.00000000
  eigenvalues    EBANDS =      -439.52645487
  atomic energy  EATOM  =      3793.03632354
  Solvation  Ediel_sol  =         0.00000000
  ---------------------------------------------------
  free energy    TOTEN  =       -32.20679312 eV

  energy without entropy =      -32.20679312  energy(sigma->0) =      -32.20679312


--------------------------------------------------------------------------------------------------------




--------------------------------------- Iteration      1(  10)  ---------------------------------------


    POTLOK:  cpu time   51.1520: real time   51.1845
    SETDIJ:  cpu time    0.0520: real time    0.0505
     EDDAV:  cpu time   28.4760: real time   28.5967
 BZINTS: Fermi energy: -2.295203; 65.000000 electrons
         Band energy:-434.306706;  BLOECHL correction: -0.022232
       DOS:  cpu time    0.0040: real time    0.0065
    CHARGE:  cpu time    2.1520: real time    2.1529
    MIXING:  cpu time    0.0520: real time    0.0514
    --------------------------------------------
      LOOP:  cpu time   81.8880: real time   82.0426

 eigenvalue-minimisations  :  1232
 total energy-change (2. order) : 0.2426318E-01  (-0.3761765E+00)
 number of electron      64.9999996 magnetization       5.0410595
 augmentation part        4.3508571 magnetization       3.1911387

 Broyden mixing:
  rms(total) = 0.36587E+00    rms(broyden)= 0.36581E+00
  rms(prec ) = 0.39391E+00
  weight for this iteration     100.00

 eigenvalues of (default mixing * dielectric matrix)
  average eigenvalue GAMMA=   0.8688
  2.3643  0.8715  0.4467  0.4467  0.2148

 Free energy of the ion-electron system (eV)
  ---------------------------------------------------
  alpha Z        PSCENC =        19.82141849
  Ewald energy   TEWEN  =      8338.88239735
  -Hartree energ DENC   =    -11759.63054678
  -exchange      EXHF   =         0.00000000
  -V(xc)+E(xc)   XCENC  =      -119.53144311
  PAW double counting   =      2516.99370834    -2387.44768150
  entropy T*S    EENTRO =         0.00000000
  eigenvalues    EBANDS =      -434.30670629
  atomic energy  EATOM  =      3793.03632354
  Solvation  Ediel_sol  =         0.00000000
  ---------------------------------------------------
  free energy    TOTEN  =       -32.18252994 eV

  energy without entropy =      -32.18252994  energy(sigma->0) =      -32.18252994


--------------------------------------------------------------------------------------------------------




--------------------------------------- Iteration      1(  11)  ---------------------------------------


    POTLOK:  cpu time   51.0400: real time   51.0724
    SETDIJ:  cpu time    0.0960: real time    0.0951
     EDDAV:  cpu time   27.0760: real time   27.1725
 BZINTS: Fermi energy: -2.215675; 65.000000 electrons
         Band energy:-430.692559;  BLOECHL correction: -0.019987
       DOS:  cpu time    0.0080: real time    0.0061
    CHARGE:  cpu time    2.1720: real time    2.1834
    MIXING:  cpu time    0.0480: real time    0.0467
    --------------------------------------------
      LOOP:  cpu time   80.4400: real time   80.5762

 eigenvalue-minimisations  :  1168
 total energy-change (2. order) : 0.5303619E-01  (-0.4799335E-01)
 number of electron      64.9999996 magnetization       4.4651080
 augmentation part        4.1816115 magnetization       2.6983382

 Broyden mixing:
  rms(total) = 0.14153E+00    rms(broyden)= 0.14141E+00
  rms(prec ) = 0.14465E+00
  weight for this iteration     100.00

 eigenvalues of (default mixing * dielectric matrix)
  average eigenvalue GAMMA=   0.9394
  2.7301  1.1623  0.6485  0.4558  0.4558  0.1839

 Free energy of the ion-electron system (eV)
  ---------------------------------------------------
  alpha Z        PSCENC =        19.82141849
  Ewald energy   TEWEN  =      8338.88239735
  -Hartree energ DENC   =    -11762.91628018
  -exchange      EXHF   =         0.00000000
  -V(xc)+E(xc)   XCENC  =      -119.42743317
  PAW double counting   =      2525.43870160    -2396.27206270
  entropy T*S    EENTRO =         0.00000000
  eigenvalues    EBANDS =      -430.69255867
  atomic energy  EATOM  =      3793.03632354
  Solvation  Ediel_sol  =         0.00000000
  ---------------------------------------------------
  free energy    TOTEN  =       -32.12949375 eV

  energy without entropy =      -32.12949375  energy(sigma->0) =      -32.12949375


--------------------------------------------------------------------------------------------------------




--------------------------------------- Iteration      1(  12)  ---------------------------------------


    POTLOK:  cpu time   51.0240: real time   51.1987
    SETDIJ:  cpu time    0.0400: real time    0.0410
     EDDAV:  cpu time   27.6960: real time   27.9490
 BZINTS: Fermi energy: -2.161218; 65.000000 electrons
         Band energy:-427.705849;  BLOECHL correction: -0.018919
       DOS:  cpu time    0.0080: real time    0.0067
    CHARGE:  cpu time    2.1600: real time    2.2040
    MIXING:  cpu time    0.0440: real time    0.0439
    --------------------------------------------
      LOOP:  cpu time   80.9720: real time   81.4433

 eigenvalue-minimisations  :  1216
 total energy-change (2. order) :-0.8757594E-01  (-0.1417011E-01)
 number of electron      64.9999996 magnetization       3.6293001
 augmentation part        4.0391361 magnetization       1.9527700

 Broyden mixing:
  rms(total) = 0.11841E+00    rms(broyden)= 0.11838E+00
  rms(prec ) = 0.12391E+00
  weight for this iteration     100.00

 eigenvalues of (default mixing * dielectric matrix)
  average eigenvalue GAMMA=   1.1698
  3.7066  1.8811  0.8886  0.4554  0.4554  0.6206  0.1810

 Free energy of the ion-electron system (eV)
  ---------------------------------------------------
  alpha Z        PSCENC =        19.82141849
  Ewald energy   TEWEN  =      8338.88239735
  -Hartree energ DENC   =    -11766.04432790
  -exchange      EXHF   =         0.00000000
  -V(xc)+E(xc)   XCENC  =      -119.32964412
  PAW double counting   =      2528.36457254    -2399.24196090
  entropy T*S    EENTRO =         0.00000000
  eigenvalues    EBANDS =      -427.70584867
  atomic energy  EATOM  =      3793.03632354
  Solvation  Ediel_sol  =         0.00000000
  ---------------------------------------------------
  free energy    TOTEN  =       -32.21706968 eV

  energy without entropy =      -32.21706968  energy(sigma->0) =      -32.21706968


--------------------------------------------------------------------------------------------------------




--------------------------------------- Iteration      1(  13)  ---------------------------------------


    POTLOK:  cpu time   51.0360: real time   51.1579
    SETDIJ:  cpu time    0.0520: real time    0.0489
     EDDAV:  cpu time   24.4800: real time   24.8750
 BZINTS: Fermi energy: -2.138491; 65.000000 electrons
         Band energy:-426.002913;  BLOECHL correction: -0.019373
       DOS:  cpu time    0.0080: real time    0.0065
    CHARGE:  cpu time    2.1440: real time    2.1539
    MIXING:  cpu time    0.0560: real time    0.0818
    --------------------------------------------
      LOOP:  cpu time   77.7760: real time   78.3240

 eigenvalue-minimisations  :  1056
 total energy-change (2. order) :-0.8379811E-01  (-0.8008015E-02)
 number of electron      64.9999996 magnetization       3.1177180
 augmentation part        4.0083973 magnetization       1.4991937

 Broyden mixing:
  rms(total) = 0.10743E+00    rms(broyden)= 0.10742E+00
  rms(prec ) = 0.11563E+00
  weight for this iteration     100.00

 eigenvalues of (default mixing * dielectric matrix)
  average eigenvalue GAMMA=   1.3699
  5.1186  2.2162  1.1129  0.4568  0.4568  0.7507  0.6660  0.1810

 Free energy of the ion-electron system (eV)
  ---------------------------------------------------
  alpha Z        PSCENC =        19.82141849
  Ewald energy   TEWEN  =      8338.88239735
  -Hartree energ DENC   =    -11768.08356590
  -exchange      EXHF   =         0.00000000
  -V(xc)+E(xc)   XCENC  =      -119.31815493
  PAW double counting   =      2524.68116951    -2395.31754252
  entropy T*S    EENTRO =         0.00000000
  eigenvalues    EBANDS =      -426.00291334
  atomic energy  EATOM  =      3793.03632354
  Solvation  Ediel_sol  =         0.00000000
  ---------------------------------------------------
  free energy    TOTEN  =       -32.30086780 eV

  energy without entropy =      -32.30086780  energy(sigma->0) =      -32.30086780


--------------------------------------------------------------------------------------------------------




--------------------------------------- Iteration      1(  14)  ---------------------------------------


    POTLOK:  cpu time   50.4160: real time   50.8692
    SETDIJ:  cpu time    0.0520: real time    0.0503
     EDDAV:  cpu time   22.4160: real time   22.6690
 BZINTS: Fermi energy: -2.168218; 65.000000 electrons
         Band energy:-426.564867;  BLOECHL correction: -0.021462
       DOS:  cpu time    0.0040: real time    0.0069
    CHARGE:  cpu time    2.0720: real time    2.1557
    MIXING:  cpu time    0.0600: real time    0.0577
    --------------------------------------------
      LOOP:  cpu time   75.0200: real time   75.8088

 eigenvalue-minimisations  :   960
 total energy-change (2. order) :-0.1981415E-01  (-0.2703829E-02)
 number of electron      64.9999996 magnetization       2.8045247
 augmentation part        4.0972603 magnetization       1.1674443

 Broyden mixing:
  rms(total) = 0.41068E-01    rms(broyden)= 0.41054E-01
  rms(prec ) = 0.43568E-01
  weight for this iteration     100.00

 eigenvalues of (default mixing * dielectric matrix)
  average eigenvalue GAMMA=   1.7612
  8.2643  2.5864  1.5926  0.9325  0.4565  0.4565  0.7452  0.6357  0.1810

 Free energy of the ion-electron system (eV)
  ---------------------------------------------------
  alpha Z        PSCENC =        19.82141849
  Ewald energy   TEWEN  =      8338.88239735
  -Hartree energ DENC   =    -11767.64226124
  -exchange      EXHF   =         0.00000000
  -V(xc)+E(xc)   XCENC  =      -119.40600099
  PAW double counting   =      2519.43565620    -2389.88334848
  entropy T*S    EENTRO =         0.00000000
  eigenvalues    EBANDS =      -426.56486682
  atomic energy  EATOM  =      3793.03632354
  Solvation  Ediel_sol  =         0.00000000
  ---------------------------------------------------
  free energy    TOTEN  =       -32.32068195 eV

  energy without entropy =      -32.32068195  energy(sigma->0) =      -32.32068195


--------------------------------------------------------------------------------------------------------




--------------------------------------- Iteration      1(  15)  ---------------------------------------


    POTLOK:  cpu time   50.4440: real time   50.9109
    SETDIJ:  cpu time    0.0480: real time    0.0504
     EDDAV:  cpu time   22.6920: real time   22.7696
 BZINTS: Fermi energy: -2.174748; 65.000000 electrons
         Band energy:-426.991006;  BLOECHL correction: -0.014800
       DOS:  cpu time    0.0040: real time    0.0069
    CHARGE:  cpu time    2.1400: real time    2.1474
    MIXING:  cpu time    0.0640: real time    0.0629
    --------------------------------------------
      LOOP:  cpu time   75.3920: real time   75.9481

 eigenvalue-minimisations  :   960
 total energy-change (2. order) : 0.7673175E-02  (-0.1613158E-02)
 number of electron      64.9999996 magnetization       2.7336060
 augmentation part        4.1502042 magnetization       1.1263915

 Broyden mixing:
  rms(total) = 0.17768E-01    rms(broyden)= 0.17722E-01
  rms(prec ) = 0.18714E-01
  weight for this iteration     100.00

 eigenvalues of (default mixing * dielectric matrix)
  average eigenvalue GAMMA=   1.7738
  9.1963  2.6610  1.7660  0.4564  0.4564  0.8407  0.8407  0.7348  0.6047  0.1810

 Free energy of the ion-electron system (eV)
  ---------------------------------------------------
  alpha Z        PSCENC =        19.82141849
  Ewald energy   TEWEN  =      8338.88239735
  -Hartree energ DENC   =    -11767.15924362
  -exchange      EXHF   =         0.00000000
  -V(xc)+E(xc)   XCENC  =      -119.46787765
  PAW double counting   =      2517.31966732    -2387.75468806
  entropy T*S    EENTRO =         0.00000000
  eigenvalues    EBANDS =      -426.99100615
  atomic energy  EATOM  =      3793.03632354
  Solvation  Ediel_sol  =         0.00000000
  ---------------------------------------------------
  free energy    TOTEN  =       -32.31300877 eV

  energy without entropy =      -32.31300877  energy(sigma->0) =      -32.31300877


--------------------------------------------------------------------------------------------------------




--------------------------------------- Iteration      1(  16)  ---------------------------------------


    POTLOK:  cpu time   50.7360: real time   51.2164
    SETDIJ:  cpu time    0.0480: real time    0.0494
     EDDAV:  cpu time   23.1120: real time   23.4339
 BZINTS: Fermi energy: -2.164084; 65.000000 electrons
         Band energy:-426.549940;  BLOECHL correction: -0.015378
       DOS:  cpu time    0.0080: real time    0.0073
    CHARGE:  cpu time    2.1560: real time    2.1667
    MIXING:  cpu time    0.0480: real time    0.0473
    --------------------------------------------
      LOOP:  cpu time   76.1080: real time   76.9209

 eigenvalue-minimisations  :   992
 total energy-change (2. order) :-0.1729200E-02  (-0.2519326E-03)
 number of electron      64.9999996 magnetization       2.6607173
 augmentation part        4.1294762 magnetization       1.0780943

 Broyden mixing:
  rms(total) = 0.11340E-01    rms(broyden)= 0.11335E-01
  rms(prec ) = 0.12222E-01
  weight for this iteration     100.00

 eigenvalues of (default mixing * dielectric matrix)
  average eigenvalue GAMMA=   1.7903
  9.8211  2.6618  1.9902  0.9926  0.9926  0.4565  0.4565  0.7573  0.7573  0.6264
  0.1810

 Free energy of the ion-electron system (eV)
  ---------------------------------------------------
  alpha Z        PSCENC =        19.82141849
  Ewald energy   TEWEN  =      8338.88239735
  -Hartree energ DENC   =    -11767.52222366
  -exchange      EXHF   =         0.00000000
  -V(xc)+E(xc)   XCENC  =      -119.47280311
  PAW double counting   =      2518.48475780    -2388.99466841
  entropy T*S    EENTRO =         0.00000000
  eigenvalues    EBANDS =      -426.54993997
  atomic energy  EATOM  =      3793.03632354
  Solvation  Ediel_sol  =         0.00000000
  ---------------------------------------------------
  free energy    TOTEN  =       -32.31473797 eV

  energy without entropy =      -32.31473797  energy(sigma->0) =      -32.31473797


--------------------------------------------------------------------------------------------------------




--------------------------------------- Iteration      1(  17)  ---------------------------------------


    POTLOK:  cpu time   50.5080: real time   50.8255
    SETDIJ:  cpu time    0.0480: real time    0.0516
     EDDAV:  cpu time   23.4480: real time   23.7928
 BZINTS: Fermi energy: -2.160436; 65.000000 electrons
         Band energy:-426.436211;  BLOECHL correction: -0.016202
       DOS:  cpu time    0.0040: real time    0.0049
    CHARGE:  cpu time    2.0760: real time    2.1486
    MIXING:  cpu time    0.0480: real time    0.0530
    --------------------------------------------
      LOOP:  cpu time   76.1320: real time   76.8764

 eigenvalue-minimisations  :  1008
 total energy-change (2. order) :-0.3697960E-03  (-0.8183949E-04)
 number of electron      64.9999996 magnetization       2.6109789
 augmentation part        4.1306004 magnetization       1.0522626

 Broyden mixing:
  rms(total) = 0.73015E-02    rms(broyden)= 0.72946E-02
  rms(prec ) = 0.80640E-02
  weight for this iteration     100.00

 eigenvalues of (default mixing * dielectric matrix)
  average eigenvalue GAMMA=   1.8260
 10.3328  2.5007  2.5007  1.2471  1.2471  0.4564  0.4564  0.1810  0.8513  0.8513
  0.6249  0.6625

 Free energy of the ion-electron system (eV)
  ---------------------------------------------------
  alpha Z        PSCENC =        19.82141849
  Ewald energy   TEWEN  =      8338.88239735
  -Hartree energ DENC   =    -11767.59927796
  -exchange      EXHF   =         0.00000000
  -V(xc)+E(xc)   XCENC  =      -119.48615892
  PAW double counting   =      2519.37324788    -2389.90684678
  entropy T*S    EENTRO =         0.00000000
  eigenvalues    EBANDS =      -426.43621138
  atomic energy  EATOM  =      3793.03632354
  Solvation  Ediel_sol  =         0.00000000
  ---------------------------------------------------
  free energy    TOTEN  =       -32.31510777 eV

  energy without entropy =      -32.31510777  energy(sigma->0) =      -32.31510777


--------------------------------------------------------------------------------------------------------




--------------------------------------- Iteration      1(  18)  ---------------------------------------


    POTLOK:  cpu time   50.7000: real time   51.0214
    SETDIJ:  cpu time    0.0560: real time    0.0553
     EDDAV:  cpu time   23.3800: real time   23.7688
 BZINTS: Fermi energy: -2.157128; 65.000000 electrons
         Band energy:-426.327406;  BLOECHL correction: -0.016914
       DOS:  cpu time    0.0080: real time    0.0075
    CHARGE:  cpu time    2.1800: real time    2.1969
    MIXING:  cpu time    0.0480: real time    0.0496
    --------------------------------------------
      LOOP:  cpu time   76.3720: real time   77.0995

 eigenvalue-minimisations  :  1008
 total energy-change (2. order) :-0.1047863E-02  (-0.4571285E-04)
 number of electron      64.9999996 magnetization       2.5782507
 augmentation part        4.1360811 magnetization       1.0394943

 Broyden mixing:
  rms(total) = 0.43160E-02    rms(broyden)= 0.43035E-02
  rms(prec ) = 0.49296E-02
  weight for this iteration     100.00

 eigenvalues of (default mixing * dielectric matrix)
  average eigenvalue GAMMA=   1.8506
 10.7040  2.8523  2.8523  1.3635  1.3635  0.4565  0.4565  0.1810  0.8910  0.8910
  0.6247  0.7310  0.6900

 Free energy of the ion-electron system (eV)
  ---------------------------------------------------
  alpha Z        PSCENC =        19.82141849
  Ewald energy   TEWEN  =      8338.88239735
  -Hartree energ DENC   =    -11767.70237819
  -exchange      EXHF   =         0.00000000
  -V(xc)+E(xc)   XCENC  =      -119.49609599
  PAW double counting   =      2519.97284030    -2390.50325529
  entropy T*S    EENTRO =         0.00000000
  eigenvalues    EBANDS =      -426.32740585
  atomic energy  EATOM  =      3793.03632354
  Solvation  Ediel_sol  =         0.00000000
  ---------------------------------------------------
  free energy    TOTEN  =       -32.31615563 eV

  energy without entropy =      -32.31615563  energy(sigma->0) =      -32.31615563


--------------------------------------------------------------------------------------------------------




--------------------------------------- Iteration      1(  19)  ---------------------------------------


    POTLOK:  cpu time   50.7800: real time   50.8970
    SETDIJ:  cpu time    0.0520: real time    0.0506
     EDDAV:  cpu time   20.5480: real time   20.6763
 BZINTS: Fermi energy: -2.152211; 65.000000 electrons
         Band energy:-426.099912;  BLOECHL correction: -0.017353
       DOS:  cpu time    0.0040: real time    0.0070
    CHARGE:  cpu time    2.1560: real time    2.1621
    MIXING:  cpu time    0.0680: real time    0.0667
    --------------------------------------------
      LOOP:  cpu time   73.6080: real time   73.8597

 eigenvalue-minimisations  :   832
 total energy-change (2. order) :-0.8751377E-03  (-0.1858213E-04)
 number of electron      64.9999996 magnetization       2.5571970
 augmentation part        4.1333542 magnetization       1.0339877

 Broyden mixing:
  rms(total) = 0.29338E-02    rms(broyden)= 0.29267E-02
  rms(prec ) = 0.37626E-02
  weight for this iteration     100.00

 eigenvalues of (default mixing * dielectric matrix)
  average eigenvalue GAMMA=   1.8768
 10.9868  3.4803  2.7989  1.8522  0.1810  0.4564  0.4564  1.2241  0.9989  0.9989
  0.7836  0.7836  0.6259  0.6482

 Free energy of the ion-electron system (eV)
  ---------------------------------------------------
  alpha Z        PSCENC =        19.82141849
  Ewald energy   TEWEN  =      8338.88239735
  -Hartree energ DENC   =    -11767.92215111
  -exchange      EXHF   =         0.00000000
  -V(xc)+E(xc)   XCENC  =      -119.50205626
  PAW double counting   =      2520.45589288    -2390.98894354
  entropy T*S    EENTRO =         0.00000000
  eigenvalues    EBANDS =      -426.09991212
  atomic energy  EATOM  =      3793.03632354
  Solvation  Ediel_sol  =         0.00000000
  ---------------------------------------------------
  free energy    TOTEN  =       -32.31703077 eV

  energy without entropy =      -32.31703077  energy(sigma->0) =      -32.31703077


--------------------------------------------------------------------------------------------------------




--------------------------------------- Iteration      1(  20)  ---------------------------------------


    POTLOK:  cpu time   50.5480: real time   50.8898
    SETDIJ:  cpu time    0.0520: real time    0.0524
     EDDAV:  cpu time   20.9640: real time   21.2424
 BZINTS: Fermi energy: -2.149806; 65.000000 electrons
         Band energy:-425.971806;  BLOECHL correction: -0.017718
       DOS:  cpu time    0.0080: real time    0.0071
    CHARGE:  cpu time    2.1760: real time    2.1851
    MIXING:  cpu time    0.0520: real time    0.0521
    --------------------------------------------
      LOOP:  cpu time   73.8000: real time   74.4289

 eigenvalue-minimisations  :   864
 total energy-change (2. order) :-0.1103944E-02  (-0.1811505E-04)
 number of electron      64.9999996 magnetization       2.5394122
 augmentation part        4.1386411 magnetization       1.0254025

 Broyden mixing:
  rms(total) = 0.22508E-02    rms(broyden)= 0.22422E-02
  rms(prec ) = 0.30168E-02
  weight for this iteration     100.00

 eigenvalues of (default mixing * dielectric matrix)
  average eigenvalue GAMMA=   1.9041
 11.2387  4.2299  2.7629  2.0049  1.5011  0.1810  0.4564  0.4564  1.0522  1.0522
  0.8418  0.8418  0.6831  0.6211  0.6376

 Free energy of the ion-electron system (eV)
  ---------------------------------------------------
  alpha Z        PSCENC =        19.82141849
  Ewald energy   TEWEN  =      8338.88239735
  -Hartree energ DENC   =    -11768.06514274
  -exchange      EXHF   =         0.00000000
  -V(xc)+E(xc)   XCENC  =      -119.50693279
  PAW double counting   =      2520.39229867    -2390.90669133
  entropy T*S    EENTRO =         0.00000000
  eigenvalues    EBANDS =      -425.97180590
  atomic energy  EATOM  =      3793.03632354
  Solvation  Ediel_sol  =         0.00000000
  ---------------------------------------------------
  free energy    TOTEN  =       -32.31813471 eV

  energy without entropy =      -32.31813471  energy(sigma->0) =      -32.31813471


--------------------------------------------------------------------------------------------------------




--------------------------------------- Iteration      1(  21)  ---------------------------------------


    POTLOK:  cpu time   50.7440: real time   50.8861
    SETDIJ:  cpu time    0.0520: real time    0.0506
     EDDAV:  cpu time   19.9800: real time   19.9922
 BZINTS: Fermi energy: -2.144953; 65.000000 electrons
         Band energy:-425.706359;  BLOECHL correction: -0.017946
       DOS:  cpu time    0.0040: real time    0.0070
    CHARGE:  cpu time    2.1840: real time    2.1843
    MIXING:  cpu time    0.0560: real time    0.0535
    --------------------------------------------
      LOOP:  cpu time   73.0200: real time   73.1736

 eigenvalue-minimisations  :   800
 total energy-change (2. order) :-0.6072669E-03  (-0.1985313E-04)
 number of electron      64.9999996 magnetization       2.5320254
 augmentation part        4.1360708 magnetization       1.0271118

 Broyden mixing:
  rms(total) = 0.11043E-02    rms(broyden)= 0.10986E-02
  rms(prec ) = 0.20828E-02
  weight for this iteration     100.00

 eigenvalues of (default mixing * dielectric matrix)
  average eigenvalue GAMMA=   1.8935
 11.3398  4.5385  2.7521  2.2468  1.6675  1.1030  1.1030  0.1810  0.4564  0.4564
  0.8609  0.8609  0.7872  0.6833  0.6183  0.6411

 Free energy of the ion-electron system (eV)
  ---------------------------------------------------
  alpha Z        PSCENC =        19.82141849
  Ewald energy   TEWEN  =      8338.88239735
  -Hartree energ DENC   =    -11768.33190618
  -exchange      EXHF   =         0.00000000
  -V(xc)+E(xc)   XCENC  =      -119.50918541
  PAW double counting   =      2520.45889112    -2390.97032227
  entropy T*S    EENTRO =         0.00000000
  eigenvalues    EBANDS =      -425.70635863
  atomic energy  EATOM  =      3793.03632354
  Solvation  Ediel_sol  =         0.00000000
  ---------------------------------------------------
  free energy    TOTEN  =       -32.31874198 eV

  energy without entropy =      -32.31874198  energy(sigma->0) =      -32.31874198


--------------------------------------------------------------------------------------------------------




--------------------------------------- Iteration      1(  22)  ---------------------------------------


    POTLOK:  cpu time   50.7440: real time   50.9415
    SETDIJ:  cpu time    0.0520: real time    0.0510
     EDDAV:  cpu time   19.7320: real time   19.8680
 BZINTS: Fermi energy: -2.142298; 65.000000 electrons
         Band energy:-425.545674;  BLOECHL correction: -0.018085
       DOS:  cpu time    0.0040: real time    0.0066
    CHARGE:  cpu time    2.1400: real time    2.1398
    MIXING:  cpu time    0.0680: real time    0.0687
    --------------------------------------------
      LOOP:  cpu time   72.7400: real time   73.0757

 eigenvalue-minimisations  :   784
 total energy-change (2. order) :-0.1708448E-03  (-0.5550818E-05)
 number of electron      64.9999996 magnetization       2.5177034
 augmentation part        4.1377336 magnetization       1.0166796

 Broyden mixing:
  rms(total) = 0.63974E-03    rms(broyden)= 0.63444E-03
  rms(prec ) = 0.17431E-02
  weight for this iteration     100.00

 eigenvalues of (default mixing * dielectric matrix)
  average eigenvalue GAMMA=   1.8854
 11.4545  4.9136  2.7416  2.3167  1.9147  1.1720  1.1720  0.1810  0.4564  0.4564
  0.9263  0.9263  0.7632  0.7632  0.6576  0.6182  0.6171

 Free energy of the ion-electron system (eV)
  ---------------------------------------------------
  alpha Z        PSCENC =        19.82141849
  Ewald energy   TEWEN  =      8338.88239735
  -Hartree energ DENC   =    -11768.49733019
  -exchange      EXHF   =         0.00000000
  -V(xc)+E(xc)   XCENC  =      -119.51056329
[...]
     34      -1.4132      0.00000
     35      -1.0784      0.00000
     36      -0.8606      0.00000
     37      -0.1775      0.00000
     38       0.5937      0.00000
     39       0.6462      0.00000
     40       1.2963      0.00000
     41       1.6212      0.00000
     42       1.6709      0.00000
     43       2.3296      0.00000
     44       2.3731      0.00000
     45       2.6378      0.00000
     46       3.1066      0.00000
     47       3.1287      0.00000
     48       3.3291      0.00000

 k-point     5 :      -0.4000    0.2000    0.0000
  band No.  band energies     occupation 
      1     -14.8020      1.00000
      2     -13.7856      1.00000
      3     -13.5074      1.00000
      4     -13.3768      1.00000
      5     -12.9998      1.00000
      6     -12.8508      1.00000
      7     -10.9751      1.00000
      8      -9.3057      1.00000
      9      -6.9731      1.00000
     10      -6.5480      1.00000
     11      -6.2912      1.00000
     12      -5.7509      1.00000
     13      -5.7002      1.00000
     14      -5.2142      1.00000
     15      -5.0857      1.00000
     16      -4.9209      1.00000
     17      -4.8347      1.00000
     18      -4.6633      1.00000
     19      -4.5857      1.00000
     20      -4.3925      1.00000
     21      -4.2933      1.00000
     22      -3.9099      1.00000
     23      -3.6489      1.00000
     24      -3.5132      1.00000
     25      -3.4774      1.00000
     26      -3.3751      1.00000
     27      -3.2397      1.00000
     28      -3.1184      1.00000
     29      -3.0677      1.00000
     30      -3.0169      1.00000
     31      -2.8394      1.00000
     32      -1.8938      1.00000
     33      -1.7256      1.01429
     34      -1.5714      0.00000
     35      -1.1676      0.00000
     36      -1.0129      0.00000
     37      -0.4439      0.00000
     38       0.1131      0.00000
     39       0.5520      0.00000
     40       1.1948      0.00000
     41       1.3946      0.00000
     42       1.4921      0.00000
     43       2.5298      0.00000
     44       2.8759      0.00000
     45       2.8913      0.00000
     46       3.0254      0.00000
     47       3.0564      0.00000
     48       3.5855      0.00000


--------------------------------------------------------------------------------------------------------


 soft charge-density along one line, spin component           1
         0         1         2         3         4         5         6         7         8         9
 total charge-density along one line

 soft charge-density along one line, spin component           2
         0         1         2         3         4         5         6         7         8         9
 total charge-density along one line

 pseudopotential strength for first ion, spin component:           1
 -9.717  -0.007  -0.000  -0.006  -0.000   1.038   0.004   0.000
 -0.007  -9.722  -0.000  -0.000  -0.006   0.004   1.040   0.000
 -0.000  -0.000  -9.697   0.000  -0.000   0.000   0.000   1.028
 -0.006  -0.000   0.000  -9.722   0.007   0.002   0.000  -0.000
 -0.000  -0.006  -0.000   0.007  -9.717   0.000   0.002   0.000
  1.038   0.004   0.000   0.002   0.000   0.883  -0.003  -0.000
  0.004   1.040   0.000   0.000   0.002  -0.003   0.882  -0.000
  0.000   0.000   1.028  -0.000   0.000  -0.000  -0.000   0.888
  0.002   0.000  -0.000   1.040  -0.004  -0.001  -0.000   0.000
  0.000   0.002   0.000  -0.004   1.038  -0.000  -0.001   0.000
  0.000  -0.000  -0.001  -0.000   0.000   0.000  -0.000   0.001
 -0.000   0.000   0.000   0.000  -0.000   0.000  -0.000  -0.000
  0.000   0.003   0.000   0.000   0.001  -0.000  -0.001  -0.000
  0.000  -0.000   0.003  -0.000   0.000   0.000   0.000  -0.001
  0.001   0.000   0.000   0.003  -0.000   0.000   0.000  -0.000
 -0.000  -0.001  -0.000  -0.000  -0.001   0.000   0.001   0.000
 -0.000   0.000  -0.001   0.000  -0.000   0.000  -0.000   0.001
 -0.001  -0.000  -0.000  -0.001   0.000   0.000   0.000   0.000
 pseudopotential strength for first ion, spin component:           2
 -9.913  -0.084  -0.000  -0.002  -0.000   1.121   0.035   0.000
 -0.084  -9.978  -0.000  -0.000  -0.002   0.035   1.148   0.000
 -0.000  -0.000  -9.833   0.000  -0.000   0.000   0.000   1.088
 -0.002  -0.000   0.000  -9.978   0.084   0.001   0.000  -0.000
 -0.000  -0.002  -0.000   0.084  -9.913   0.000   0.001   0.000
  1.121   0.035   0.000   0.001   0.000   0.848  -0.015  -0.000
  0.035   1.148   0.000   0.000   0.001  -0.015   0.836  -0.000
  0.000   0.000   1.088  -0.000   0.000  -0.000  -0.000   0.862
  0.001   0.000  -0.000   1.148  -0.035  -0.000  -0.000   0.000
  0.000   0.001   0.000  -0.035   1.121  -0.000  -0.000   0.000
  0.000  -0.000  -0.001  -0.000   0.000   0.000  -0.000   0.001
 -0.000   0.000   0.000   0.000  -0.000   0.000  -0.000  -0.000
 -0.000   0.002   0.000   0.000   0.001   0.000  -0.001  -0.000
  0.000  -0.000   0.003  -0.000   0.000   0.000   0.000  -0.001
  0.001   0.000   0.000   0.002   0.000   0.000   0.000  -0.000
 -0.000  -0.001  -0.000  -0.000  -0.001   0.000   0.000   0.000
 -0.000   0.000  -0.001   0.000  -0.000   0.000  -0.000   0.001
 -0.001  -0.000  -0.000  -0.001   0.000   0.000   0.000   0.000
 total augmentation occupancy for first ion, spin component:           1
  1.819  -0.135   0.000  -0.009  -0.000   0.040   0.066   0.000   0.006  -0.000   0.000  -0.000   0.001   0.000   0.010   0.000
 -0.135   1.706  -0.000  -0.000  -0.009   0.066   0.102   0.000  -0.000   0.006   0.000   0.000   0.003   0.000   0.002   0.000
  0.000  -0.000   1.942  -0.000  -0.000   0.000   0.000  -0.020   0.000  -0.000   0.000  -0.001  -0.000   0.004   0.000   0.000
 -0.009  -0.000  -0.000   1.706   0.135   0.006   0.000   0.000   0.102  -0.066   0.000   0.000  -0.002   0.000   0.003   0.000
 -0.000  -0.009  -0.000   0.135   1.819   0.000   0.006  -0.000  -0.066   0.040  -0.000   0.000   0.010  -0.000  -0.001  -0.000
  0.040   0.066   0.000   0.006   0.000   0.057   0.040   0.000  -0.004  -0.000   0.000  -0.000  -0.001  -0.000   0.011  -0.000
  0.066   0.102   0.000   0.000   0.006   0.040   0.094   0.000  -0.000  -0.004  -0.000  -0.000  -0.000   0.000  -0.001  -0.000
  0.000   0.000  -0.020   0.000  -0.000   0.000   0.000   0.040   0.000  -0.000   0.007  -0.006  -0.000  -0.000   0.000   0.000
  0.006  -0.000   0.000   0.102  -0.066  -0.004  -0.000   0.000   0.094  -0.040  -0.000  -0.000   0.001   0.000  -0.000  -0.000
 -0.000   0.006  -0.000  -0.066   0.040  -0.000  -0.004  -0.000  -0.040   0.057  -0.000   0.000   0.011   0.000   0.001  -0.002
  0.000   0.000   0.000   0.000  -0.000   0.000  -0.000   0.007  -0.000  -0.000   1.006  -0.269  -0.000   0.001   0.000   0.000
 -0.000   0.000  -0.001   0.000   0.000  -0.000   0.000  -0.006  -0.000   0.000  -0.269   0.119  -0.000  -0.002  -0.000   0.000
  0.001   0.003  -0.000  -0.002   0.010  -0.001  -0.000  -0.000   0.001   0.011  -0.000   0.000   0.176   0.000  -0.000  -0.012
  0.000   0.000   0.004   0.000  -0.000  -0.000  -0.000  -0.000   0.000   0.000   0.001  -0.002   0.000   0.179   0.000  -0.000
  0.010   0.002   0.000   0.003  -0.001   0.011  -0.001   0.000  -0.000   0.001  -0.000  -0.000  -0.000   0.000   0.176   0.000
  0.000   0.000   0.000   0.000  -0.000  -0.000  -0.000   0.000  -0.000  -0.002  -0.000   0.000  -0.012  -0.000   0.000   0.001
  0.000  -0.000   0.000   0.000  -0.000  -0.000   0.000  -0.000  -0.000   0.000  -0.000   0.000  -0.000  -0.013  -0.000   0.000
 -0.000  -0.000  -0.000   0.000  -0.000  -0.002   0.000  -0.000  -0.000   0.000   0.000   0.000  -0.000  -0.000  -0.012  -0.000
 total augmentation occupancy for first ion, spin component:           2
 -0.031  -0.045  -0.000   0.002   0.000   0.025   0.021   0.000  -0.002   0.000   0.000   0.000  -0.002  -0.000   0.001  -0.000
 -0.045  -0.066  -0.000   0.000   0.002   0.021   0.041   0.000   0.000  -0.001   0.000   0.000  -0.003   0.000   0.002  -0.000
 -0.000  -0.000   0.005  -0.000   0.000   0.000   0.000   0.009   0.000  -0.000   0.001   0.000  -0.000  -0.000  -0.000  -0.000
  0.002   0.000  -0.000  -0.066   0.045  -0.001  -0.000   0.000   0.041  -0.021  -0.000   0.000  -0.002  -0.000  -0.003   0.000
  0.000   0.002   0.000   0.045  -0.031  -0.000  -0.002  -0.000  -0.021   0.025  -0.000  -0.000   0.001   0.000   0.002  -0.000
  0.025   0.021   0.000  -0.001  -0.000  -0.005  -0.007  -0.000   0.001   0.000  -0.000  -0.000   0.001   0.000  -0.000  -0.000
  0.021   0.041   0.000  -0.000  -0.002  -0.007  -0.010  -0.000   0.000   0.001  -0.000  -0.000   0.001   0.000  -0.001  -0.000
  0.000   0.000   0.009   0.000  -0.000  -0.000  -0.000   0.000  -0.000   0.000  -0.001  -0.000   0.000   0.000   0.000   0.000
 -0.002   0.000   0.000   0.041  -0.021   0.001   0.000  -0.000  -0.010   0.007   0.000   0.000   0.001   0.000   0.001  -0.000
  0.000  -0.001  -0.000  -0.021   0.025   0.000   0.001   0.000   0.007  -0.005   0.000   0.000  -0.000  -0.000  -0.001  -0.000
  0.000   0.000   0.001   0.000  -0.000  -0.000  -0.000  -0.001   0.000   0.000  -0.005  -0.009  -0.000  -0.000   0.000   0.000
  0.000   0.000   0.000  -0.000  -0.000  -0.000   0.000  -0.000   0.000   0.000  -0.009   0.005   0.000  -0.000   0.000  -0.000
 -0.002  -0.003  -0.000  -0.002   0.001   0.001   0.001   0.000   0.001  -0.000  -0.000   0.000  -0.000   0.000   0.000  -0.000
 -0.000   0.000  -0.000  -0.000   0.000   0.000   0.000   0.000   0.000  -0.000  -0.000  -0.000   0.000   0.000   0.000  -0.000
  0.001   0.002  -0.000  -0.003   0.002  -0.000  -0.001   0.000   0.001  -0.001   0.000   0.000   0.000   0.000  -0.000   0.000
 -0.000  -0.000  -0.000   0.000  -0.000  -0.000  -0.000   0.000  -0.000  -0.000   0.000   0.000  -0.000  -0.000   0.000   0.000
 -0.000  -0.000  -0.000   0.000   0.000   0.000   0.000   0.000   0.000  -0.000  -0.000   0.000  -0.000  -0.000  -0.000   0.000
 -0.000  -0.000  -0.000  -0.000   0.000  -0.000   0.000  -0.000  -0.000   0.000   0.000  -0.000  -0.000  -0.000  -0.000  -0.000


------------------------ aborting loop because EDIFF is reached ----------------------------------------





 total charge     

# of ion       s       p       d       tot
------------------------------------------
    1        0.388   0.401   8.385   9.174
    2        0.388   0.401   8.385   9.175
    3        1.171   1.143   0.085   2.399
    4        1.090   1.346   0.000   2.435
    5        1.419   1.884   0.045   3.348
    6        1.403   1.852   0.047   3.303
    7        1.415   1.877   0.045   3.337
    8        1.410   1.910   0.041   3.361
    9        1.400   1.919   0.041   3.360
   10        1.406   1.912   0.041   3.359
--------------------------------------------------
tot         11.488  14.647  17.115  43.250



 magnetization (x)

# of ion       s       p       d       tot
------------------------------------------
    1       -0.000   0.001  -0.247  -0.247
    2        0.000  -0.001   0.248   0.247
    3       -0.000  -0.000   0.000  -0.000
    4        0.000   0.000   0.000   0.000
    5        0.001   0.011  -0.000   0.012
    6        0.000  -0.001   0.000  -0.001
    7       -0.001  -0.010   0.000  -0.011
    8       -0.000   0.006   0.000   0.006
    9       -0.000   0.003   0.000   0.003
   10        0.000  -0.008  -0.000  -0.008
--------------------------------------------------
tot          0.000   0.000   0.000   0.001

    CHARGE:  cpu time    2.2600: real time    2.2672
    FORLOC:  cpu time    0.0640: real time    0.0633
    FORNL :  cpu time    6.6600: real time    6.6843
    STRESS:  cpu time   19.8080: real time   20.0548
    FORCOR:  cpu time   50.7600: real time   51.0428
    FORHAR:  cpu time    0.3400: real time    0.3414
    MIXING:  cpu time    0.0440: real time    0.0440
    OFIELD:  cpu time    0.0000: real time    0.0000

  FORCE on cell =-STRESS in cart. coord.  units (eV):
  Direction    XX          YY          ZZ          XY          YZ          ZX
  --------------------------------------------------------------------------------------
  Alpha Z    21.98427    21.98427    21.98427
  Ewald    9712.90600  9712.90341-11770.48723    -0.00225    -0.00059    -0.00108
  Hartree 10453.82373 10453.82487 -9806.19255    -0.00040     0.00009     0.00015
  E(xc)    -284.75009  -284.75019  -284.61173     0.00012     0.00001     0.00002
  Local  -21041.99867-21041.99817 20665.63392     0.00238     0.00038     0.00072
  n-local   666.87715   666.76635   678.60808    -0.33151     0.64257     0.60118
  augment   -64.58397   -64.58324   -71.80936    -0.00045    -0.00047     0.00037
  Kinetic   539.56153   530.90819   565.94109    -5.03556    -0.51635    -0.80053
  Fock        0.00000     0.00000     0.00000     0.00000     0.00000     0.00000
  -------------------------------------------------------------------------------------
  Total      -0.56229    -0.56229    -0.93352    -0.00000     0.00000     0.00000
  in kB      -1.03134    -1.03134    -1.71224    -0.00000     0.00000     0.00000
  external pressure =       -1.26 kB  Pullay stress =        0.00 kB


 VOLUME and BASIS-vectors are now :
 -----------------------------------------------------------------------------
  energy-cutoff  :      520.00
  volume of cell :      873.52
      direct lattice vectors                 reciprocal lattice vectors
     6.813241087  0.000000155  0.000000000     0.146773026 -0.084739435 -0.000000000
     3.406619932  5.900439592  0.000000000    -0.000000004  0.169478900  0.000000000
     0.000000000 -0.000000000 21.728732750    -0.000000000 -0.000000000  0.046022012

  length of vectors
     6.813241087  6.813240546 21.728732750     0.169478887  0.169478900  0.046022012


 FORCES acting on ions
    electron-ion (+dipol)            ewald-force                    non-local-force                 convergence-correction
 -----------------------------------------------------------------------------------------------
   0.102E-03 0.453E-04 0.139E+02   0.719E-03 0.433E-03 -.143E+02   0.530E-20 -.139E-16 0.323E+00   0.406E-06 0.205E-06 -.430E-02
   -.109E-03 -.459E-04 0.114E+02   -.715E-03 -.431E-03 -.117E+02   0.694E-17 -.312E-19 0.275E+00   -.383E-06 -.222E-06 -.334E-02
   -.315E-04 -.185E-04 0.200E+03   -.144E-03 -.795E-04 -.199E+03   -.347E-17 0.147E-19 -.130E+00   0.754E-08 0.114E-07 -.103E-01
   0.470E-04 0.186E-04 -.260E+03   0.196E-03 0.109E-03 0.261E+03   0.139E-16 0.278E-16 -.375E+00   -.900E-08 0.621E-08 0.123E-01
   -.207E+02 0.160E+00 -.424E+03   0.182E+02 -.163E+00 0.428E+03   0.211E+01 -.598E-02 -.371E+01   -.448E-02 0.466E-02 0.131E-01
   0.105E+02 0.179E+02 -.424E+03   -.926E+01 -.157E+02 0.428E+03   -.106E+01 -.182E+01 -.371E+01   0.628E-02 0.155E-02 0.131E-01
   0.102E+02 -.180E+02 -.424E+03   -.898E+01 0.159E+02 0.428E+03   -.105E+01 0.183E+01 -.371E+01   -.180E-02 -.621E-02 0.131E-01
   0.306E+02 -.179E+00 0.436E+03   -.274E+02 0.172E+00 -.440E+03   -.270E+01 0.105E-01 0.409E+01   0.375E-02 0.476E-02 -.158E-01
   -.154E+02 -.264E+02 0.436E+03   0.138E+02 0.236E+02 -.440E+03   0.136E+01 0.233E+01 0.409E+01   0.225E-02 -.563E-02 -.158E-01
   -.151E+02 0.266E+02 0.436E+03   0.135E+02 -.238E+02 -.440E+03   0.134E+01 -.234E+01 0.409E+01   -.600E-02 0.865E-03 -.158E-01
 -----------------------------------------------------------------------------------------------
   0.705E-04 0.194E-05 -.124E+01   0.000E+00 -.355E-14 -.568E-13   -.222E-15 0.444E-15 0.122E+01   0.535E-07 0.825E-08 -.138E-01


 POSITION                                       TOTAL-FORCE (eV/Angst)
 -----------------------------------------------------------------------------------
      3.40662      1.96681     10.86738        -0.000000      0.000000     -0.005500
      6.81324      3.93363     10.87072        -0.000000      0.000000     -0.004962
      0.00000     -0.00000      9.73917        -0.000000     -0.000000      0.256432
     -0.00000     -0.00000     12.16122        -0.000000      0.000000     -0.098564
      4.26895      0.00248     12.46690        -0.393522     -0.003529     -0.072536
      1.27429      2.20219     12.46690         0.193705      0.342564     -0.072536
      4.67663      3.69578     12.46690         0.199817     -0.339035     -0.072536
      5.95091      5.89796      9.26183         0.512743      0.006938      0.023401
      8.94557      3.69825      9.26183        -0.250363     -0.447517      0.023401
      5.54324      2.20466      9.26183        -0.262380      0.440579      0.023401
 -----------------------------------------------------------------------------------
    total drift:                                0.000071      0.000002     -0.035340


--------------------------------------------------------------------------------------------------------



  FREE ENERGIE OF THE ION-ELECTRON SYSTEM (eV)
  ---------------------------------------------------
  free  energy   TOTEN  =       -32.77009871 eV

  energy  without entropy=      -32.77009871  energy(sigma->0) =      -32.77009871

 d Force = 0.6265314E-04[ 0.583E-04, 0.670E-04]  d Energy = 0.2656636E-02-0.259E-02
 d Force =-0.1542515E+00[-0.154E+00,-0.154E+00]  d Ewald  =-0.9283919E+01 0.913E+01


--------------------------------------------------------------------------------------------------------


    POTLOK:  cpu time   50.6920: real time   51.2335


--------------------------------------------------------------------------------------------------------




--------------------------------------------------------------------------------------------------------


  
 reached required accuracy - stopping structural energy minimisation
     LOOP+:  cpu time  671.2400: real time  676.9826
    4ORBIT:  cpu time    0.0000: real time    0.0000



 total charge     

# of ion       s       p       d       tot
------------------------------------------
    1        0.388   0.401   8.385   9.174
    2        0.388   0.401   8.385   9.175
    3        1.171   1.143   0.085   2.399
    4        1.090   1.346   0.000   2.435
    5        1.419   1.884   0.045   3.348
    6        1.403   1.852   0.047   3.303
    7        1.415   1.877   0.045   3.337
    8        1.410   1.910   0.041   3.361
    9        1.400   1.919   0.041   3.360
   10        1.406   1.912   0.041   3.359
--------------------------------------------------
tot         11.488  14.647  17.115  43.250



 magnetization (x)

# of ion       s       p       d       tot
------------------------------------------
    1       -0.000   0.001  -0.247  -0.247
    2        0.000  -0.001   0.248   0.247
    3       -0.000  -0.000   0.000  -0.000
    4        0.000   0.000   0.000   0.000
    5        0.001   0.011  -0.000   0.012
    6        0.000  -0.001   0.000  -0.001
    7       -0.001  -0.010   0.000  -0.011
    8       -0.000   0.006   0.000   0.006
    9       -0.000   0.003   0.000   0.003
   10        0.000  -0.008  -0.000  -0.008
--------------------------------------------------
tot          0.000   0.000   0.000   0.001

 BZINTS: Fermi energy: -1.599048; 65.000000 electrons
         Band energy:-414.195263;  BLOECHL correction: -0.025108

 total amount of memory used by VASP MPI-rank0   131562. kBytes
=======================================================================

   base      :      30000. kBytes
   nonlr-proj:       9062. kBytes
   fftplans  :      11247. kBytes
   grid      :      68332. kBytes
   one-center:        311. kBytes
   wavefun   :      12610. kBytes

  
  
 General timing and accounting informations for this job:
 ========================================================
  
                  Total CPU time used (sec):    21230.832
                            User time (sec):    20759.716
                          System time (sec):      471.116
                         Elapsed time (sec):    21366.173
  
                   Maximum memory used (kb):      391920.
                   Average memory used (kb):           0.
  
                          Minor page faults:     16638527
                          Major page faults:            8
                 Voluntary context switches:         1172
