 vasp.5.4.4.18Apr17-6-g9f103f2a35 (build May  1 2020 15:48:39) complex           
 executed on             LinuxGNU date 2020.07.10  09:19:07
 running on   16 total cores
 distrk:  each k-point on   16 cores,    1 groups
 distr:  one band on NCORES_PER_BAND=   1 cores,   16 groups


--------------------------------------------------------------------------------------------------------


 INCAR:
 POTCAR:   PAW_PBE Mn 06Sep2000                   
 POTCAR:   PAW_PBE Ge 05Jan2001                   
 POTCAR:   PAW_PBE Si 05Jan2001                   
 POTCAR:    PAW_PBE S 17Jan2003                   

 ----------------------------------------------------------------------------- 
|                                                                             |
|           W    W    AA    RRRRR   N    N  II  N    N   GGGG   !!!           |
|           W    W   A  A   R    R  NN   N  II  NN   N  G    G  !!!           |
|           W    W  A    A  R    R  N N  N  II  N N  N  G       !!!           |
|           W WW W  AAAAAA  RRRRR   N  N N  II  N  N N  G  GGG   !            |
|           WW  WW  A    A  R   R   N   NN  II  N   NN  G    G                |
|           W    W  A    A  R    R  N    N  II  N    N   GGGG   !!!           |
|                                                                             |
|      For optimal performance we recommend to set                            |
|        NCORE= 4 - approx SQRT( number of cores)                             |
|      NCORE specifies how many cores store one orbital (NPAR=cpu/NCORE).     |
|      This setting can  greatly improve the performance of VASP for DFT.     |
|      The default,   NCORE=1            might be grossly inefficient         |
|      on modern multi-core architectures or massively parallel machines.     |
|      Do your own testing !!!!                                               |
|      Unfortunately you need to use the default for GW and RPA calculations. |
|      (for HF NCORE is supported but not extensively tested yet)             |
|                                                                             |
 ----------------------------------------------------------------------------- 


 ----------------------------------------------------------------------------- 
|                                                                             |
|  ADVICE TO THIS USER RUNNING 'VASP/VAMP'   (HEAR YOUR MASTER'S VOICE ...):  |
|                                                                             |
|      You have switched on vdW-DFT.                                          |
|      This routine was written and supplied by Jiri Klimes.                  |
|      We recommed that you carefully read and cite the following             |
|      publication                                                            |
|      J. Klimes, D.R. Bowler, A. Michelides                                  |
|        J. Phys.: Cond Matt. 22 022201 (2010)                                |
|      J. Klimes, D.R. Bowler, A. Michelides                                  |
|        Phys. Rev. B. 83, 195131 (2011)                                      |
|      and references therein.                                                |
|                                                                             |
 ----------------------------------------------------------------------------- 

 POTCAR:   PAW_PBE Mn 06Sep2000                   
   VRHFIN =Mn: d6 s1                                                            
   LEXCH  = PE                                                                  
   EATOM  =   416.8732 eV,   30.6393 Ry                                         
                                                                                
   TITEL  = PAW_PBE Mn 06Sep2000                                                
   LULTRA =        F    use ultrasoft PP ?                                      
   IUNSCR =        1    unscreen: 0-lin 1-nonlin 2-no                           
   RPACOR =    2.000    partial core radius                                     
   POMASS =   54.938; ZVAL   =    7.000    mass and valenz                      
   RCORE  =    2.300    outmost cutoff radius                                   
   RWIGS  =    2.500; RWIGS  =    1.323    wigner-seitz radius (au A)           
   ENMAX  =  269.865; ENMIN  =  202.399 eV                                      
   RCLOC  =    1.725    cutoff for local pot                                    
   LCOR   =        T    correct aug charges                                     
   LPAW   =        T    paw PP                                                  
   EAUG   =  500.711                                                            
   DEXC   =    -.071                                                            
   RMAX   =    2.807    core radius for proj-oper                               
   RAUG   =    1.300    factor for augmentation sphere                          
   RDEP   =    2.338    radius for radial grids                                 
   QCUT   =   -4.454; QGAM   =    8.907    optimization parameters              
                                                                                
   Description                                                                  
     l     E      TYP  RCUT    TYP  RCUT                                        
     2   .000     23  2.300                                                     
     2   .000     23  2.300                                                     
     0   .000     23  2.300                                                     
     0   .000     23  2.300                                                     
     1  -.200     23  2.300                                                     
     1  1.500     23  2.300                                                     
     3   .000      7   .000                                                     
  local pseudopotential read in
  partial core-charges read in
  atomic valenz-charges read in
  non local Contribution for L=           2  read in
    real space projection operators read in
  non local Contribution for L=           2  read in
    real space projection operators read in
  non local Contribution for L=           0  read in
    real space projection operators read in
  non local Contribution for L=           0  read in
    real space projection operators read in
  non local Contribution for L=           1  read in
    real space projection operators read in
  non local Contribution for L=           1  read in
    real space projection operators read in
    PAW grid and wavefunctions read in

   number of l-projection  operators is LMAX  =           6
   number of lm-projection operators is LMMAX =          18

 POTCAR:   PAW_PBE Ge 05Jan2001                   
   VRHFIN =Ge: s2p2                                                             
   LEXCH  = PE                                                                  
   EATOM  =   104.9960 eV,    7.7170 Ry                                         
                                                                                
   TITEL  = PAW_PBE Ge 05Jan2001                                                
   LULTRA =        F    use ultrasoft PP ?                                      
   IUNSCR =        1    unscreen: 0-lin 1-nonlin 2-no                           
   RPACOR =    2.170    partial core radius                                     
   POMASS =   72.610; ZVAL   =    4.000    mass and valenz                      
   RCORE  =    2.300    outmost cutoff radius                                   
   RWIGS  =    2.300; RWIGS  =    1.217    wigner-seitz radius (au A)           
   ENMAX  =  173.807; ENMIN  =  130.355 eV                                      
   ICORE  =        3    local potential                                         
   LCOR   =        T    correct aug charges                                     
   LPAW   =        T    paw PP                                                  
   EAUG   =  385.843                                                            
   DEXC   =    -.138                                                            
   RMAX   =    3.497    core radius for proj-oper                               
   RAUG   =    1.300    factor for augmentation sphere                          
   RDEP   =    2.318    radius for radial grids                                 
   QCUT   =   -3.574; QGAM   =    7.148    optimization parameters              
                                                                                
   Description                                                                  
     l     E      TYP  RCUT    TYP  RCUT                                        
     0   .000     23  2.300                                                     
     0   .000     23  2.300                                                     
     1   .000     23  2.300                                                     
     1   .000     23  2.300                                                     
     2   .000     23  2.300                                                     
     3  -.100      7  2.300                                                     
  local pseudopotential read in
  partial core-charges read in
  atomic valenz-charges read in
  non local Contribution for L=           0  read in
    real space projection operators read in
  non local Contribution for L=           0  read in
    real space projection operators read in
  non local Contribution for L=           1  read in
    real space projection operators read in
  non local Contribution for L=           1  read in
    real space projection operators read in
  non local Contribution for L=           2  read in
    real space projection operators read in
    PAW grid and wavefunctions read in

   number of l-projection  operators is LMAX  =           5
   number of lm-projection operators is LMMAX =          13

 POTCAR:   PAW_PBE Si 05Jan2001                   
   VRHFIN =Si: s2p2                                                             
   LEXCH  = PE                                                                  
   EATOM  =   103.0669 eV,    7.5752 Ry                                         
                                                                                
   TITEL  = PAW_PBE Si 05Jan2001                                                
   LULTRA =        F    use ultrasoft PP ?                                      
   IUNSCR =        1    unscreen: 0-lin 1-nonlin 2-no                           
   RPACOR =    1.500    partial core radius                                     
   POMASS =   28.085; ZVAL   =    4.000    mass and valenz                      
   RCORE  =    1.900    outmost cutoff radius                                   
   RWIGS  =    2.480; RWIGS  =    1.312    wigner-seitz radius (au A)           
   ENMAX  =  245.345; ENMIN  =  184.009 eV                                      
   ICORE  =        2    local potential                                         
   LCOR   =        T    correct aug charges                                     
   LPAW   =        T    paw PP                                                  
   EAUG   =  322.069                                                            
   DEXC   =    -.007                                                            
   RMAX   =    2.944    core radius for proj-oper                               
   RAUG   =    1.300    factor for augmentation sphere                          
   RDEP   =    1.993    radius for radial grids                                 
   QCUT   =   -4.246; QGAM   =    8.493    optimization parameters              
                                                                                
   Description                                                                  
     l     E      TYP  RCUT    TYP  RCUT                                        
     0   .000     23  1.900                                                     
     0   .000     23  1.900                                                     
     1   .000     23  1.900                                                     
     1   .000     23  1.900                                                     
     2   .000      7  1.900                                                     
  local pseudopotential read in
  partial core-charges read in
  atomic valenz-charges read in
  non local Contribution for L=           0  read in
    real space projection operators read in
  non local Contribution for L=           0  read in
    real space projection operators read in
  non local Contribution for L=           1  read in
    real space projection operators read in
  non local Contribution for L=           1  read in
    real space projection operators read in
    PAW grid and wavefunctions read in

   number of l-projection  operators is LMAX  =           4
   number of lm-projection operators is LMMAX =           8

 POTCAR:    PAW_PBE S 17Jan2003                   
   VRHFIN =S : s2p4                                                             
   LEXCH  = PE                                                                  
   EATOM  =   276.8230 eV,   20.3459 Ry                                         
                                                                                
   TITEL  = PAW_PBE S 17Jan2003                                                 
   LULTRA =        F    use ultrasoft PP ?                                      
   IUNSCR =        1    unscreen: 0-lin 1-nonlin 2-no                           
   RPACOR =    1.500    partial core radius                                     
   POMASS =   32.066; ZVAL   =    6.000    mass and valenz                      
   RCORE  =    1.900    outmost cutoff radius                                   
   RWIGS  =    2.200; RWIGS  =    1.164    wigner-seitz radius (au A)           
   ENMAX  =  280.000; ENMIN  =  194.016 eV                                      
   ICORE  =        2    local potential                                         
   LCOR   =        T    correct aug charges                                     
   LPAW   =        T    paw PP                                                  
   EAUG   =  335.092                                                            
   DEXC   =     .000                                                            
   RMAX   =    2.867    core radius for proj-oper                               
   RAUG   =    1.300    factor for augmentation sphere                          
   RDEP   =    1.954    radius for radial grids                                 
   QCUT   =   -4.360; QGAM   =    8.721    optimization parameters              
                                                                                
   Description                                                                  
     l     E      TYP  RCUT    TYP  RCUT                                        
     0   .000     23  1.900                                                     
     0   .000     23  1.900                                                     
     1   .000     23  1.900                                                     
     1   .000     23  1.900                                                     
     2   .000     23  1.900                                                     
  local pseudopotential read in
  partial core-charges read in
  atomic valenz-charges read in
  non local Contribution for L=           0  read in
    real space projection operators read in
  non local Contribution for L=           0  read in
    real space projection operators read in
  non local Contribution for L=           1  read in
    real space projection operators read in
  non local Contribution for L=           1  read in
    real space projection operators read in
    PAW grid and wavefunctions read in

   number of l-projection  operators is LMAX  =           4
   number of lm-projection operators is LMMAX =           8

 Optimization of the real space projectors (new method)

 maximal supplied QI-value         = 16.25
 optimisation between [QCUT,QGAM] = [ 11.54, 23.24] = [ 37.28,151.24] Ry 
 Optimized for a Real-space Cutoff    1.53 Angstroem

   l    n(q)    QCUT    max X(q) W(low)/X(q) W(high)/X(q)  e(spline) 
   2     10    11.539     4.144    0.87E-05    0.14E-04    0.48E-07
   2     10    11.539    35.116    0.12E-03    0.13E-03    0.25E-06
   0     11    11.539    20.431    0.20E-04    0.18E-05    0.19E-07
   0     11    11.539    61.159    0.37E-04    0.19E-04    0.29E-06
   1     10    11.539     6.695    0.11E-04    0.24E-05    0.29E-07
   1     10    11.539     8.642    0.41E-04    0.18E-04    0.11E-06
 Optimization of the real space projectors (new method)

 maximal supplied QI-value         = 16.25
 optimisation between [QCUT,QGAM] = [ 11.54, 23.24] = [ 37.28,151.24] Ry 
 Optimized for a Real-space Cutoff    1.28 Angstroem

   l    n(q)    QCUT    max X(q) W(low)/X(q) W(high)/X(q)  e(spline) 
   0      9    11.539     8.651    0.22E-04    0.16E-04    0.10E-07
   0      9    11.539    33.192    0.11E-03    0.16E-03    0.65E-07
   1      8    11.539     5.899    0.37E-04    0.28E-04    0.43E-07
   1      8    11.539    27.289    0.22E-03    0.28E-04    0.14E-06
   2      8    11.539     4.673    0.11E-03    0.18E-03    0.58E-07
 Optimization of the real space projectors (new method)

 maximal supplied QI-value         = 19.84
 optimisation between [QCUT,QGAM] = [ 11.51, 23.22] = [ 37.09,150.92] Ry 
 Optimized for a Real-space Cutoff    1.21 Angstroem

   l    n(q)    QCUT    max X(q) W(low)/X(q) W(high)/X(q)  e(spline) 
   0      8    11.508     8.708    0.18E-04    0.44E-05    0.47E-08
   0      8    11.508   106.241    0.70E-04    0.15E-03    0.51E-07
   1      8    11.508     5.901    0.63E-05    0.23E-04    0.21E-07
   1      8    11.508    73.241    0.15E-03    0.36E-04    0.79E-07
 Optimization of the real space projectors (new method)

 maximal supplied QI-value         = 19.84
 optimisation between [QCUT,QGAM] = [ 11.51, 23.22] = [ 37.09,150.92] Ry 
 Optimized for a Real-space Cutoff    1.21 Angstroem

   l    n(q)    QCUT    max X(q) W(low)/X(q) W(high)/X(q)  e(spline) 
   0      8    11.508     5.487    0.18E-04    0.22E-05    0.47E-08
   0      8    11.508    85.627    0.96E-04    0.18E-03    0.54E-07
   1      8    11.508     3.530    0.17E-04    0.28E-04    0.21E-07
   1      8    11.508    42.714    0.18E-03    0.63E-04    0.92E-07

 ----------------------------------------------------------------------------- 
|                                                                             |
|  ADVICE TO THIS USER RUNNING 'VASP/VAMP'   (HEAR YOUR MASTER'S VOICE ...):  |
|                                                                             |
|      You enforced a specific xc-type in the INCAR file,                     |
|      a different type was found on the POTCAR file                          |
|          I HOPE YOU KNOW, WHAT YOU ARE  DOING                               |
|                                                                             |
 ----------------------------------------------------------------------------- 

 PAW_PBE Mn 06Sep2000                   :
 energy of atom  1       EATOM= -416.8732
 kinetic energy error for atom=    0.0024 (will be added to EATOM!!)
 PAW_PBE Ge 05Jan2001                   :
 energy of atom  2       EATOM= -104.9960
 kinetic energy error for atom=    0.0002 (will be added to EATOM!!)
 PAW_PBE Si 05Jan2001                   :
 energy of atom  3       EATOM= -103.0669
 kinetic energy error for atom=    0.0005 (will be added to EATOM!!)
  PAW_PBE S 17Jan2003                   :
 energy of atom  4       EATOM= -276.8230
 kinetic energy error for atom=    0.0016 (will be added to EATOM!!)


 POSCAR: Mn2 Ge Si S6                            
  positions in direct lattice
  velocities in cartesian coordinates
  No initial velocities read in
 exchange correlation table for  LEXCH =       42
   RHO(1)=    0.500       N(1)  =     2000
   RHO(2)=  100.500       N(2)  =     4000



--------------------------------------------------------------------------------------------------------


 ion  position               nearest neighbor table
   1  0.333  0.333  0.500-   6 2.78   5 2.78   7 2.78   8 2.78  10 2.78   9 2.78
   2  0.667  0.667  0.500-   9 2.78   8 2.78  10 2.78   5 2.78   7 2.78   6 2.78
   3  0.000  0.000  0.448-   4 2.43   8 2.63  10 2.63   9 2.63
   4  0.000  0.000  0.552-   3 2.43   5 2.63   7 2.63   6 2.63
   5  0.626  0.000  0.574-   4 2.63   1 2.78   2 2.78
   6  0.000  0.373  0.574-   4 2.63   1 2.78   2 2.78
   7  0.373  0.626  0.574-   4 2.63   1 2.78   2 2.78
   8  0.374  1.000  0.426-   3 2.63   2 2.78   1 2.78
   9  1.000  0.627  0.426-   3 2.63   2 2.78   1 2.78
  10  0.627  0.374  0.426-   3 2.63   2 2.78   1 2.78

  LATTYP: Found a hexagonal cell.
 ALAT       =     6.9077769333
 C/A-ratio  =     3.3939410937
  
  Lattice vectors:
  
 A1 = (   3.4538890000,  -5.9823100000,   0.0000000000)
 A2 = (  -6.9077770000,   0.0000000000,   0.0000000000)
 A3 = (   0.0000000000,   0.0000000000, -23.4445880000)


Analysis of symmetry for initial positions (statically):
=====================================================================
 Subroutine PRICEL returns:
 Original cell was already a primitive cell.
 

 Routine SETGRP: Setting up the symmetry group for a 
 hexagonal supercell.


 Subroutine GETGRP returns: Found  3 space group operations
 (whereof  3 operations were pure point group operations)
 out of a pool of 24 trial point group operations.


The static configuration has the point symmetry C_3 .


Analysis of symmetry for dynamics (positions and initial velocities):
=====================================================================
 Subroutine PRICEL returns:
 Original cell was already a primitive cell.
 

 Routine SETGRP: Setting up the symmetry group for a 
 hexagonal supercell.


 Subroutine GETGRP returns: Found  3 space group operations
 (whereof  3 operations were pure point group operations)
 out of a pool of 24 trial point group operations.


The dynamic configuration has the point symmetry C_3 .


Analysis of constrained symmetry for selective dynamics:
=====================================================================
 Subroutine PRICEL returns:
 Original cell was already a primitive cell.
 

 Routine SETGRP: Setting up the symmetry group for a 
 hexagonal supercell.


 Subroutine GETGRP returns: Found  3 space group operations
 (whereof  3 operations were pure point group operations)
 out of a pool of 24 trial point group operations.


The constrained configuration has the point symmetry C_3 .


Analysis of structural, dynamic, and magnetic symmetry:
=====================================================================
 Subroutine PRICEL returns:
 Original cell was already a primitive cell.
 

 Routine SETGRP: Setting up the symmetry group for a 
 hexagonal supercell.


 Subroutine GETGRP returns: Found  3 space group operations
 (whereof  3 operations were pure point group operations)
 out of a pool of 24 trial point group operations.


The magnetic configuration has the point symmetry C_3 .


 Subroutine INISYM returns: Found  3 space group operations
 (whereof  3 operations are pure point group operations),
 and found     1 'primitive' translations



 KPOINTS: Kpoints from vasprun.xml                

Automatic generation of k-mesh.
Space group operators:
 irot       det(A)        alpha          n_x          n_y          n_z        tau_x        tau_y        tau_z
    1     1.000000     0.000000     1.000000     0.000000     0.000000     0.000000     0.000000     0.000000
    2     1.000000   120.000000     0.000000     0.000000     1.000000     0.000000     0.000000     0.000000
    3     1.000000   120.000000     0.000000     0.000000    -1.000000     0.000000     0.000000     0.000000
 
 Subroutine IBZKPT returns following result:
 ===========================================
 
 Found      5 irreducible k-points:
 
 Following reciprocal coordinates:
            Coordinates               Weight
  0.000000  0.000000  0.000000      1.000000
  0.200000  0.000000  0.000000      6.000000
  0.400000  0.000000  0.000000      6.000000
  0.400000  0.200000  0.000000      6.000000
 -0.400000  0.200000  0.000000      6.000000
 
 Following cartesian coordinates:
            Coordinates               Weight
  0.000000  0.000000  0.000000      1.000000
  0.028953 -0.016716  0.000000      6.000000
  0.057906 -0.033432  0.000000      6.000000
  0.057906  0.000000  0.000000      6.000000
 -0.057906  0.066864  0.000000      6.000000
 
 TETIRR: Found     15 inequivalent tetrahedra from      150


--------------------------------------------------------------------------------------------------------




 Dimension of arrays:
   k-points           NKPTS =      5   k-points in BZ     NKDIM =      5   number of bands    NBANDS=     48
   number of dos      NEDOS =    301   number of ions     NIONS =     10
   non local maximal  LDIM  =      6   non local SUM 2l+1 LMDIM =     18
   total plane-waves  NPLWV = 524880
   max r-space proj   IRMAX =   8238   max aug-charges    IRDMAX=  29641
   dimension x,y,z NGX =    54 NGY =   54 NGZ =  180
   dimension x,y,z NGXF=   108 NGYF=  108 NGZF=  360
   support grid    NGXF=   108 NGYF=  108 NGZF=  360
   ions per type =               2   1   1   6
   NGX,Y,Z   is equivalent  to a cutoff of  13.00, 13.00, 12.76 a.u.
   NGXF,Y,Z  is equivalent  to a cutoff of  25.99, 25.99, 25.53 a.u.

 SYSTEM =  unknown system                          
 POSCAR =  Mn2 Ge Si S6                            

 Startparameter for this run:
   NWRITE =      2    write-flag & timer
   PREC   = accura    normal or accurate (medium, high low for compatibility)
   ISTART =      0    job   : 0-new  1-cont  2-samecut
   ICHARG =      2    charge: 1-file 2-atom 10-const
   ISPIN  =      2    spin polarized calculation?
   LNONCOLLINEAR =      F non collinear calculations
   LSORBIT =      F    spin-orbit coupling
   INIWAV =      1    electr: 0-lowe 1-rand  2-diag
   LASPH  =      F    aspherical Exc in radial PAW
   METAGGA=      F    non-selfconsistent MetaGGA calc.

 Electronic Relaxation 1
   ENCUT  =  520.0 eV  38.22 Ry    6.18 a.u.  12.84 12.84 43.59*2*pi/ulx,y,z
   ENINI  =  520.0     initial cutoff
   ENAUG  =  500.7 eV  augmentation charge cutoff
   NELM   =    400;   NELMIN=  2; NELMDL=  0     # of ELM steps 
   EDIFF  = 0.1E-03   stopping-criterion for ELM
   LREAL  =      T    real-space projection
   NLSPLINE    = F    spline interpolate recip. space projectors
   LCOMPAT=      F    compatible to vasp.4.4
   GGA_COMPAT  = T    GGA compatible to vasp.4.4-vasp.4.6
   LMAXPAW     = -100 max onsite density
   LMAXMIX     =    2 max onsite mixed and CHGCAR
   VOSKOWN=      0    Vosko Wilk Nusair interpolation
   ROPT   =   -0.00025  -0.00025  -0.00025  -0.00025
 Ionic relaxation
   EDIFFG = 0.1E-02   stopping-criterion for IOM
   NSW    =     99    number of steps for IOM
   NBLOCK =      1;   KBLOCK =     99    inner block; outer block 
   IBRION =      2    ionic relax: 0-MD 1-quasi-New 2-CG
   NFREE  =      1    steps in history (QN), initial steepest desc. (CG)
   ISIF   =      3    stress and relaxation
   IWAVPR =     11    prediction:  0-non 1-charg 2-wave 3-comb
   ISYM   =      2    0-nonsym 1-usesym 2-fastsym
   LCORR  =      T    Harris-Foulkes like correction to forces

   POTIM  = 0.5000    time-step for ionic-motion
   TEIN   =    0.0    initial temperature
   TEBEG  =    0.0;   TEEND  =   0.0 temperature during run
   SMASS  =  -3.00    Nose mass-parameter (am)
   estimated Nose-frequenzy (Omega)   =  0.10E-29 period in steps =****** mass=  -0.109E-26a.u.
   SCALEE = 1.0000    scale energy and forces
   NPACO  =    256;   APACO  = 16.0  distance and # of slots for P.C.
   PSTRESS=    0.0 pullay stress

  Mass of Ions in am
   POMASS =  54.94 72.61 28.09 32.07
  Ionic Valenz
   ZVAL   =   7.00  4.00  4.00  6.00
  Atomic Wigner-Seitz radii
   RWIGS  =  -1.00 -1.00 -1.00 -1.00
  virtual crystal weights 
   VCA    =   1.00  1.00  1.00  1.00
   NELECT =      58.0000    total number of electrons
   NUPDOWN=      -1.0000    fix difference up-down

 DOS related values:
   EMIN   =  10.00;   EMAX   =-10.00  energy-range for DOS
   EFERMI =   0.00
   ISMEAR =    -5;   SIGMA  =   0.05  broadening in eV -4-tet -1-fermi 0-gaus

 Electronic relaxation 2 (details)
   IALGO  =     38    algorithm
   LDIAG  =      T    sub-space diagonalisation (order eigenvalues)
   LSUBROT=      F    optimize rotation matrix (better conditioning)
   TURBO    =      0    0=normal 1=particle mesh
   IRESTART =      0    0=no restart 2=restart with 2 vectors
   NREBOOT  =      0    no. of reboots
   NMIN     =      0    reboot dimension
   EREF     =   0.00    reference energy to select bands
   IMIX   =      4    mixing-type and parameters
     AMIX     =   0.40;   BMIX     =  1.00
     AMIX_MAG =   1.60;   BMIX_MAG =  1.00
     AMIN     =   0.01
     WC   =   100.;   INIMIX=   1;  MIXPRE=   1;  MAXMIX= -45

 Intra band minimization:
   WEIMIN = 0.0010     energy-eigenvalue tresh-hold
   EBREAK =  0.52E-06  absolut break condition
   DEPER  =   0.30     relativ break condition  

   TIME   =   0.40     timestep for ELM

  volume/ion in A,a.u.               =      96.88       653.80
  Fermi-wavevector in a.u.,A,eV,Ry     =   0.640424  1.210226  5.580332  0.410143
  Thomas-Fermi vector in A             =   1.706427

 Write flags
   LWAVE        =      F    write WAVECAR
   LDOWNSAMPLE  =      F    k-point downsampling of WAVECAR
   LCHARG       =      T    write CHGCAR
   LVTOT        =      F    write LOCPOT, total local potential
   LVHAR        =      F    write LOCPOT, Hartree potential only
   LELF         =      F    write electronic localiz. function (ELF)
   LORBIT       =     11    0 simple, 1 ext, 2 COOP (PROOUT), +10 PAW based schemes


 Dipole corrections
   LMONO  =      F    monopole corrections only (constant potential shift)
   LDIPOL =      F    correct potential (dipole corrections)
   IDIPOL =      0    1-x, 2-y, 3-z, 4-all directions 
   EPSILON=  1.0000000 bulk dielectric constant

 Exchange correlation treatment:
   GGA     =    BO    GGA type
   LEXCH   =    42    internal setting for exchange type
   VOSKOWN=      0    Vosko Wilk Nusair interpolation
   LHFCALC =     F    Hartree Fock is set to
   LHFONE  =     F    Hartree Fock one center treatment
   AEXX    =    0.0000 exact exchange contribution

 vdW DFT:
   LUSE_VDW   =     T    switch on vdW DFT
   Zab_VDW    =-.8491    correlation parameter
   PARAM1     =0.1833
   PARAM2     =0.2200
   PARAM3     =0.0000
   -- rVV10 --
   BPARAM     = 6.3000
   CPARAM     = 0.0093

 Linear response parameters
   LEPSILON=     F    determine dielectric tensor
   LRPA    =     F    only Hartree local field effects (RPA)
   LNABLA  =     F    use nabla operator in PAW spheres
   LVEL    =     F    velocity operator in full k-point grid
   LINTERFAST=   F  fast interpolation
   KINTER  =     0    interpolate to denser k-point grid
   CSHIFT  =0.1000    complex shift for real part using Kramers Kronig
   OMEGAMAX=  -1.0    maximum frequency
   DEG_THRESHOLD= 0.2000000E-02 threshold for treating states as degnerate
   RTIME   =   -0.100 relaxation time in fs
  (WPLASMAI=    0.000 imaginary part of plasma frequency in eV, 0.658/RTIME)
   DFIELD  = 0.0000000 0.0000000 0.0000000 field for delta impulse in time

 Orbital magnetization related:
   ORBITALMAG=     F  switch on orbital magnetization
   LCHIMAG   =     F  perturbation theory with respect to B field
   DQ        =  0.001000  dq finite difference perturbation B field
   LLRAUG    =     F  two centre corrections for induced B field



--------------------------------------------------------------------------------------------------------


 conjugate gradient relaxation of ions
   using selective dynamics as specified on POSCAR
 charge density and potential will be updated during run
 spin polarized calculation
 Variant of blocked Davidson
 Davidson routine will perform the subspace rotation
 perform sub-space diagonalisation
    after iterative eigenvector-optimisation
 modified Broyden-mixing scheme, WC =      100.0
 initial mixing is a Kerker type mixing with AMIX =  0.4000 and BMIX =      1.0000
 Hartree-type preconditioning will be used
 using additional bands           19
 real space projection scheme for non local part
 use partial core corrections
 calculate Harris-corrections to forces   (improved forces if not selfconsistent)
 use gradient corrections 
 use of overlap-Matrix (Vanderbilt PP)
 Fermi weights with tetrahedron method with Bloechl corrections


--------------------------------------------------------------------------------------------------------


  energy-cutoff  :      520.00
  volume of cell :      968.84
      direct lattice vectors                 reciprocal lattice vectors
     6.907777000 -0.000000000  0.000000000     0.144764372 -0.083579742  0.000000000
     3.453888000  5.982310000  0.000000000     0.000000000  0.167159509 -0.000000000
     0.000000000  0.000000000 23.444588000    -0.000000000  0.000000000  0.042653767

  length of vectors
     6.907777000  6.907776433 23.444588000     0.167159495  0.167159509  0.042653767



 k-points in units of 2pi/SCALE and weight: Kpoints from vasprun.xml                
   0.00000000  0.00000000  0.00000000       0.040
   0.02895287 -0.01671595  0.00000000       0.240
   0.05790575 -0.03343190  0.00000000       0.240
   0.05790575  0.00000000  0.00000000       0.240
  -0.05790575  0.06686380  0.00000000       0.240

 k-points in reciprocal lattice and weights: Kpoints from vasprun.xml                
   0.00000000  0.00000000  0.00000000       0.040
   0.20000000  0.00000000  0.00000000       0.240
   0.40000000  0.00000000  0.00000000       0.240
   0.40000000  0.20000000  0.00000000       0.240
  -0.40000000  0.20000000  0.00000000       0.240

 position of ions in fractional coordinates (direct lattice) 
   0.33333300  0.33333300  0.49992500
   0.66666700  0.66666700  0.50007500
   0.00000000  0.00000000  0.44821600
   0.00000000  0.00000000  0.55178400
   0.62635700  0.00042000  0.57375200
   0.00042000  0.37322400  0.57375200
   0.37322400  0.62635700  0.57375200
   0.37364300  0.99958000  0.42624800
   0.99958000  0.62677600  0.42624800
   0.62677600  0.37364300  0.42624800

 position of ions in cartesian coordinates  (Angst):
   3.45388488  1.99410134 11.72053566
   6.90778012  3.98820866 11.72405234
   0.00000000  0.00000000 10.50823946
   0.00000000  0.00000000 12.93634854
   4.32818511  0.00251257 13.45137925
   1.29197516  2.23274167 13.45137925
   4.74151509  3.74706174 13.45137925
   6.03347989  5.97979743  9.99320875
   9.06968984  3.74956833  9.99320875
   5.62014991  2.23524826  9.99320875



--------------------------------------------------------------------------------------------------------


 k-point  1 :   0.0000 0.0000 0.0000  plane waves:   26073
 k-point  2 :   0.2000 0.0000 0.0000  plane waves:   26070
 k-point  3 :   0.4000 0.0000 0.0000  plane waves:   26086
 k-point  4 :   0.4000 0.2000 0.0000  plane waves:   26085
 k-point  5 :  -0.4000 0.2000 0.0000  plane waves:   26115

 maximum and minimum number of plane-waves per node :     26115    26070

 maximum number of plane-waves:     26115
 maximum index in each direction: 
   IXMAX=   13   IYMAX=   12   IZMAX=   43
   IXMIN=  -13   IYMIN=  -13   IZMIN=  -43


 serial   3D FFT for wavefunctions
 parallel 3D FFT for charge:
    minimum data exchange during FFTs selected (reduces bandwidth)


 total amount of memory used by VASP MPI-rank0   128855. kBytes
=======================================================================

   base      :      30000. kBytes
   nonlr-proj:       6370. kBytes
   fftplans  :      11247. kBytes
   grid      :      68332. kBytes
   one-center:        311. kBytes
   wavefun   :      12595. kBytes

     INWAV:  cpu time    0.0000: real time    0.0004
 Broyden mixing: mesh for mixing (old mesh)
   NGX = 25   NGY = 25   NGZ = 87
  (NGX  =108   NGY  =108   NGZ  =360)
  gives a total of  54375 points

 initial charge density was supplied:
 charge density of overlapping atoms calculated
 number of electron      58.0000000 magnetization       7.0000000
 keeping initial charge density in first step


--------------------------------------------------------------------------------------------------------


 Maximum index for non-local projection operator         7925
 Maximum index for augmentation-charges         2133 (set IRDMAX)


--------------------------------------------------------------------------------------------------------


 First call to EWALD:  gamma=   0.179
 Maximum number of real-space cells 4x 4x 1
 Maximum number of reciprocal cells 2x 2x 6

    FEWALD:  cpu time    0.0040: real time    0.0014


--------------------------------------- Iteration      1(   1)  ---------------------------------------


vdW kernel read from vdw_kernel.bindat
  0.0000  0.2424  0.5071  0.7962  1.1119  1.4567  1.8333  2.2446  2.6937  3.1842
  3.7199  4.3049  4.9438  5.6415  6.4036  7.2358  8.1446  9.1372 10.2212 11.4050
 12.6979 14.1099 15.6519 17.3360 19.1751 21.1837 23.3773 25.7729 28.3892 31.2465
 34.3669 37.7748 41.4965 45.5611 50.0000

    POTLOK:  cpu time   52.1480: real time   52.6457
    SETDIJ:  cpu time    0.0800: real time    0.0806
     EDDAV:  cpu time   22.1840: real time   22.7079
 BZINTS: Fermi energy:  5.773786; 58.000000 electrons
         Band energy: -15.967980;  BLOECHL correction: -0.042787
       DOS:  cpu time    0.0080: real time    0.0047
    --------------------------------------------
      LOOP:  cpu time   74.4200: real time   75.4389

 eigenvalue-minimisations  :   960
 total energy-change (2. order) : 0.4106365E+03  (-0.1660574E+04)
 number of electron      58.0000000 magnetization       7.0000000
 augmentation part       58.0000000 magnetization       7.0000000

 Free energy of the ion-electron system (eV)
  ---------------------------------------------------
  alpha Z        PSCENC =        21.83953255
  Ewald energy   TEWEN  =      6490.34799790
  -Hartree energ DENC   =     -8910.76198573
  -exchange      EXHF   =         0.00000000
  -V(xc)+E(xc)   XCENC  =        24.26190745
  PAW double counting   =      1329.63383292    -1242.23084763
  entropy T*S    EENTRO =         0.00000000
  eigenvalues    EBANDS =       -15.96798007
  atomic energy  EATOM  =      2713.51399804
  Solvation  Ediel_sol  =         0.00000000
  ---------------------------------------------------
  free energy    TOTEN  =       410.63645543 eV

  energy without entropy =      410.63645543  energy(sigma->0) =      410.63645543


--------------------------------------------------------------------------------------------------------




--------------------------------------- Iteration      1(   2)  ---------------------------------------


     EDDAV:  cpu time   27.0240: real time   27.4129
 BZINTS: Fermi energy: -1.087258; 57.985468 electrons
         Band energy:-392.932286;  BLOECHL correction: -0.088955
       DOS:  cpu time    0.0080: real time    0.0067
    --------------------------------------------
      LOOP:  cpu time   27.0320: real time   27.4196

 eigenvalue-minimisations  :  1184
 total energy-change (2. order) :-0.3769643E+03  (-0.3459580E+03)
 number of electron      58.0000000 magnetization       7.0000000
 augmentation part       58.0000000 magnetization       7.0000000

 Free energy of the ion-electron system (eV)
  ---------------------------------------------------
  alpha Z        PSCENC =        21.83953255
  Ewald energy   TEWEN  =      6490.34799790
  -Hartree energ DENC   =     -8910.76198573
  -exchange      EXHF   =         0.00000000
  -V(xc)+E(xc)   XCENC  =        24.26190745
  PAW double counting   =      1329.63383292    -1242.23084763
  entropy T*S    EENTRO =         0.00000000
  eigenvalues    EBANDS =      -392.93228588
  atomic energy  EATOM  =      2713.51399804
  Solvation  Ediel_sol  =         0.00000000
  ---------------------------------------------------
  free energy    TOTEN  =        33.67214962 eV

  energy without entropy =       33.67214962  energy(sigma->0) =       33.67214962


--------------------------------------------------------------------------------------------------------




--------------------------------------- Iteration      1(   3)  ---------------------------------------


     EDDAV:  cpu time   32.1040: real time   32.5141
 BZINTS: Fermi energy: -2.797100; 58.000000 electrons
         Band energy:-477.920420;  BLOECHL correction: -0.005349
       DOS:  cpu time    0.0040: real time    0.0049
    --------------------------------------------
      LOOP:  cpu time   32.1080: real time   32.5190

 eigenvalue-minimisations  :  1424
 total energy-change (2. order) :-0.8498813E+02  (-0.8120062E+02)
 number of electron      58.0000000 magnetization       7.0000000
 augmentation part       58.0000000 magnetization       7.0000000

 Free energy of the ion-electron system (eV)
  ---------------------------------------------------
  alpha Z        PSCENC =        21.83953255
  Ewald energy   TEWEN  =      6490.34799790
  -Hartree energ DENC   =     -8910.76198573
  -exchange      EXHF   =         0.00000000
  -V(xc)+E(xc)   XCENC  =        24.26190745
  PAW double counting   =      1329.63383292    -1242.23084763
  entropy T*S    EENTRO =         0.00000000
  eigenvalues    EBANDS =      -477.92041990
  atomic energy  EATOM  =      2713.51399804
  Solvation  Ediel_sol  =         0.00000000
  ---------------------------------------------------
  free energy    TOTEN  =       -51.31598440 eV

  energy without entropy =      -51.31598440  energy(sigma->0) =      -51.31598440


--------------------------------------------------------------------------------------------------------




--------------------------------------- Iteration      1(   4)  ---------------------------------------


     EDDAV:  cpu time   31.6600: real time   32.4279
 BZINTS: Fermi energy: -2.849286; 58.000000 electrons
         Band energy:-482.748877;  BLOECHL correction: -0.006695
       DOS:  cpu time    0.0040: real time    0.0052
    --------------------------------------------
      LOOP:  cpu time   31.6640: real time   32.4331

 eigenvalue-minimisations  :  1424
 total energy-change (2. order) :-0.4828457E+01  (-0.4706554E+01)
 number of electron      58.0000000 magnetization       7.0000000
 augmentation part       58.0000000 magnetization       7.0000000

 Free energy of the ion-electron system (eV)
  ---------------------------------------------------
  alpha Z        PSCENC =        21.83953255
  Ewald energy   TEWEN  =      6490.34799790
  -Hartree energ DENC   =     -8910.76198573
  -exchange      EXHF   =         0.00000000
  -V(xc)+E(xc)   XCENC  =        24.26190745
  PAW double counting   =      1329.63383292    -1242.23084763
  entropy T*S    EENTRO =         0.00000000
  eigenvalues    EBANDS =      -482.74887681
  atomic energy  EATOM  =      2713.51399804
  Solvation  Ediel_sol  =         0.00000000
  ---------------------------------------------------
  free energy    TOTEN  =       -56.14444131 eV

  energy without entropy =      -56.14444131  energy(sigma->0) =      -56.14444131


--------------------------------------------------------------------------------------------------------




--------------------------------------- Iteration      1(   5)  ---------------------------------------


     EDDAV:  cpu time   28.8440: real time   28.9960
 BZINTS: Fermi energy: -2.850510; 58.000000 electrons
         Band energy:-482.857887;  BLOECHL correction: -0.005407
       DOS:  cpu time    0.0040: real time    0.0058
    CHARGE:  cpu time    1.7080: real time    1.9738
    MIXING:  cpu time    0.0360: real time    0.0395
    --------------------------------------------
      LOOP:  cpu time   30.5920: real time   31.0152

 eigenvalue-minimisations  :  1264
 total energy-change (2. order) :-0.1090102E+00  (-0.1102201E+00)
 number of electron      57.9999996 magnetization       6.7926970
 augmentation part       -3.1168202 magnetization       4.8159731

 Broyden mixing:
  rms(total) = 0.27040E+01    rms(broyden)= 0.27038E+01
  rms(prec ) = 0.30274E+01
  weight for this iteration     100.00

 Free energy of the ion-electron system (eV)
  ---------------------------------------------------
  alpha Z        PSCENC =        21.83953255
  Ewald energy   TEWEN  =      6490.34799790
  -Hartree energ DENC   =     -8910.76198573
  -exchange      EXHF   =         0.00000000
  -V(xc)+E(xc)   XCENC  =        24.26190745
  PAW double counting   =      1329.63383292    -1242.23084763
  entropy T*S    EENTRO =         0.00000000
  eigenvalues    EBANDS =      -482.85788699
  atomic energy  EATOM  =      2713.51399804
  Solvation  Ediel_sol  =         0.00000000
  ---------------------------------------------------
  free energy    TOTEN  =       -56.25345148 eV

  energy without entropy =      -56.25345148  energy(sigma->0) =      -56.25345148


--------------------------------------------------------------------------------------------------------




--------------------------------------- Iteration      1(   6)  ---------------------------------------


    POTLOK:  cpu time   51.9760: real time   52.3152
    SETDIJ:  cpu time    0.0400: real time    0.0432
     EDDAV:  cpu time   28.5440: real time   28.7294
 BZINTS: Fermi energy: -4.959218; 58.000000 electrons
         Band energy:-639.620926;  BLOECHL correction: -0.021804
       DOS:  cpu time    0.0080: real time    0.0069
    CHARGE:  cpu time    1.9200: real time    1.9442
    MIXING:  cpu time    0.0400: real time    0.0438
    --------------------------------------------
      LOOP:  cpu time   82.5280: real time   83.0827

 eigenvalue-minimisations  :  1248
 total energy-change (2. order) :-0.7563107E+02  (-0.3678117E+02)
 number of electron      58.0000002 magnetization       6.6154444
 augmentation part        9.3462605 magnetization       5.7195240

 Broyden mixing:
  rms(total) = 0.66948E+01    rms(broyden)= 0.66946E+01
  rms(prec ) = 0.73607E+01
  weight for this iteration     100.00

 eigenvalues of (default mixing * dielectric matrix)
  average eigenvalue GAMMA=   0.2407
  0.2407

 Free energy of the ion-electron system (eV)
  ---------------------------------------------------
  alpha Z        PSCENC =        21.83953255
  Ewald energy   TEWEN  =      6490.34799790
  -Hartree energ DENC   =     -8838.39780679
  -exchange      EXHF   =         0.00000000
  -V(xc)+E(xc)   XCENC  =        24.22644034
  PAW double counting   =      1205.85105120    -1109.64481213
  entropy T*S    EENTRO =         0.00000000
  eigenvalues    EBANDS =      -639.62092643
  atomic energy  EATOM  =      2713.51399804
  Solvation  Ediel_sol  =         0.00000000
  ---------------------------------------------------
  free energy    TOTEN  =      -131.88452531 eV

  energy without entropy =     -131.88452531  energy(sigma->0) =     -131.88452531


--------------------------------------------------------------------------------------------------------




--------------------------------------- Iteration      1(   7)  ---------------------------------------


    POTLOK:  cpu time   52.1560: real time   52.4796
    SETDIJ:  cpu time    0.0280: real time    0.0318
     EDDAV:  cpu time   26.6640: real time   27.6231
 BZINTS: Fermi energy: -4.533273; 58.000000 electrons
         Band energy:-491.649306;  BLOECHL correction: -0.002030
       DOS:  cpu time    0.0040: real time    0.0055
    CHARGE:  cpu time    1.9720: real time    1.9852
    MIXING:  cpu time    0.0440: real time    0.0412
    --------------------------------------------
      LOOP:  cpu time   80.8680: real time   82.1663

 eigenvalue-minimisations  :  1200
 total energy-change (2. order) : 0.8726158E+02  (-0.8773421E+01)
 number of electron      58.0000001 magnetization       6.5201117
 augmentation part        2.5406219 magnetization       5.3809122

 Broyden mixing:
  rms(total) = 0.14747E+01    rms(broyden)= 0.14745E+01
  rms(prec ) = 0.16189E+01
  weight for this iteration     100.00

 eigenvalues of (default mixing * dielectric matrix)
  average eigenvalue GAMMA=   0.3560
  0.3560  0.3560

 Free energy of the ion-electron system (eV)
  ---------------------------------------------------
  alpha Z        PSCENC =        21.83953255
  Ewald energy   TEWEN  =      6490.34799790
  -Hartree energ DENC   =     -8889.36579330
  -exchange      EXHF   =         0.00000000
  -V(xc)+E(xc)   XCENC  =        23.33360212
  PAW double counting   =      1296.71520438    -1209.35817669
  entropy T*S    EENTRO =         0.00000000
  eigenvalues    EBANDS =      -491.64930629
  atomic energy  EATOM  =      2713.51399804
  Solvation  Ediel_sol  =         0.00000000
  ---------------------------------------------------
  free energy    TOTEN  =       -44.62294129 eV

  energy without entropy =      -44.62294129  energy(sigma->0) =      -44.62294129


--------------------------------------------------------------------------------------------------------




--------------------------------------- Iteration      1(   8)  ---------------------------------------


    POTLOK:  cpu time   51.9920: real time   52.1264
    SETDIJ:  cpu time    0.0360: real time    0.0430
     EDDAV:  cpu time   34.9920: real time   35.2759
 BZINTS: Fermi energy: -3.832763; 58.000000 electrons
         Band energy:-485.985422;  BLOECHL correction: -0.009537
       DOS:  cpu time    0.0040: real time    0.0069
    CHARGE:  cpu time    1.9480: real time    1.9747
    MIXING:  cpu time    0.0440: real time    0.0426
    --------------------------------------------
      LOOP:  cpu time   89.0160: real time   89.4695

 eigenvalue-minimisations  :  1568
 total energy-change (2. order) :-0.5375980E+00  (-0.1418859E+01)
 number of electron      57.9999999 magnetization       6.6008646
 augmentation part        0.3013543 magnetization       3.6530817

 Broyden mixing:
  rms(total) = 0.14834E+01    rms(broyden)= 0.14833E+01
  rms(prec ) = 0.14930E+01
  weight for this iteration     100.00

 eigenvalues of (default mixing * dielectric matrix)
  average eigenvalue GAMMA=   0.3526
  0.3454  0.3561  0.3561

 Free energy of the ion-electron system (eV)
  ---------------------------------------------------
  alpha Z        PSCENC =        21.83953255
  Ewald energy   TEWEN  =      6490.34799790
  -Hartree energ DENC   =     -8895.61749447
  -exchange      EXHF   =         0.00000000
  -V(xc)+E(xc)   XCENC  =        23.89722248
  PAW double counting   =      1307.18420564    -1220.34057948
  entropy T*S    EENTRO =         0.00000000
  eigenvalues    EBANDS =      -485.98542196
  atomic energy  EATOM  =      2713.51399804
  Solvation  Ediel_sol  =         0.00000000
  ---------------------------------------------------
  free energy    TOTEN  =       -45.16053930 eV

  energy without entropy =      -45.16053930  energy(sigma->0) =      -45.16053930


--------------------------------------------------------------------------------------------------------




--------------------------------------- Iteration      1(   9)  ---------------------------------------


    POTLOK:  cpu time   51.5640: real time   51.6461
    SETDIJ:  cpu time    0.0440: real time    0.0435
     EDDAV:  cpu time   34.1960: real time   34.4678
 BZINTS: Fermi energy: -4.044872; 58.000000 electrons
         Band energy:-489.207769;  BLOECHL correction: -0.006448
       DOS:  cpu time    0.0040: real time    0.0072
    CHARGE:  cpu time    1.9760: real time    1.9897
    MIXING:  cpu time    0.0440: real time    0.0438
    --------------------------------------------
      LOOP:  cpu time   87.8280: real time   88.1982

 eigenvalue-minimisations  :  1536
 total energy-change (2. order) :-0.4421517E+00  (-0.7472244E-01)
 number of electron      57.9999999 magnetization       6.6875532
 augmentation part        0.7576168 magnetization       3.7545130

 Broyden mixing:
  rms(total) = 0.12995E+01    rms(broyden)= 0.12995E+01
  rms(prec ) = 0.13050E+01
  weight for this iteration     100.00

 eigenvalues of (default mixing * dielectric matrix)
  average eigenvalue GAMMA=   0.3723
  0.4303  0.4303  0.3143  0.3143

 Free energy of the ion-electron system (eV)
  ---------------------------------------------------
  alpha Z        PSCENC =        21.83953255
  Ewald energy   TEWEN  =      6490.34799790
  -Hartree energ DENC   =     -8893.24211807
  -exchange      EXHF   =         0.00000000
  -V(xc)+E(xc)   XCENC  =        24.42642809
  PAW double counting   =      1301.79334326    -1215.07410346
  entropy T*S    EENTRO =         0.00000000
  eigenvalues    EBANDS =      -489.20776931
  atomic energy  EATOM  =      2713.51399804
  Solvation  Ediel_sol  =         0.00000000
  ---------------------------------------------------
  free energy    TOTEN  =       -45.60269100 eV

  energy without entropy =      -45.60269100  energy(sigma->0) =      -45.60269100


--------------------------------------------------------------------------------------------------------




--------------------------------------- Iteration      1(  10)  ---------------------------------------


    POTLOK:  cpu time   52.0240: real time   52.3402
    SETDIJ:  cpu time    0.0480: real time    0.0487
     EDDAV:  cpu time   33.4800: real time   34.8357
 BZINTS: Fermi energy: -4.069404; 58.000000 electrons
         Band energy:-489.545555;  BLOECHL correction: -0.003621
       DOS:  cpu time    0.0080: real time    0.0069
    CHARGE:  cpu time    2.0000: real time    2.0053
    MIXING:  cpu time    0.0440: real time    0.0441
    --------------------------------------------
      LOOP:  cpu time   87.6080: real time   89.2809

 eigenvalue-minimisations  :  1552
 total energy-change (2. order) :-0.3800074E+00  (-0.5755249E-01)
 number of electron      57.9999999 magnetization       6.8859163
 augmentation part        0.8094774 magnetization       3.9907395

 Broyden mixing:
  rms(total) = 0.12087E+01    rms(broyden)= 0.12087E+01
  rms(prec ) = 0.12299E+01
  weight for this iteration     100.00

 eigenvalues of (default mixing * dielectric matrix)
  average eigenvalue GAMMA=   0.4224
  0.6303  0.6303  0.3544  0.3544  0.1429

 Free energy of the ion-electron system (eV)
  ---------------------------------------------------
  alpha Z        PSCENC =        21.83953255
  Ewald energy   TEWEN  =      6490.34799790
  -Hartree energ DENC   =     -8893.54543651
  -exchange      EXHF   =         0.00000000
  -V(xc)+E(xc)   XCENC  =        24.90991183
  PAW double counting   =      1301.50573135    -1215.00887844
  entropy T*S    EENTRO =         0.00000000
  eigenvalues    EBANDS =      -489.54555515
  atomic energy  EATOM  =      2713.51399804
  Solvation  Ediel_sol  =         0.00000000
  ---------------------------------------------------
  free energy    TOTEN  =       -45.98269843 eV

  energy without entropy =      -45.98269843  energy(sigma->0) =      -45.98269843


--------------------------------------------------------------------------------------------------------




--------------------------------------- Iteration      1(  11)  ---------------------------------------


    POTLOK:  cpu time   49.9440: real time   52.5291
    SETDIJ:  cpu time    0.0440: real time    0.0445
     EDDAV:  cpu time   31.8560: real time   32.2488
 BZINTS: Fermi energy: -4.134286; 58.000000 electrons
         Band energy:-489.792336;  BLOECHL correction: -0.008290
       DOS:  cpu time    0.0040: real time    0.0075
    CHARGE:  cpu time    1.9840: real time    2.0354
    MIXING:  cpu time    0.0440: real time    0.0436
    --------------------------------------------
      LOOP:  cpu time   83.8720: real time   86.9089

 eigenvalue-minimisations  :  1424
 total energy-change (2. order) :-0.4461250E+00  (-0.1054170E+00)
 number of electron      57.9999999 magnetization       7.2737937
 augmentation part        0.9188859 magnetization       4.5318427

 Broyden mixing:
  rms(total) = 0.84368E+00    rms(broyden)= 0.84365E+00
  rms(prec ) = 0.85383E+00
  weight for this iteration     100.00

 eigenvalues of (default mixing * dielectric matrix)
  average eigenvalue GAMMA=   0.6005
  1.0485  1.0485  0.4702  0.4702  0.4398  0.1262

 Free energy of the ion-electron system (eV)
  ---------------------------------------------------
  alpha Z        PSCENC =        21.83953255
  Ewald energy   TEWEN  =      6490.34799790
  -Hartree energ DENC   =     -8894.45545528
  -exchange      EXHF   =         0.00000000
  -V(xc)+E(xc)   XCENC  =        26.14447835
  PAW double counting   =      1301.08610939    -1215.11314872
  entropy T*S    EENTRO =         0.00000000
  eigenvalues    EBANDS =      -489.79233569
  atomic energy  EATOM  =      2713.51399804
  Solvation  Ediel_sol  =         0.00000000
  ---------------------------------------------------
  free energy    TOTEN  =       -46.42882347 eV

  energy without entropy =      -46.42882347  energy(sigma->0) =      -46.42882347


--------------------------------------------------------------------------------------------------------




--------------------------------------- Iteration      1(  12)  ---------------------------------------


    POTLOK:  cpu time   52.2120: real time   52.3412
    SETDIJ:  cpu time    0.0440: real time    0.0444
     EDDAV:  cpu time   32.7160: real time   32.8382
 BZINTS: Fermi energy: -4.184415; 58.000000 electrons
         Band energy:-491.413198;  BLOECHL correction: -0.009534
       DOS:  cpu time    0.0080: real time    0.0078
    CHARGE:  cpu time    1.9280: real time    2.0220
    MIXING:  cpu time    0.0520: real time    0.0681
    --------------------------------------------
      LOOP:  cpu time   86.9600: real time   87.3217

 eigenvalue-minimisations  :  1456
 total energy-change (2. order) :-0.3989828E+00  (-0.4019823E-01)
 number of electron      57.9999999 magnetization       7.5311369
 augmentation part        0.8825058 magnetization       5.1169023

 Broyden mixing:
  rms(total) = 0.30488E+00    rms(broyden)= 0.30486E+00
  rms(prec ) = 0.31914E+00
  weight for this iteration     100.00

 eigenvalues of (default mixing * dielectric matrix)
  average eigenvalue GAMMA=   0.6973
  1.1639  1.1639  0.7676  0.7676  0.4465  0.4465  0.1253

 Free energy of the ion-electron system (eV)
  ---------------------------------------------------
  alpha Z        PSCENC =        21.83953255
  Ewald energy   TEWEN  =      6490.34799790
  -Hartree energ DENC   =     -8894.90365607
  -exchange      EXHF   =         0.00000000
  -V(xc)+E(xc)   XCENC  =        28.76415186
  PAW double counting   =      1297.39959155    -1212.37622372
  entropy T*S    EENTRO =         0.00000000
  eigenvalues    EBANDS =      -491.41319838
  atomic energy  EATOM  =      2713.51399804
  Solvation  Ediel_sol  =         0.00000000
  ---------------------------------------------------
  free energy    TOTEN  =       -46.82780627 eV

  energy without entropy =      -46.82780627  energy(sigma->0) =      -46.82780627


--------------------------------------------------------------------------------------------------------




--------------------------------------- Iteration      1(  13)  ---------------------------------------


    POTLOK:  cpu time   52.1560: real time   52.2598
    SETDIJ:  cpu time    0.0440: real time    0.0451
     EDDAV:  cpu time   32.7040: real time   32.8378
 BZINTS: Fermi energy: -4.204523; 58.000000 electrons
         Band energy:-494.003576;  BLOECHL correction: -0.009997
       DOS:  cpu time    0.0080: real time    0.0069
    CHARGE:  cpu time    1.9600: real time    1.9626
    MIXING:  cpu time    0.0480: real time    0.0483
    --------------------------------------------
      LOOP:  cpu time   86.9200: real time   87.1604

 eigenvalue-minimisations  :  1456
 total energy-change (2. order) : 0.2730117E-02  (-0.1980659E-01)
 number of electron      57.9999999 magnetization       7.6234812
 augmentation part        0.8499710 magnetization       5.3755062

 Broyden mixing:
  rms(total) = 0.17986E+00    rms(broyden)= 0.17984E+00
  rms(prec ) = 0.19211E+00
  weight for this iteration     100.00

 eigenvalues of (default mixing * dielectric matrix)
  average eigenvalue GAMMA=   0.8150
  1.8911  1.1261  1.1261  0.6680  0.6680  0.4575  0.4575  0.1252

 Free energy of the ion-electron system (eV)
  ---------------------------------------------------
  alpha Z        PSCENC =        21.83953255
  Ewald energy   TEWEN  =      6490.34799790
  -Hartree energ DENC   =     -8893.43291856
  -exchange      EXHF   =         0.00000000
  -V(xc)+E(xc)   XCENC  =        30.42733049
  PAW double counting   =      1292.55585056    -1208.07329085
  entropy T*S    EENTRO =         0.00000000
  eigenvalues    EBANDS =      -494.00357628
  atomic energy  EATOM  =      2713.51399804
  Solvation  Ediel_sol  =         0.00000000
  ---------------------------------------------------
  free energy    TOTEN  =       -46.82507616 eV

  energy without entropy =      -46.82507616  energy(sigma->0) =      -46.82507616


--------------------------------------------------------------------------------------------------------




--------------------------------------- Iteration      1(  14)  ---------------------------------------


    POTLOK:  cpu time   51.9640: real time   52.0169
    SETDIJ:  cpu time    0.0400: real time    0.0427
     EDDAV:  cpu time   31.6640: real time   32.4897
 BZINTS: Fermi energy: -4.208771; 58.000000 electrons
         Band energy:-495.054649;  BLOECHL correction: -0.009849
       DOS:  cpu time    0.0080: real time    0.0060
    CHARGE:  cpu time    1.9440: real time    2.0233
    MIXING:  cpu time    0.0520: real time    0.0499
    --------------------------------------------
      LOOP:  cpu time   85.6720: real time   86.6287

 eigenvalue-minimisations  :  1440
 total energy-change (2. order) :-0.2768503E-02  (-0.8069632E-02)
 number of electron      57.9999999 magnetization       7.6376493
 augmentation part        0.7613027 magnetization       5.4079349

 Broyden mixing:
  rms(total) = 0.10076E+00    rms(broyden)= 0.10076E+00
  rms(prec ) = 0.10566E+00
  weight for this iteration     100.00

 eigenvalues of (default mixing * dielectric matrix)
  average eigenvalue GAMMA=   0.8849
  2.1988  1.1779  1.1779  0.9669  0.4562  0.4562  0.7025  0.7025  0.1252

 Free energy of the ion-electron system (eV)
  ---------------------------------------------------
  alpha Z        PSCENC =        21.83953255
  Ewald energy   TEWEN  =      6490.34799790
  -Hartree energ DENC   =     -8892.32688979
  -exchange      EXHF   =         0.00000000
  -V(xc)+E(xc)   XCENC  =        30.36787731
  PAW double counting   =      1291.68541714    -1207.20112850
  entropy T*S    EENTRO =         0.00000000
  eigenvalues    EBANDS =      -495.05464931
  atomic energy  EATOM  =      2713.51399804
  Solvation  Ediel_sol  =         0.00000000
  ---------------------------------------------------
  free energy    TOTEN  =       -46.82784466 eV

  energy without entropy =      -46.82784466  energy(sigma->0) =      -46.82784466


--------------------------------------------------------------------------------------------------------




--------------------------------------- Iteration      1(  15)  ---------------------------------------


    POTLOK:  cpu time   51.6840: real time   51.7856
    SETDIJ:  cpu time    0.0760: real time    0.0763
     EDDAV:  cpu time   30.5800: real time   30.7809
 BZINTS: Fermi energy: -4.189597; 58.000000 electrons
         Band energy:-494.408140;  BLOECHL correction: -0.009649
       DOS:  cpu time    0.0040: real time    0.0072
    CHARGE:  cpu time    2.0000: real time    2.0055
    MIXING:  cpu time    0.0880: real time    0.0868
    --------------------------------------------
      LOOP:  cpu time   84.4320: real time   84.7424

 eigenvalue-minimisations  :  1360
 total energy-change (2. order) :-0.6551763E-02  (-0.4882756E-02)
 number of electron      57.9999999 magnetization       7.6851020
 augmentation part        0.6681394 magnetization       5.4180649

 Broyden mixing:
  rms(total) = 0.56042E-01    rms(broyden)= 0.56035E-01
  rms(prec ) = 0.56543E-01
  weight for this iteration     100.00

 eigenvalues of (default mixing * dielectric matrix)
  average eigenvalue GAMMA=   0.9134
  2.3940  1.1762  1.1762  1.2477  0.7515  0.7515  0.4561  0.4561  0.5996  0.1252

 Free energy of the ion-electron system (eV)
  ---------------------------------------------------
  alpha Z        PSCENC =        21.83953255
  Ewald energy   TEWEN  =      6490.34799790
  -Hartree energ DENC   =     -8892.55714924
  -exchange      EXHF   =         0.00000000
  -V(xc)+E(xc)   XCENC  =        29.78338775
  PAW double counting   =      1294.26575433    -1209.61977813
  entropy T*S    EENTRO =         0.00000000
  eigenvalues    EBANDS =      -494.40813962
  atomic energy  EATOM  =      2713.51399804
  Solvation  Ediel_sol  =         0.00000000
  ---------------------------------------------------
  free energy    TOTEN  =       -46.83439642 eV

  energy without entropy =      -46.83439642  energy(sigma->0) =      -46.83439642


--------------------------------------------------------------------------------------------------------




--------------------------------------- Iteration      1(  16)  ---------------------------------------


    POTLOK:  cpu time   52.1040: real time   52.3237
    SETDIJ:  cpu time    0.0440: real time    0.0419
     EDDAV:  cpu time   34.8800: real time   35.1647
 BZINTS: Fermi energy: -4.179022; 58.000000 electrons
         Band energy:-494.064291;  BLOECHL correction: -0.009618
       DOS:  cpu time    0.0040: real time    0.0075
    CHARGE:  cpu time    1.9440: real time    1.9681
    MIXING:  cpu time    0.0440: real time    0.0471
    --------------------------------------------
      LOOP:  cpu time   89.0200: real time   89.5530

 eigenvalue-minimisations  :  1568
 total energy-change (2. order) :-0.4146137E-02  (-0.1208557E-02)
 number of electron      57.9999999 magnetization       7.7532688
 augmentation part        0.6384939 magnetization       5.4776118

 Broyden mixing:
  rms(total) = 0.56884E-01    rms(broyden)= 0.56883E-01
  rms(prec ) = 0.58639E-01
  weight for this iteration     100.00

 eigenvalues of (default mixing * dielectric matrix)
  average eigenvalue GAMMA=   0.9835
  2.2063  2.2063  1.1735  1.1735  0.8410  0.8410  0.4562  0.4562  0.7204  0.6184
  0.1252

 Free energy of the ion-electron system (eV)
  ---------------------------------------------------
  alpha Z        PSCENC =        21.83953255
  Ewald energy   TEWEN  =      6490.34799790
  -Hartree energ DENC   =     -8892.91151443
  -exchange      EXHF   =         0.00000000
  -V(xc)+E(xc)   XCENC  =        29.80316457
  PAW double counting   =      1295.60102253    -1210.96845284
  entropy T*S    EENTRO =         0.00000000
  eigenvalues    EBANDS =      -494.06429088
  atomic energy  EATOM  =      2713.51399804
  Solvation  Ediel_sol  =         0.00000000
  ---------------------------------------------------
  free energy    TOTEN  =       -46.83854256 eV

  energy without entropy =      -46.83854256  energy(sigma->0) =      -46.83854256


--------------------------------------------------------------------------------------------------------




--------------------------------------- Iteration      1(  17)  ---------------------------------------


    POTLOK:  cpu time   51.4800: real time   51.9393
    SETDIJ:  cpu time    0.0440: real time    0.0420
     EDDAV:  cpu time   27.8520: real time   28.7783
 BZINTS: Fermi energy: -4.174312; 58.000000 electrons
         Band energy:-493.824006;  BLOECHL correction: -0.009632
       DOS:  cpu time    0.0040: real time    0.0073
    CHARGE:  cpu time    1.8280: real time    1.9826
    MIXING:  cpu time    0.0440: real time    0.0510
    --------------------------------------------
      LOOP:  cpu time   81.2520: real time   82.8006

 eigenvalue-minimisations  :  1264
 total energy-change (2. order) :-0.3305499E-02  (-0.2105731E-03)
 number of electron      57.9999999 magnetization       7.8052043
 augmentation part        0.6294665 magnetization       5.5226682

 Broyden mixing:
  rms(total) = 0.67128E-01    rms(broyden)= 0.67128E-01
  rms(prec ) = 0.69233E-01
  weight for this iteration     100.00

 eigenvalues of (default mixing * dielectric matrix)
  average eigenvalue GAMMA=   1.0280
  2.5297  2.5297  1.1759  1.1759  0.9403  0.9403  0.1252  0.4563  0.4563  0.7019
  0.7019  0.6026

 Free energy of the ion-electron system (eV)
  ---------------------------------------------------
  alpha Z        PSCENC =        21.83953255
  Ewald energy   TEWEN  =      6490.34799790
  -Hartree energ DENC   =     -8893.13333452
  -exchange      EXHF   =         0.00000000
  -V(xc)+E(xc)   XCENC  =        29.76553669
  PAW double counting   =      1296.76319907    -1212.11477160
  entropy T*S    EENTRO =         0.00000000
  eigenvalues    EBANDS =      -493.82400618
  atomic energy  EATOM  =      2713.51399804
  Solvation  Ediel_sol  =         0.00000000
  ---------------------------------------------------
  free energy    TOTEN  =       -46.84184806 eV

  energy without entropy =      -46.84184806  energy(sigma->0) =      -46.84184806


--------------------------------------------------------------------------------------------------------




--------------------------------------- Iteration      1(  18)  ---------------------------------------


    POTLOK:  cpu time   50.8480: real time   51.7771
    SETDIJ:  cpu time    0.0400: real time    0.0411
     EDDAV:  cpu time   26.9400: real time   27.5006
 BZINTS: Fermi energy: -4.184017; 58.000000 electrons
         Band energy:-494.196958;  BLOECHL correction: -0.009659
       DOS:  cpu time    0.0040: real time    0.0076
    CHARGE:  cpu time    1.9600: real time    1.9903
    MIXING:  cpu time    0.0520: real time    0.0522
    --------------------------------------------
      LOOP:  cpu time   79.8440: real time   81.3688

 eigenvalue-minimisations  :  1200
 total energy-change (2. order) :-0.3089913E-03  (-0.1201209E-03)
 number of electron      57.9999999 magnetization       7.8638761
 augmentation part        0.6446498 magnetization       5.5865834

 Broyden mixing:
  rms(total) = 0.53290E-01    rms(broyden)= 0.53289E-01
  rms(prec ) = 0.54480E-01
  weight for this iteration     100.00

 eigenvalues of (default mixing * dielectric matrix)
  average eigenvalue GAMMA=   1.0945
  3.2519  2.4402  1.1781  1.1781  1.1797  1.1797  0.1252  0.4562  0.4562  0.7541
  0.7541  0.6713  0.6032

 Free energy of the ion-electron system (eV)
  ---------------------------------------------------
  alpha Z        PSCENC =        21.83953255
  Ewald energy   TEWEN  =      6490.34799790
  -Hartree energ DENC   =     -8892.80950918
  -exchange      EXHF   =         0.00000000
  -V(xc)+E(xc)   XCENC  =        29.81657887
  PAW double counting   =      1296.36553170    -1211.71932940
  entropy T*S    EENTRO =         0.00000000
  eigenvalues    EBANDS =      -494.19695754
  atomic energy  EATOM  =      2713.51399804
  Solvation  Ediel_sol  =         0.00000000
  ---------------------------------------------------
  free energy    TOTEN  =       -46.84215705 eV

  energy without entropy =      -46.84215705  energy(sigma->0) =      -46.84215705


--------------------------------------------------------------------------------------------------------




--------------------------------------- Iteration      1(  19)  ---------------------------------------


    POTLOK:  cpu time   51.5560: real time   51.7381
    SETDIJ:  cpu time    0.0400: real time    0.0429
     EDDAV:  cpu time   28.6120: real time   28.9019
 BZINTS: Fermi energy: -4.196995; 58.000000 electrons
         Band energy:-494.751007;  BLOECHL correction: -0.009690
       DOS:  cpu time    0.0040: real time    0.0138
    CHARGE:  cpu time    1.9680: real time    1.9688
    MIXING:  cpu time    0.0560: real time    0.0549
    --------------------------------------------
      LOOP:  cpu time   82.2360: real time   82.7205

 eigenvalue-minimisations  :  1264
 total energy-change (2. order) :-0.9891228E-03  (-0.1522965E-03)
 number of electron      57.9999999 magnetization       7.9442220
 augmentation part        0.6615580 magnetization       5.6756806

 Broyden mixing:
  rms(total) = 0.31998E-01    rms(broyden)= 0.31998E-01
  rms(prec ) = 0.32477E-01
  weight for this iteration     100.00

 eigenvalues of (default mixing * dielectric matrix)
  average eigenvalue GAMMA=   1.2366
  4.9334  2.4248  1.1777  1.1777  1.6054  1.3076  0.1252  0.4562  0.4562  0.8130
  0.8130  0.7129  0.7129  0.5967

 Free energy of the ion-electron system (eV)
  ---------------------------------------------------
  alpha Z        PSCENC =        21.83953255
  Ewald energy   TEWEN  =      6490.34799790
  -Hartree energ DENC   =     -8892.32353947
  -exchange      EXHF   =         0.00000000
  -V(xc)+E(xc)   XCENC  =        29.90218242
  PAW double counting   =      1295.62852333    -1211.00083353
  entropy T*S    EENTRO =         0.00000000
  eigenvalues    EBANDS =      -494.75100741
  atomic energy  EATOM  =      2713.51399804
  Solvation  Ediel_sol  =         0.00000000
  ---------------------------------------------------
  free energy    TOTEN  =       -46.84314617 eV

  energy without entropy =      -46.84314617  energy(sigma->0) =      -46.84314617


--------------------------------------------------------------------------------------------------------




--------------------------------------- Iteration      1(  20)  ---------------------------------------


    POTLOK:  cpu time   51.4600: real time   51.6345
    SETDIJ:  cpu time    0.0440: real time    0.0420
     EDDAV:  cpu time   28.8520: real time   29.4369
 BZINTS: Fermi energy: -4.210465; 58.000000 electrons
         Band energy:-495.380277;  BLOECHL correction: -0.009712
       DOS:  cpu time    0.0040: real time    0.0072
    CHARGE:  cpu time    1.9720: real time    1.9735
    MIXING:  cpu time    0.0560: real time    0.0574
    --------------------------------------------
      LOOP:  cpu time   82.3880: real time   83.1515

 eigenvalue-minimisations  :  1296
 total energy-change (2. order) :-0.1070361E-02  (-0.1149928E-03)
 number of electron      57.9999999 magnetization       7.9837724
 augmentation part        0.6719282 magnetization       5.7239796

 Broyden mixing:
  rms(total) = 0.93264E-02    rms(broyden)= 0.93255E-02
  rms(prec ) = 0.95930E-02
  weight for this iteration     100.00

 eigenvalues of (default mixing * dielectric matrix)
  average eigenvalue GAMMA=   1.3860
  7.0822  2.6066  1.1774  1.1774  1.5755  1.5755  0.1252  0.9253  0.9253  0.4562
  0.4562  0.7267  0.7267  0.6531  0.6012

 Free energy of the ion-electron system (eV)
  ---------------------------------------------------
  alpha Z        PSCENC =        21.83953255
  Ewald energy   TEWEN  =      6490.34799790
  -Hartree energ DENC   =     -8891.76741216
  -exchange      EXHF   =         0.00000000
  -V(xc)+E(xc)   XCENC  =        30.00428123
  PAW double counting   =      1295.05621236    -1210.45854917
  entropy T*S    EENTRO =         0.00000000
  eigenvalues    EBANDS =      -495.38027729
  atomic energy  EATOM  =      2713.51399804
  Solvation  Ediel_sol  =         0.00000000
  ---------------------------------------------------
  free energy    TOTEN  =       -46.84421653 eV

  energy without entropy =      -46.84421653  energy(sigma->0) =      -46.84421653


--------------------------------------------------------------------------------------------------------




--------------------------------------- Iteration      1(  21)  ---------------------------------------


    POTLOK:  cpu time   51.3120: real time   51.7231
    SETDIJ:  cpu time    0.0400: real time    0.0431
     EDDAV:  cpu time   24.6320: real time   25.2250
 BZINTS: Fermi energy: -4.215657; 58.000000 electrons
         Band energy:-495.647791;  BLOECHL correction: -0.009710
       DOS:  cpu time    0.0040: real time    0.0072
    CHARGE:  cpu time    1.9760: real time    1.9890
    MIXING:  cpu time    0.0560: real time    0.0550
    --------------------------------------------
      LOOP:  cpu time   78.0200: real time   79.0425

 eigenvalue-minimisations  :  1072
 total energy-change (2. order) :-0.2366469E-03  (-0.3253203E-04)
 number of electron      57.9999999 magnetization       7.9947331
 augmentation part        0.6711412 magnetization       5.7361776

 Broyden mixing:
  rms(total) = 0.45054E-02    rms(broyden)= 0.45052E-02
  rms(prec ) = 0.49989E-02
  weight for this iteration     100.00

 eigenvalues of (default mixing * dielectric matrix)
  average eigenvalue GAMMA=   1.4531
  8.3776  2.5521  1.1774  1.1774  1.8308  1.4443  0.1252  1.0434  1.0434  0.4562
  0.4562  0.7668  0.7668  0.7886  0.6507  0.5934

 Free energy of the ion-electron system (eV)
  ---------------------------------------------------
  alpha Z        PSCENC =        21.83953255
  Ewald energy   TEWEN  =      6490.34799790
  -Hartree energ DENC   =     -8891.51001400
  -exchange      EXHF   =         0.00000000
  -V(xc)+E(xc)   XCENC  =        30.02511400
  PAW double counting   =      1295.10887461    -1210.52216531
  entropy T*S    EENTRO =         0.00000000
  eigenvalues    EBANDS =      -495.64779096
  atomic energy  EATOM  =      2713.51399804
  Solvation  Ediel_sol  =         0.00000000
  ---------------------------------------------------
  free energy    TOTEN  =       -46.84445318 eV

  energy without entropy =      -46.84445318  energy(sigma->0) =      -46.84445318


--------------------------------------------------------------------------------------------------------




--------------------------------------- Iteration      1(  22)  ---------------------------------------


    POTLOK:  cpu time   50.0240: real time   51.7481
    SETDIJ:  cpu time    0.0400: real time    0.0395
     EDDAV:  cpu time   22.7800: real time   23.2511
 BZINTS: Fermi energy: -4.219009; 58.000000 electrons
         Band energy:-495.825065;  BLOECHL correction: -0.009711
       DOS:  cpu time    0.0040: real time    0.0052
    --------------------------------------------
      LOOP:  cpu time   72.8480: real time   75.0438

 eigenvalue-minimisations  :   944
 total energy-change (2. order) : 0.8617454E-04  (-0.4821764E-05)
 number of electron      57.9999999 magnetization       7.9947331
 augmentation part        0.6711412 magnetization       5.7361776

 Free energy of the ion-electron system (eV)
  ---------------------------------------------------
  alpha Z        PSCENC =        21.83953255
  Ewald energy   TEWEN  =      6490.34799790
  -Hartree energ DENC   =     -8891.33858203
  -exchange      EXHF   =         0.00000000
  -V(xc)+E(xc)   XCENC  =        30.03399377
  PAW double counting   =      1295.07646539    -1210.49270796
  entropy T*S    EENTRO =         0.00000000
  eigenvalues    EBANDS =      -495.82506466
  atomic energy  EATOM  =      2713.51399804
  Solvation  Ediel_sol  =         0.00000000
  ---------------------------------------------------
  free energy    TOTEN  =       -46.84436701 eV

  energy without entropy =      -46.84436701  energy(sigma->0) =      -46.84436701


--------------------------------------------------------------------------------------------------------




 average (electrostatic) potential at core
  the test charge radii are     1.0210  1.1631  0.9892  0.9698
  (the norm of the test charge is              1.0000)
[...]
     34      -0.8562      0.00000
     35      -0.6896      0.00000
     36      -0.2755      0.00000
     37       0.8447      0.00000
     38       1.2857      0.00000
     39       1.3394      0.00000
     40       2.0126      0.00000
     41       2.1654      0.00000
     42       2.4459      0.00000
     43       2.6028      0.00000
     44       2.6823      0.00000
     45       3.1762      0.00000
     46       3.4638      0.00000
     47       3.7349      0.00000
     48       3.8953      0.00000

 k-point     5 :      -0.4000    0.2000    0.0000
  band No.  band energies     occupation 
      1     -16.6729      1.00000
      2     -16.1487      1.00000
      3     -15.9682      1.00000
      4     -15.7768      1.00000
      5     -15.5995      1.00000
      6     -15.4498      1.00000
      7     -11.2141      1.00000
      8      -9.6308      1.00000
      9      -8.0299      1.00000
     10      -7.6195      1.00000
     11      -7.5220      1.00000
     12      -7.0725      1.00000
     13      -6.9659      1.00000
     14      -6.4737      1.00000
     15      -6.1197      1.00000
     16      -5.9075      1.00000
     17      -5.8641      1.00000
     18      -5.6400      1.00000
     19      -5.6360      1.00000
     20      -5.4166      1.00000
     21      -5.2434      1.00000
     22      -4.7727      1.00000
     23      -4.6183      1.00000
     24      -4.4389      1.00000
     25      -3.8386      1.00000
     26      -2.8257      1.01450
     27      -2.3308      0.00000
     28      -2.3127      0.00000
     29      -1.8332      0.00000
     30      -1.6654      0.00000
     31      -1.6235      0.00000
     32      -1.1437      0.00000
     33      -1.0521      0.00000
     34      -0.8378      0.00000
     35      -0.6764      0.00000
     36      -0.5493      0.00000
     37       0.8198      0.00000
     38       0.9897      0.00000
     39       1.1768      0.00000
     40       1.9836      0.00000
     41       2.1075      0.00000
     42       2.2012      0.00000
     43       2.9134      0.00000
     44       3.0485      0.00000
     45       3.1601      0.00000
     46       3.2250      0.00000
     47       3.4982      0.00000
     48       4.0036      0.00000


--------------------------------------------------------------------------------------------------------


 soft charge-density along one line, spin component           1
         0         1         2         3         4         5         6         7         8         9
 total charge-density along one line

 soft charge-density along one line, spin component           2
         0         1         2         3         4         5         6         7         8         9
 total charge-density along one line

 pseudopotential strength for first ion, spin component:           1
-11.826   0.052  -0.000  -0.008  -0.000   0.816  -0.012   0.000
  0.052 -11.743   0.000  -0.000  -0.008  -0.012   0.798  -0.000
 -0.000   0.000 -11.872   0.000   0.000   0.000  -0.000   0.827
 -0.008  -0.000   0.000 -11.743  -0.052   0.002   0.000  -0.000
 -0.000  -0.008   0.000  -0.052 -11.826   0.000   0.002  -0.000
  0.816  -0.012   0.000   0.002   0.000   0.308   0.002  -0.000
 -0.012   0.798  -0.000   0.000   0.002   0.002   0.312   0.000
  0.000  -0.000   0.827  -0.000  -0.000  -0.000   0.000   0.306
  0.002   0.000  -0.000   0.798   0.012  -0.000  -0.000   0.000
  0.000   0.002  -0.000   0.012   0.816  -0.000  -0.000   0.000
  0.000  -0.000  -0.003  -0.000   0.000  -0.000   0.000   0.000
 -0.000   0.000   0.000   0.000  -0.000   0.000  -0.000  -0.000
 -0.001  -0.003   0.000  -0.000   0.001   0.000   0.001  -0.000
 -0.000  -0.000  -0.002  -0.000  -0.000   0.000   0.000   0.000
  0.001  -0.000   0.000  -0.003   0.001   0.000   0.000  -0.000
  0.001   0.001  -0.000   0.000  -0.000  -0.000  -0.000   0.000
  0.000   0.000  -0.000   0.000   0.000  -0.000  -0.000  -0.000
 -0.000   0.000  -0.000   0.001  -0.001   0.000  -0.000   0.000
 pseudopotential strength for first ion, spin component:           2
 -9.842  -0.101  -0.000   0.015   0.000   0.344   0.022   0.000
 -0.101  -9.961   0.000   0.000   0.015   0.022   0.370  -0.000
 -0.000   0.000  -9.725   0.000   0.000   0.000  -0.000   0.319
  0.015   0.000   0.000  -9.961   0.101  -0.003  -0.000  -0.000
  0.000   0.015   0.000   0.101  -9.842  -0.000  -0.003  -0.000
  0.344   0.022   0.000  -0.003  -0.000   0.418  -0.005  -0.000
  0.022   0.370  -0.000  -0.000  -0.003  -0.005   0.413   0.000
  0.000  -0.000   0.319  -0.000  -0.000  -0.000   0.000   0.423
 -0.003  -0.000  -0.000   0.370  -0.022   0.001   0.000   0.000
 -0.000  -0.003  -0.000  -0.022   0.344   0.000   0.001   0.000
 -0.000  -0.000   0.002  -0.000   0.000  -0.000   0.000  -0.000
  0.000   0.000  -0.000   0.000  -0.000  -0.000  -0.000  -0.000
 -0.000   0.000   0.000  -0.000   0.000  -0.000  -0.000  -0.000
 -0.000  -0.000   0.000  -0.000   0.000   0.000   0.000  -0.000
  0.000  -0.000   0.000   0.000   0.000   0.000   0.000  -0.000
  0.000  -0.001  -0.000   0.000  -0.000  -0.000   0.000   0.000
  0.000   0.000  -0.001   0.000  -0.000  -0.000  -0.000   0.000
 -0.000   0.000  -0.000  -0.001  -0.000  -0.000  -0.000   0.000
 total augmentation occupancy for first ion, spin component:           1
  1.095  -0.010   0.000   0.001  -0.000  -0.085   0.150  -0.000  -0.022  -0.000  -0.000  -0.000  -0.008  -0.000   0.002   0.000
 -0.010   1.127  -0.000  -0.000   0.001   0.150   0.068   0.000  -0.000  -0.022   0.000  -0.000  -0.016  -0.000  -0.001   0.001
  0.000  -0.000   1.078  -0.000  -0.000  -0.000   0.000  -0.193   0.000   0.000  -0.012  -0.024  -0.000  -0.003  -0.000   0.000
  0.001  -0.000  -0.000   1.127   0.010  -0.022   0.000   0.000   0.068  -0.150   0.000   0.000   0.001   0.000  -0.016  -0.000
 -0.000   0.001  -0.000   0.010   1.095   0.000  -0.022   0.000  -0.150  -0.085   0.000   0.000   0.002   0.000   0.008   0.000
 -0.085   0.150  -0.000  -0.022   0.000   0.213   0.101   0.000  -0.011  -0.000   0.000  -0.000  -0.007  -0.000   0.015   0.000
  0.150   0.068   0.000   0.000  -0.022   0.101   0.325   0.000  -0.000  -0.011   0.000   0.000  -0.019   0.000  -0.004   0.001
 -0.000   0.000  -0.193   0.000   0.000   0.000   0.000   0.195   0.000  -0.000   0.046  -0.009  -0.000  -0.008   0.000   0.000
 -0.022  -0.000   0.000   0.068  -0.150  -0.011  -0.000   0.000   0.325  -0.101   0.000   0.000   0.004   0.000  -0.019  -0.000
 -0.000  -0.022   0.000  -0.150  -0.085  -0.000  -0.011  -0.000  -0.101   0.213  -0.000   0.000   0.015   0.000   0.007  -0.001
 -0.000   0.000  -0.012   0.000   0.000   0.000   0.000   0.046   0.000  -0.000   1.039  -0.186  -0.000  -0.029   0.000   0.000
 -0.000  -0.000  -0.024   0.000   0.000  -0.000   0.000  -0.009   0.000   0.000  -0.186   0.089  -0.000   0.007   0.000  -0.000
 -0.008  -0.016  -0.000   0.001   0.002  -0.007  -0.019  -0.000   0.004   0.015  -0.000  -0.000   0.154   0.000  -0.000  -0.006
 -0.000  -0.000  -0.003   0.000   0.000  -0.000  -0.000  -0.008   0.000   0.000  -0.029   0.007   0.000   0.166  -0.000  -0.000
  0.002  -0.001  -0.000  -0.016   0.008   0.015  -0.004   0.000  -0.019   0.007   0.000   0.000  -0.000  -0.000   0.154   0.000
  0.000   0.001   0.000  -0.000   0.000   0.000   0.001   0.000  -0.000  -0.001   0.000  -0.000  -0.006  -0.000   0.000   0.000
  0.000   0.000   0.001  -0.000  -0.000   0.000   0.000   0.000   0.000  -0.000   0.001  -0.001  -0.000  -0.007   0.000   0.000
  0.000   0.000   0.000   0.001  -0.000  -0.001   0.000  -0.000   0.001  -0.000  -0.000   0.000  -0.000   0.000  -0.006  -0.000
 total augmentation occupancy for first ion, spin component:           2
  0.739  -0.163   0.000   0.024  -0.000  -0.282   0.005  -0.000  -0.003   0.000  -0.000  -0.000   0.002   0.000  -0.002  -0.000
 -0.163   0.531  -0.000  -0.000   0.024   0.008  -0.273   0.000   0.000  -0.003  -0.000  -0.000   0.006   0.000   0.005   0.000
  0.000  -0.000   0.879  -0.000  -0.000  -0.000   0.000  -0.315   0.000   0.000  -0.026  -0.013   0.000   0.003  -0.000  -0.000
  0.024  -0.000  -0.000   0.531   0.163  -0.003  -0.000   0.000  -0.273  -0.008   0.000   0.000  -0.005   0.000   0.006   0.000
 -0.000   0.024  -0.000   0.163   0.739  -0.000  -0.003   0.000  -0.005  -0.282   0.000   0.000  -0.002  -0.000  -0.002   0.001
 -0.282   0.008  -0.000  -0.003  -0.000   0.064  -0.014   0.000   0.004  -0.000   0.000   0.000  -0.000  -0.000  -0.001  -0.000
  0.005  -0.273   0.000  -0.000  -0.003  -0.014   0.055  -0.000  -0.000   0.004   0.000   0.000  -0.001   0.000  -0.001  -0.000
 -0.000   0.000  -0.315   0.000   0.000   0.000  -0.000   0.098  -0.000  -0.000   0.012   0.008   0.000  -0.001  -0.000   0.000
 -0.003   0.000   0.000  -0.273  -0.005   0.004  -0.000  -0.000   0.055   0.014   0.000   0.000   0.001   0.000  -0.001  -0.000
  0.000  -0.003   0.000  -0.008  -0.282  -0.000   0.004  -0.000   0.014   0.064  -0.000  -0.000  -0.001   0.000   0.000  -0.000
 -0.000   0.000  -0.026   0.000   0.000   0.000   0.000   0.012   0.000  -0.000   0.148   0.094   0.000  -0.002   0.000   0.000
 -0.000  -0.000  -0.013   0.000   0.000   0.000   0.000   0.008   0.000  -0.000   0.094  -0.032  -0.000  -0.003  -0.000  -0.000
  0.002   0.006   0.000  -0.005  -0.002  -0.000  -0.001   0.000   0.001  -0.001   0.000   0.000   0.016   0.000  -0.000   0.000
  0.000   0.000   0.003   0.000  -0.000  -0.000  -0.000  -0.001   0.000   0.000  -0.002  -0.003   0.000   0.013  -0.000   0.000
 -0.002   0.005  -0.000   0.006  -0.002  -0.001  -0.001  -0.000  -0.001   0.000   0.000   0.000  -0.000  -0.000   0.016  -0.000
 -0.000   0.000  -0.000   0.000   0.001  -0.000  -0.000   0.000  -0.000  -0.000  -0.000  -0.000   0.000   0.000  -0.000  -0.000
  0.000   0.000   0.001   0.000  -0.000  -0.000  -0.000  -0.000   0.000   0.000   0.000   0.000   0.000   0.000  -0.000  -0.000
  0.001  -0.000   0.000   0.000   0.000  -0.000   0.000  -0.000  -0.000   0.000   0.000  -0.000   0.000   0.000   0.000   0.000


------------------------ aborting loop because EDIFF is reached ----------------------------------------





 total charge     

# of ion       s       p       d       tot
------------------------------------------
    1        0.267   0.312   4.935   5.514
    2        0.267   0.312   4.935   5.513
    3        1.144   1.191   0.132   2.466
    4        0.732   0.898   0.000   1.630
    5        1.364   2.346   0.000   3.711
    6        1.356   2.378   0.000   3.735
    7        1.362   2.356   0.000   3.718
    8        1.375   2.314   0.000   3.689
    9        1.369   2.330   0.000   3.699
   10        1.373   2.316   0.000   3.689
--------------------------------------------------
tot         10.608  16.754  10.002  37.364



 magnetization (x)

# of ion       s       p       d       tot
------------------------------------------
    1        0.027   0.027   3.260   3.315
    2        0.027   0.027   3.262   3.317
    3       -0.007   0.023   0.001   0.016
    4        0.000   0.013   0.000   0.013
    5        0.006  -0.045   0.000  -0.039
    6        0.005  -0.015   0.000  -0.010
    7        0.005  -0.034   0.000  -0.030
    8        0.006  -0.061   0.000  -0.055
    9        0.005  -0.034   0.000  -0.029
   10        0.005  -0.053   0.000  -0.048
--------------------------------------------------
tot          0.078  -0.152   6.523   6.450

    CHARGE:  cpu time    2.0080: real time    2.0182
    FORLOC:  cpu time    0.0600: real time    0.0608
    FORNL :  cpu time    6.7920: real time    6.8322
    STRESS:  cpu time   20.3200: real time   20.3928
    FORCOR:  cpu time   52.3960: real time   52.7063
    FORHAR:  cpu time    0.3720: real time    0.3715
    MIXING:  cpu time    0.0440: real time    0.0470
    OFIELD:  cpu time    0.0000: real time    0.0001

  FORCE on cell =-STRESS in cart. coord.  units (eV):
  Direction    XX          YY          ZZ          XY          YZ          ZX
  --------------------------------------------------------------------------------------
  Alpha Z    31.01898    31.01898    31.01898
  Ewald   10317.02598 10317.02348-12093.34075    -0.00138    -0.00047    -0.00084
  Hartree 10730.51979 10730.52021-10479.03902    -0.00013     0.00004     0.00006
  E(xc)    -224.86023  -224.86028  -224.52839     0.00006     0.00000     0.00001
  Local  -21925.54466-21925.54397 21662.32633     0.00109     0.00024     0.00045
  n-local   449.95916   451.79039   451.86035     1.03953     0.84541     0.79922
  augment   -46.07529   -46.07513   -48.47927    -0.00008     0.00002     0.00002
  Kinetic   671.05639   662.99290   700.35393    -4.69101    -1.83517    -1.50532
  Fock        0.00000     0.00000     0.00000     0.00000     0.00000     0.00000
  -------------------------------------------------------------------------------------
  Total      -0.01665    -0.01665     0.17217    -0.00000     0.00000     0.00000
  in kB      -0.03911    -0.03911     0.40438    -0.00000     0.00000     0.00000
  external pressure =        0.11 kB  Pullay stress =        0.00 kB


 VOLUME and BASIS-vectors are now :
 -----------------------------------------------------------------------------
  energy-cutoff  :      520.00
  volume of cell :      682.13
      direct lattice vectors                 reciprocal lattice vectors
     5.991780628  0.000000091 -0.000000000     0.166895297 -0.096357036  0.000000000
     2.995889936  5.189034065 -0.000000000    -0.000000003  0.192714096 -0.000000000
    -0.000000000  0.000000000 21.939322650     0.000000000  0.000000000  0.045580259

  length of vectors
     5.991780628  5.991780289 21.939322650     0.192714085  0.192714096  0.045580259


 FORCES acting on ions
    electron-ion (+dipol)            ewald-force                    non-local-force                 convergence-correction
 -----------------------------------------------------------------------------------------------
   -.131E-03 -.328E-04 -.818E+01   0.499E-03 0.294E-03 0.786E+01   -.386E-17 0.325E-18 0.487E+00   -.302E-06 -.147E-06 -.353E-01
   0.862E-04 0.101E-03 -.811E+01   -.490E-03 -.289E-03 0.779E+01   -.732E-17 0.321E-18 0.480E+00   -.704E-07 -.248E-07 -.340E-01
   -.337E-04 -.137E-04 0.233E+03   -.200E-03 -.112E-03 -.228E+03   0.139E-16 0.110E-16 -.437E+01   0.156E-06 0.888E-07 -.421E-01
   0.294E-04 0.337E-04 -.227E+03   0.215E-03 0.120E-03 0.222E+03   -.184E-16 -.101E-16 0.569E+01   0.220E-06 0.125E-06 0.662E-02
   0.190E+01 -.168E-01 -.483E+03   -.465E+01 0.199E-01 0.486E+03   0.272E+01 0.196E-02 -.351E+01   -.710E-03 -.483E-02 0.237E-01
   -.966E+00 -.164E+01 -.483E+03   0.234E+01 0.402E+01 0.486E+03   -.136E+01 -.235E+01 -.351E+01   -.383E-02 0.303E-02 0.237E-01
   -.939E+00 0.165E+01 -.483E+03   0.231E+01 -.404E+01 0.486E+03   -.136E+01 0.235E+01 -.351E+01   0.454E-02 0.180E-02 0.237E-01
   0.144E+02 0.686E-01 0.486E+03   -.109E+02 -.648E-01 -.489E+03   -.349E+01 0.172E-03 0.341E+01   -.269E-03 -.506E-02 -.727E-01
   -.715E+01 -.125E+02 0.486E+03   0.541E+01 0.950E+01 -.489E+03   0.175E+01 0.303E+01 0.341E+01   -.425E-02 0.276E-02 -.727E-01
   -.727E+01 0.125E+02 0.486E+03   0.552E+01 -.944E+01 -.489E+03   0.175E+01 -.303E+01 0.341E+01   0.452E-02 0.230E-02 -.727E-01
 -----------------------------------------------------------------------------------------------
   -.487E-05 0.116E-03 -.168E+01   0.115E-13 0.124E-13 0.171E-12   0.444E-15 -.444E-15 0.197E+01   -.166E-06 -.721E-07 -.252E+00


 POSITION                                       TOTAL-FORCE (eV/Angst)
 -----------------------------------------------------------------------------------
      2.99589      1.72968     10.96166         0.000000      0.000000      0.128360
      5.99178      3.45936     10.96188         0.000000      0.000000      0.124783
     -0.00000      0.00000      9.83356         0.000000     -0.000000     -0.287003
     -0.00000      0.00000     12.13729         0.000000      0.000000      0.122635
      3.88664     -0.00010     12.53216        -0.035213      0.001215     -0.063115
      1.05248      1.82317     12.53216         0.018659      0.029888     -0.063115
      4.04856      3.36598     12.53216         0.016554     -0.031103     -0.063115
      2.25553      0.00029      9.43052        -0.010454     -0.001987      0.033523
      1.86838      3.23553      9.43052         0.003506      0.010047      0.033523
      4.86375      1.95320      9.43052         0.006947     -0.008060      0.033523
 -----------------------------------------------------------------------------------
    total drift:                               -0.000005      0.000116      0.037367


--------------------------------------------------------------------------------------------------------



  FREE ENERGIE OF THE ION-ELECTRON SYSTEM (eV)
  ---------------------------------------------------
  free  energy   TOTEN  =       -52.71491070 eV

  energy  without entropy=      -52.71491070  energy(sigma->0) =      -52.71491070

 d Force =-0.3937220E-03[-0.177E-02, 0.986E-03]  d Energy = 0.7965136E-04-0.473E-03
 d Force =-0.2763297E+01[-0.273E+01,-0.279E+01]  d Ewald  =-0.4565403E+02 0.429E+02


--------------------------------------------------------------------------------------------------------


    POTLOK:  cpu time   52.6600: real time   52.9055


--------------------------------------------------------------------------------------------------------




--------------------------------------------------------------------------------------------------------


  
 reached required accuracy - stopping structural energy minimisation
     LOOP+:  cpu time  810.6160: real time  817.3434
    4ORBIT:  cpu time    0.0000: real time    0.0000



 total charge     

# of ion       s       p       d       tot
------------------------------------------
    1        0.267   0.312   4.935   5.514
    2        0.267   0.312   4.935   5.513
    3        1.144   1.191   0.132   2.466
    4        0.732   0.898   0.000   1.630
    5        1.364   2.346   0.000   3.711
    6        1.356   2.378   0.000   3.735
    7        1.362   2.356   0.000   3.718
    8        1.375   2.314   0.000   3.689
    9        1.369   2.330   0.000   3.699
   10        1.373   2.316   0.000   3.689
--------------------------------------------------
tot         10.608  16.754  10.002  37.364



 magnetization (x)

# of ion       s       p       d       tot
------------------------------------------
    1        0.027   0.027   3.260   3.315
    2        0.027   0.027   3.262   3.317
    3       -0.007   0.023   0.001   0.016
    4        0.000   0.013   0.000   0.013
    5        0.006  -0.045   0.000  -0.039
    6        0.005  -0.015   0.000  -0.010
    7        0.005  -0.034   0.000  -0.030
    8        0.006  -0.061   0.000  -0.055
    9        0.005  -0.034   0.000  -0.029
   10        0.005  -0.053   0.000  -0.048
--------------------------------------------------
tot          0.078  -0.152   6.523   6.450

 BZINTS: Fermi energy: -2.602051; 58.000000 electrons
         Band energy:-476.717111;  BLOECHL correction: -0.030340

 total amount of memory used by VASP MPI-rank0   131465. kBytes
=======================================================================

   base      :      30000. kBytes
   nonlr-proj:       8980. kBytes
   fftplans  :      11247. kBytes
   grid      :      68332. kBytes
   one-center:        311. kBytes
   wavefun   :      12595. kBytes

  
  
 General timing and accounting informations for this job:
 ========================================================
  
                  Total CPU time used (sec):    10514.700
                            User time (sec):    10179.248
                          System time (sec):      335.452
                         Elapsed time (sec):    10638.203
  
                   Maximum memory used (kb):      383196.
                   Average memory used (kb):           0.
  
                          Minor page faults:     10585126
                          Major page faults:            7
                 Voluntary context switches:         1072
