 vasp.5.4.4.18Apr17-6-g9f103f2a35 (build May  1 2020 15:48:39) complex           
 executed on             LinuxGNU date 2020.07.01  05:17:15
 running on    8 total cores
 distrk:  each k-point on    8 cores,    1 groups
 distr:  one band on NCORES_PER_BAND=   1 cores,    8 groups


--------------------------------------------------------------------------------------------------------


 INCAR:
 POTCAR:   PAW_PBE Cr 06Sep2000                   
 POTCAR:   PAW_PBE Ge 05Jan2001                   
 POTCAR:   PAW_PBE Si 05Jan2001                   
 POTCAR:   PAW_PBE Te 08Apr2002                   

 ----------------------------------------------------------------------------- 
|                                                                             |
|           W    W    AA    RRRRR   N    N  II  N    N   GGGG   !!!           |
|           W    W   A  A   R    R  NN   N  II  NN   N  G    G  !!!           |
|           W    W  A    A  R    R  N N  N  II  N N  N  G       !!!           |
|           W WW W  AAAAAA  RRRRR   N  N N  II  N  N N  G  GGG   !            |
|           WW  WW  A    A  R   R   N   NN  II  N   NN  G    G                |
|           W    W  A    A  R    R  N    N  II  N    N   GGGG   !!!           |
|                                                                             |
|      For optimal performance we recommend to set                            |
|        NCORE= 4 - approx SQRT( number of cores)                             |
|      NCORE specifies how many cores store one orbital (NPAR=cpu/NCORE).     |
|      This setting can  greatly improve the performance of VASP for DFT.     |
|      The default,   NCORE=1            might be grossly inefficient         |
|      on modern multi-core architectures or massively parallel machines.     |
|      Do your own testing !!!!                                               |
|      Unfortunately you need to use the default for GW and RPA calculations. |
|      (for HF NCORE is supported but not extensively tested yet)             |
|                                                                             |
 ----------------------------------------------------------------------------- 


 ----------------------------------------------------------------------------- 
|                                                                             |
|  ADVICE TO THIS USER RUNNING 'VASP/VAMP'   (HEAR YOUR MASTER'S VOICE ...):  |
|                                                                             |
|      You have switched on vdW-DFT.                                          |
|      This routine was written and supplied by Jiri Klimes.                  |
|      We recommed that you carefully read and cite the following             |
|      publication                                                            |
|      J. Klimes, D.R. Bowler, A. Michelides                                  |
|        J. Phys.: Cond Matt. 22 022201 (2010)                                |
|      J. Klimes, D.R. Bowler, A. Michelides                                  |
|        Phys. Rev. B. 83, 195131 (2011)                                      |
|      and references therein.                                                |
|                                                                             |
 ----------------------------------------------------------------------------- 

 POTCAR:   PAW_PBE Cr 06Sep2000                   
   VRHFIN =Cr : d5 s1                                                           
   LEXCH  = PE                                                                  
   EATOM  =   276.9744 eV,   20.3570 Ry                                         
                                                                                
   TITEL  = PAW_PBE Cr 06Sep2000                                                
   LULTRA =        F    use ultrasoft PP ?                                      
   IUNSCR =        1    unscreen: 0-lin 1-nonlin 2-no                           
   RPACOR =    2.080    partial core radius                                     
   POMASS =   51.996; ZVAL   =    6.000    mass and valenz                      
   RCORE  =    2.500    outmost cutoff radius                                   
   RWIGS  =    2.500; RWIGS  =    1.323    wigner-seitz radius (au A)           
   ENMAX  =  227.082; ENMIN  =  170.311 eV                                      
   RCLOC  =    1.721    cutoff for local pot                                    
   LCOR   =        T    correct aug charges                                     
   LPAW   =        T    paw PP                                                  
   EAUG   =  402.108                                                            
   DEXC   =    -.035                                                            
   RMAX   =    3.060    core radius for proj-oper                               
   RAUG   =    1.300    factor for augmentation sphere                          
   RDEP   =    2.609    radius for radial grids                                 
   QCUT   =   -4.085; QGAM   =    8.171    optimization parameters              
                                                                                
   Description                                                                  
     l     E      TYP  RCUT    TYP  RCUT                                        
     2   .000     23  2.500                                                     
     2   .000     23  2.500                                                     
     0   .000     23  2.500                                                     
     0   .000     23  2.500                                                     
     1  -.400     23  2.500                                                     
     1  2.000     23  2.500                                                     
     3   .000      7   .000                                                     
  local pseudopotential read in
  partial core-charges read in
  atomic valenz-charges read in
  non local Contribution for L=           2  read in
    real space projection operators read in
  non local Contribution for L=           2  read in
    real space projection operators read in
  non local Contribution for L=           0  read in
    real space projection operators read in
  non local Contribution for L=           0  read in
    real space projection operators read in
  non local Contribution for L=           1  read in
    real space projection operators read in
  non local Contribution for L=           1  read in
    real space projection operators read in
    PAW grid and wavefunctions read in

   number of l-projection  operators is LMAX  =           6
   number of lm-projection operators is LMMAX =          18

 POTCAR:   PAW_PBE Ge 05Jan2001                   
   VRHFIN =Ge: s2p2                                                             
   LEXCH  = PE                                                                  
   EATOM  =   104.9960 eV,    7.7170 Ry                                         
                                                                                
   TITEL  = PAW_PBE Ge 05Jan2001                                                
   LULTRA =        F    use ultrasoft PP ?                                      
   IUNSCR =        1    unscreen: 0-lin 1-nonlin 2-no                           
   RPACOR =    2.170    partial core radius                                     
   POMASS =   72.610; ZVAL   =    4.000    mass and valenz                      
   RCORE  =    2.300    outmost cutoff radius                                   
   RWIGS  =    2.300; RWIGS  =    1.217    wigner-seitz radius (au A)           
   ENMAX  =  173.807; ENMIN  =  130.355 eV                                      
   ICORE  =        3    local potential                                         
   LCOR   =        T    correct aug charges                                     
   LPAW   =        T    paw PP                                                  
   EAUG   =  385.843                                                            
   DEXC   =    -.138                                                            
   RMAX   =    3.497    core radius for proj-oper                               
   RAUG   =    1.300    factor for augmentation sphere                          
   RDEP   =    2.318    radius for radial grids                                 
   QCUT   =   -3.574; QGAM   =    7.148    optimization parameters              
                                                                                
   Description                                                                  
     l     E      TYP  RCUT    TYP  RCUT                                        
     0   .000     23  2.300                                                     
     0   .000     23  2.300                                                     
     1   .000     23  2.300                                                     
     1   .000     23  2.300                                                     
     2   .000     23  2.300                                                     
     3  -.100      7  2.300                                                     
  local pseudopotential read in
  partial core-charges read in
  atomic valenz-charges read in
  non local Contribution for L=           0  read in
    real space projection operators read in
  non local Contribution for L=           0  read in
    real space projection operators read in
  non local Contribution for L=           1  read in
    real space projection operators read in
  non local Contribution for L=           1  read in
    real space projection operators read in
  non local Contribution for L=           2  read in
    real space projection operators read in
    PAW grid and wavefunctions read in

   number of l-projection  operators is LMAX  =           5
   number of lm-projection operators is LMMAX =          13

 POTCAR:   PAW_PBE Si 05Jan2001                   
   VRHFIN =Si: s2p2                                                             
   LEXCH  = PE                                                                  
   EATOM  =   103.0669 eV,    7.5752 Ry                                         
                                                                                
   TITEL  = PAW_PBE Si 05Jan2001                                                
   LULTRA =        F    use ultrasoft PP ?                                      
   IUNSCR =        1    unscreen: 0-lin 1-nonlin 2-no                           
   RPACOR =    1.500    partial core radius                                     
   POMASS =   28.085; ZVAL   =    4.000    mass and valenz                      
   RCORE  =    1.900    outmost cutoff radius                                   
   RWIGS  =    2.480; RWIGS  =    1.312    wigner-seitz radius (au A)           
   ENMAX  =  245.345; ENMIN  =  184.009 eV                                      
   ICORE  =        2    local potential                                         
   LCOR   =        T    correct aug charges                                     
   LPAW   =        T    paw PP                                                  
   EAUG   =  322.069                                                            
   DEXC   =    -.007                                                            
   RMAX   =    2.944    core radius for proj-oper                               
   RAUG   =    1.300    factor for augmentation sphere                          
   RDEP   =    1.993    radius for radial grids                                 
   QCUT   =   -4.246; QGAM   =    8.493    optimization parameters              
                                                                                
   Description                                                                  
     l     E      TYP  RCUT    TYP  RCUT                                        
     0   .000     23  1.900                                                     
     0   .000     23  1.900                                                     
     1   .000     23  1.900                                                     
     1   .000     23  1.900                                                     
     2   .000      7  1.900                                                     
  local pseudopotential read in
  partial core-charges read in
  atomic valenz-charges read in
  non local Contribution for L=           0  read in
    real space projection operators read in
  non local Contribution for L=           0  read in
    real space projection operators read in
  non local Contribution for L=           1  read in
    real space projection operators read in
  non local Contribution for L=           1  read in
    real space projection operators read in
    PAW grid and wavefunctions read in

   number of l-projection  operators is LMAX  =           4
   number of lm-projection operators is LMMAX =           8

 POTCAR:   PAW_PBE Te 08Apr2002                   
   VRHFIN =Te: s2p4                                                             
   LEXCH  = PE                                                                  
   EATOM  =   223.2721 eV,   16.4100 Ry                                         
                                                                                
   TITEL  = PAW_PBE Te 08Apr2002                                                
   LULTRA =        F    use ultrasoft PP ?                                      
   IUNSCR =        1    unscreen: 0-lin 1-nonlin 2-no                           
   RPACOR =    2.200    partial core radius                                     
   POMASS =  127.600; ZVAL   =    6.000    mass and valenz                      
   RCORE  =    2.300    outmost cutoff radius                                   
   RWIGS  =    2.900; RWIGS  =    1.535    wigner-seitz radius (au A)           
   ENMAX  =  174.982; ENMIN  =  131.236 eV                                      
   ICORE  =        3    local potential                                         
   LCOR   =        T    correct aug charges                                     
   LPAW   =        T    paw PP                                                  
   EAUG   =  368.792                                                            
   DEXC   =    -.169                                                            
   RMAX   =    3.486    core radius for proj-oper                               
   RAUG   =    1.300    factor for augmentation sphere                          
   RDEP   =    2.397    radius for radial grids                                 
   QCUT   =   -3.586; QGAM   =    7.172    optimization parameters              
                                                                                
   Description                                                                  
     l     E      TYP  RCUT    TYP  RCUT                                        
     0   .000     23  2.300                                                     
     0   .000     23  2.300                                                     
     1   .000     23  2.300                                                     
     1   .000     23  2.300                                                     
     2   .000     23  2.300                                                     
     3  -.100     23  2.300                                                     
  local pseudopotential read in
  partial core-charges read in
  atomic valenz-charges read in
  non local Contribution for L=           0  read in
    real space projection operators read in
  non local Contribution for L=           0  read in
    real space projection operators read in
  non local Contribution for L=           1  read in
    real space projection operators read in
  non local Contribution for L=           1  read in
    real space projection operators read in
  non local Contribution for L=           2  read in
    real space projection operators read in
    PAW grid and wavefunctions read in

   number of l-projection  operators is LMAX  =           5
   number of lm-projection operators is LMMAX =          13

 Optimization of the real space projectors (new method)

 maximal supplied QI-value         = 15.12
 optimisation between [QCUT,QGAM] = [ 11.64, 23.28] = [ 37.95,151.78] Ry 
 Optimized for a Real-space Cutoff    1.49 Angstroem

   l    n(q)    QCUT    max X(q) W(low)/X(q) W(high)/X(q)  e(spline) 
   2      9    11.641     4.777    0.25E-04    0.21E-05    0.63E-07
   2      9    11.641    31.132    0.13E-03    0.22E-03    0.64E-06
   0     10    11.641    20.416    0.11E-04    0.74E-05    0.19E-07
   0     10    11.641    45.408    0.10E-03    0.85E-04    0.30E-06
   1     10    11.641     7.848    0.22E-04    0.23E-04    0.56E-07
   1     10    11.641     9.895    0.85E-04    0.54E-04    0.16E-06
 Optimization of the real space projectors (new method)

 maximal supplied QI-value         = 16.25
 optimisation between [QCUT,QGAM] = [ 11.54, 23.24] = [ 37.28,151.24] Ry 
 Optimized for a Real-space Cutoff    1.28 Angstroem

   l    n(q)    QCUT    max X(q) W(low)/X(q) W(high)/X(q)  e(spline) 
   0      9    11.539     8.651    0.22E-04    0.16E-04    0.10E-07
   0      9    11.539    33.192    0.11E-03    0.16E-03    0.65E-07
   1      8    11.539     5.899    0.37E-04    0.28E-04    0.43E-07
   1      8    11.539    27.289    0.22E-03    0.28E-04    0.14E-06
   2      8    11.539     4.673    0.11E-03    0.18E-03    0.58E-07
 Optimization of the real space projectors (new method)

 maximal supplied QI-value         = 19.84
 optimisation between [QCUT,QGAM] = [ 11.51, 23.22] = [ 37.09,150.92] Ry 
 Optimized for a Real-space Cutoff    1.21 Angstroem

   l    n(q)    QCUT    max X(q) W(low)/X(q) W(high)/X(q)  e(spline) 
   0      8    11.508     8.708    0.18E-04    0.44E-05    0.47E-08
   0      8    11.508   106.241    0.70E-04    0.15E-03    0.51E-07
   1      8    11.508     5.901    0.63E-05    0.23E-04    0.21E-07
   1      8    11.508    73.241    0.15E-03    0.36E-04    0.79E-07
 Optimization of the real space projectors (new method)

 maximal supplied QI-value         = 16.25
 optimisation between [QCUT,QGAM] = [ 11.54, 23.24] = [ 37.28,151.24] Ry 
 Optimized for a Real-space Cutoff    1.36 Angstroem

   l    n(q)    QCUT    max X(q) W(low)/X(q) W(high)/X(q)  e(spline) 
   0      9    11.539     7.090    0.13E-04    0.25E-05    0.51E-08
   0      9    11.539   101.654    0.53E-04    0.69E-04    0.12E-06
   1      9    11.539     5.276    0.20E-04    0.98E-05    0.24E-07
   1      9    11.539    81.891    0.24E-03    0.13E-04    0.15E-06
   2      9    11.539     5.599    0.30E-04    0.97E-04    0.54E-07

 ----------------------------------------------------------------------------- 
|                                                                             |
|  ADVICE TO THIS USER RUNNING 'VASP/VAMP'   (HEAR YOUR MASTER'S VOICE ...):  |
|                                                                             |
|      You enforced a specific xc-type in the INCAR file,                     |
|      a different type was found on the POTCAR file                          |
|          I HOPE YOU KNOW, WHAT YOU ARE  DOING                               |
|                                                                             |
 ----------------------------------------------------------------------------- 

 PAW_PBE Cr 06Sep2000                   :
 energy of atom  1       EATOM= -276.9744
 kinetic energy error for atom=    0.0010 (will be added to EATOM!!)
 PAW_PBE Ge 05Jan2001                   :
 energy of atom  2       EATOM= -104.9960
 kinetic energy error for atom=    0.0002 (will be added to EATOM!!)
 PAW_PBE Si 05Jan2001                   :
 energy of atom  3       EATOM= -103.0669
 kinetic energy error for atom=    0.0005 (will be added to EATOM!!)
 PAW_PBE Te 08Apr2002                   :
 energy of atom  4       EATOM= -223.2721
 kinetic energy error for atom=    0.0007 (will be added to EATOM!!)


 POSCAR: Cr2 Ge Si Te6                           
  positions in direct lattice
  velocities in cartesian coordinates
  No initial velocities read in
 exchange correlation table for  LEXCH =       42
   RHO(1)=    0.500       N(1)  =     2000
   RHO(2)=  100.500       N(2)  =     4000



--------------------------------------------------------------------------------------------------------


 ion  position               nearest neighbor table
   1  0.333  0.333  0.500-   6 2.78   5 2.78   7 2.78   8 2.78  10 2.78   9 2.78
   2  0.667  0.667  0.500-   9 2.78   8 2.78  10 2.78   5 2.78   7 2.78   6 2.78
   3  0.000  0.000  0.448-   4 2.43   8 2.63  10 2.63   9 2.63
   4  0.000  0.000  0.552-   3 2.43   5 2.63   7 2.63   6 2.63
   5  0.626  0.000  0.574-   4 2.63   1 2.78   2 2.78
   6  0.000  0.373  0.574-   4 2.63   1 2.78   2 2.78
   7  0.373  0.626  0.574-   4 2.63   1 2.78   2 2.78
   8  0.374  1.000  0.426-   3 2.63   2 2.78   1 2.78
   9  1.000  0.627  0.426-   3 2.63   2 2.78   1 2.78
  10  0.627  0.374  0.426-   3 2.63   2 2.78   1 2.78

  LATTYP: Found a hexagonal cell.
 ALAT       =     6.9077769333
 C/A-ratio  =     3.3939410937
  
  Lattice vectors:
  
 A1 = (   3.4538890000,  -5.9823100000,   0.0000000000)
 A2 = (  -6.9077770000,   0.0000000000,   0.0000000000)
 A3 = (   0.0000000000,   0.0000000000, -23.4445880000)


Analysis of symmetry for initial positions (statically):
=====================================================================
 Subroutine PRICEL returns:
 Original cell was already a primitive cell.
 

 Routine SETGRP: Setting up the symmetry group for a 
 hexagonal supercell.


 Subroutine GETGRP returns: Found  3 space group operations
 (whereof  3 operations were pure point group operations)
 out of a pool of 24 trial point group operations.


The static configuration has the point symmetry C_3 .


Analysis of symmetry for dynamics (positions and initial velocities):
=====================================================================
 Subroutine PRICEL returns:
 Original cell was already a primitive cell.
 

 Routine SETGRP: Setting up the symmetry group for a 
 hexagonal supercell.


 Subroutine GETGRP returns: Found  3 space group operations
 (whereof  3 operations were pure point group operations)
 out of a pool of 24 trial point group operations.


The dynamic configuration has the point symmetry C_3 .


Analysis of constrained symmetry for selective dynamics:
=====================================================================
 Subroutine PRICEL returns:
 Original cell was already a primitive cell.
 

 Routine SETGRP: Setting up the symmetry group for a 
 hexagonal supercell.


 Subroutine GETGRP returns: Found  3 space group operations
 (whereof  3 operations were pure point group operations)
 out of a pool of 24 trial point group operations.


The constrained configuration has the point symmetry C_3 .


Analysis of structural, dynamic, and magnetic symmetry:
=====================================================================
 Subroutine PRICEL returns:
 Original cell was already a primitive cell.
 

 Routine SETGRP: Setting up the symmetry group for a 
 hexagonal supercell.


 Subroutine GETGRP returns: Found  3 space group operations
 (whereof  3 operations were pure point group operations)
 out of a pool of 24 trial point group operations.


The magnetic configuration has the point symmetry C_3 .


 Subroutine INISYM returns: Found  3 space group operations
 (whereof  3 operations are pure point group operations),
 and found     1 'primitive' translations



 KPOINTS: Kpoints from vasprun.xml                

Automatic generation of k-mesh.
Space group operators:
 irot       det(A)        alpha          n_x          n_y          n_z        tau_x        tau_y        tau_z
    1     1.000000     0.000000     1.000000     0.000000     0.000000     0.000000     0.000000     0.000000
    2     1.000000   120.000000     0.000000     0.000000     1.000000     0.000000     0.000000     0.000000
    3     1.000000   120.000000     0.000000     0.000000    -1.000000     0.000000     0.000000     0.000000
 
 Subroutine IBZKPT returns following result:
 ===========================================
 
 Found      5 irreducible k-points:
 
 Following reciprocal coordinates:
            Coordinates               Weight
  0.000000  0.000000  0.000000      1.000000
  0.200000  0.000000  0.000000      6.000000
  0.400000  0.000000  0.000000      6.000000
  0.400000  0.200000  0.000000      6.000000
 -0.400000  0.200000  0.000000      6.000000
 
 Following cartesian coordinates:
            Coordinates               Weight
  0.000000  0.000000  0.000000      1.000000
  0.028953 -0.016716  0.000000      6.000000
  0.057906 -0.033432  0.000000      6.000000
  0.057906  0.000000  0.000000      6.000000
 -0.057906  0.066864  0.000000      6.000000
 
 TETIRR: Found     15 inequivalent tetrahedra from      150


--------------------------------------------------------------------------------------------------------




 Dimension of arrays:
   k-points           NKPTS =      5   k-points in BZ     NKDIM =      5   number of bands    NBANDS=     40
   number of dos      NEDOS =    301   number of ions     NIONS =     10
   non local maximal  LDIM  =      6   non local SUM 2l+1 LMDIM =     18
   total plane-waves  NPLWV = 524880
   max r-space proj   IRMAX =   7543   max aug-charges    IRDMAX=  31706
   dimension x,y,z NGX =    54 NGY =   54 NGZ =  180
   dimension x,y,z NGXF=   108 NGYF=  108 NGZF=  360
   support grid    NGXF=   108 NGYF=  108 NGZF=  360
   ions per type =               2   1   1   6
   NGX,Y,Z   is equivalent  to a cutoff of  13.00, 13.00, 12.76 a.u.
   NGXF,Y,Z  is equivalent  to a cutoff of  25.99, 25.99, 25.53 a.u.

 SYSTEM =  unknown system                          
 POSCAR =  Cr2 Ge Si Te6                           

 Startparameter for this run:
   NWRITE =      2    write-flag & timer
   PREC   = accura    normal or accurate (medium, high low for compatibility)
   ISTART =      0    job   : 0-new  1-cont  2-samecut
   ICHARG =      2    charge: 1-file 2-atom 10-const
   ISPIN  =      2    spin polarized calculation?
   LNONCOLLINEAR =      F non collinear calculations
   LSORBIT =      F    spin-orbit coupling
   INIWAV =      1    electr: 0-lowe 1-rand  2-diag
   LASPH  =      F    aspherical Exc in radial PAW
   METAGGA=      F    non-selfconsistent MetaGGA calc.

 Electronic Relaxation 1
   ENCUT  =  520.0 eV  38.22 Ry    6.18 a.u.  12.84 12.84 43.59*2*pi/ulx,y,z
   ENINI  =  520.0     initial cutoff
   ENAUG  =  402.1 eV  augmentation charge cutoff
   NELM   =    400;   NELMIN=  2; NELMDL=  0     # of ELM steps 
   EDIFF  = 0.1E-03   stopping-criterion for ELM
   LREAL  =      T    real-space projection
   NLSPLINE    = F    spline interpolate recip. space projectors
   LCOMPAT=      F    compatible to vasp.4.4
   GGA_COMPAT  = T    GGA compatible to vasp.4.4-vasp.4.6
   LMAXPAW     = -100 max onsite density
   LMAXMIX     =    2 max onsite mixed and CHGCAR
   VOSKOWN=      0    Vosko Wilk Nusair interpolation
   ROPT   =   -0.00025  -0.00025  -0.00025  -0.00025
 Ionic relaxation
   EDIFFG = 0.1E-02   stopping-criterion for IOM
   NSW    =     99    number of steps for IOM
   NBLOCK =      1;   KBLOCK =     99    inner block; outer block 
   IBRION =      2    ionic relax: 0-MD 1-quasi-New 2-CG
   NFREE  =      1    steps in history (QN), initial steepest desc. (CG)
   ISIF   =      3    stress and relaxation
   IWAVPR =     11    prediction:  0-non 1-charg 2-wave 3-comb
   ISYM   =      2    0-nonsym 1-usesym 2-fastsym
   LCORR  =      T    Harris-Foulkes like correction to forces

   POTIM  = 0.5000    time-step for ionic-motion
   TEIN   =    0.0    initial temperature
   TEBEG  =    0.0;   TEEND  =   0.0 temperature during run
   SMASS  =  -3.00    Nose mass-parameter (am)
   estimated Nose-frequenzy (Omega)   =  0.10E-29 period in steps =****** mass=  -0.109E-26a.u.
   SCALEE = 1.0000    scale energy and forces
   NPACO  =    256;   APACO  = 16.0  distance and # of slots for P.C.
   PSTRESS=    0.0 pullay stress

  Mass of Ions in am
   POMASS =  52.00 72.61 28.09127.60
  Ionic Valenz
   ZVAL   =   6.00  4.00  4.00  6.00
  Atomic Wigner-Seitz radii
   RWIGS  =  -1.00 -1.00 -1.00 -1.00
  virtual crystal weights 
   VCA    =   1.00  1.00  1.00  1.00
   NELECT =      56.0000    total number of electrons
   NUPDOWN=      -1.0000    fix difference up-down

 DOS related values:
   EMIN   =  10.00;   EMAX   =-10.00  energy-range for DOS
   EFERMI =   0.00
   ISMEAR =    -5;   SIGMA  =   0.05  broadening in eV -4-tet -1-fermi 0-gaus

 Electronic relaxation 2 (details)
   IALGO  =     38    algorithm
   LDIAG  =      T    sub-space diagonalisation (order eigenvalues)
   LSUBROT=      F    optimize rotation matrix (better conditioning)
   TURBO    =      0    0=normal 1=particle mesh
   IRESTART =      0    0=no restart 2=restart with 2 vectors
   NREBOOT  =      0    no. of reboots
   NMIN     =      0    reboot dimension
   EREF     =   0.00    reference energy to select bands
   IMIX   =      4    mixing-type and parameters
     AMIX     =   0.40;   BMIX     =  1.00
     AMIX_MAG =   1.60;   BMIX_MAG =  1.00
     AMIN     =   0.01
     WC   =   100.;   INIMIX=   1;  MIXPRE=   1;  MAXMIX= -45

 Intra band minimization:
   WEIMIN = 0.0010     energy-eigenvalue tresh-hold
   EBREAK =  0.63E-06  absolut break condition
   DEPER  =   0.30     relativ break condition  

   TIME   =   0.40     timestep for ELM

  volume/ion in A,a.u.               =      96.88       653.80
  Fermi-wavevector in a.u.,A,eV,Ry     =   0.632976  1.196152  5.451299  0.400659
  Thomas-Fermi vector in A             =   1.696476

 Write flags
   LWAVE        =      F    write WAVECAR
   LDOWNSAMPLE  =      F    k-point downsampling of WAVECAR
   LCHARG       =      T    write CHGCAR
   LVTOT        =      F    write LOCPOT, total local potential
   LVHAR        =      F    write LOCPOT, Hartree potential only
   LELF         =      F    write electronic localiz. function (ELF)
   LORBIT       =     11    0 simple, 1 ext, 2 COOP (PROOUT), +10 PAW based schemes


 Dipole corrections
   LMONO  =      F    monopole corrections only (constant potential shift)
   LDIPOL =      F    correct potential (dipole corrections)
   IDIPOL =      0    1-x, 2-y, 3-z, 4-all directions 
   EPSILON=  1.0000000 bulk dielectric constant

 Exchange correlation treatment:
   GGA     =    BO    GGA type
   LEXCH   =    42    internal setting for exchange type
   VOSKOWN=      0    Vosko Wilk Nusair interpolation
   LHFCALC =     F    Hartree Fock is set to
   LHFONE  =     F    Hartree Fock one center treatment
   AEXX    =    0.0000 exact exchange contribution

 vdW DFT:
   LUSE_VDW   =     T    switch on vdW DFT
   Zab_VDW    =-.8491    correlation parameter
   PARAM1     =0.1833
   PARAM2     =0.2200
   PARAM3     =0.0000
   -- rVV10 --
   BPARAM     = 6.3000
   CPARAM     = 0.0093

 Linear response parameters
   LEPSILON=     F    determine dielectric tensor
   LRPA    =     F    only Hartree local field effects (RPA)
   LNABLA  =     F    use nabla operator in PAW spheres
   LVEL    =     F    velocity operator in full k-point grid
   LINTERFAST=   F  fast interpolation
   KINTER  =     0    interpolate to denser k-point grid
   CSHIFT  =0.1000    complex shift for real part using Kramers Kronig
   OMEGAMAX=  -1.0    maximum frequency
   DEG_THRESHOLD= 0.2000000E-02 threshold for treating states as degnerate
   RTIME   =   -0.100 relaxation time in fs
  (WPLASMAI=    0.000 imaginary part of plasma frequency in eV, 0.658/RTIME)
   DFIELD  = 0.0000000 0.0000000 0.0000000 field for delta impulse in time

 Orbital magnetization related:
   ORBITALMAG=     F  switch on orbital magnetization
   LCHIMAG   =     F  perturbation theory with respect to B field
   DQ        =  0.001000  dq finite difference perturbation B field
   LLRAUG    =     F  two centre corrections for induced B field



--------------------------------------------------------------------------------------------------------


 conjugate gradient relaxation of ions
   using selective dynamics as specified on POSCAR
 charge density and potential will be updated during run
 spin polarized calculation
 Variant of blocked Davidson
 Davidson routine will perform the subspace rotation
 perform sub-space diagonalisation
    after iterative eigenvector-optimisation
 modified Broyden-mixing scheme, WC =      100.0
 initial mixing is a Kerker type mixing with AMIX =  0.4000 and BMIX =      1.0000
 Hartree-type preconditioning will be used
 using additional bands           12
 real space projection scheme for non local part
 use partial core corrections
 calculate Harris-corrections to forces   (improved forces if not selfconsistent)
 use gradient corrections 
 use of overlap-Matrix (Vanderbilt PP)
 Fermi weights with tetrahedron method with Bloechl corrections


--------------------------------------------------------------------------------------------------------


  energy-cutoff  :      520.00
  volume of cell :      968.84
      direct lattice vectors                 reciprocal lattice vectors
     6.907777000 -0.000000000  0.000000000     0.144764372 -0.083579742  0.000000000
     3.453888000  5.982310000  0.000000000     0.000000000  0.167159509 -0.000000000
     0.000000000  0.000000000 23.444588000    -0.000000000  0.000000000  0.042653767

  length of vectors
     6.907777000  6.907776433 23.444588000     0.167159495  0.167159509  0.042653767



 k-points in units of 2pi/SCALE and weight: Kpoints from vasprun.xml                
   0.00000000  0.00000000  0.00000000       0.040
   0.02895287 -0.01671595  0.00000000       0.240
   0.05790575 -0.03343190  0.00000000       0.240
   0.05790575  0.00000000  0.00000000       0.240
  -0.05790575  0.06686380  0.00000000       0.240

 k-points in reciprocal lattice and weights: Kpoints from vasprun.xml                
   0.00000000  0.00000000  0.00000000       0.040
   0.20000000  0.00000000  0.00000000       0.240
   0.40000000  0.00000000  0.00000000       0.240
   0.40000000  0.20000000  0.00000000       0.240
  -0.40000000  0.20000000  0.00000000       0.240

 position of ions in fractional coordinates (direct lattice) 
   0.33333300  0.33333300  0.49992500
   0.66666700  0.66666700  0.50007500
   0.00000000  0.00000000  0.44821600
   0.00000000  0.00000000  0.55178400
   0.62635700  0.00042000  0.57375200
   0.00042000  0.37322400  0.57375200
   0.37322400  0.62635700  0.57375200
   0.37364300  0.99958000  0.42624800
   0.99958000  0.62677600  0.42624800
   0.62677600  0.37364300  0.42624800

 position of ions in cartesian coordinates  (Angst):
   3.45388488  1.99410134 11.72053566
   6.90778012  3.98820866 11.72405234
   0.00000000  0.00000000 10.50823946
   0.00000000  0.00000000 12.93634854
   4.32818511  0.00251257 13.45137925
   1.29197516  2.23274167 13.45137925
   4.74151509  3.74706174 13.45137925
   6.03347989  5.97979743  9.99320875
   9.06968984  3.74956833  9.99320875
   5.62014991  2.23524826  9.99320875



--------------------------------------------------------------------------------------------------------


 k-point  1 :   0.0000 0.0000 0.0000  plane waves:   26073
 k-point  2 :   0.2000 0.0000 0.0000  plane waves:   26070
 k-point  3 :   0.4000 0.0000 0.0000  plane waves:   26086
 k-point  4 :   0.4000 0.2000 0.0000  plane waves:   26085
 k-point  5 :  -0.4000 0.2000 0.0000  plane waves:   26115

 maximum and minimum number of plane-waves per node :     26115    26070

 maximum number of plane-waves:     26115
 maximum index in each direction: 
   IXMAX=   13   IYMAX=   12   IZMAX=   43
   IXMIN=  -13   IYMIN=  -13   IZMIN=  -43


 serial   3D FFT for wavefunctions
 parallel 3D FFT for charge:
    minimum data exchange during FFTs selected (reduces bandwidth)


 total amount of memory used by VASP MPI-rank0   174392. kBytes
=======================================================================

   base      :      30000. kBytes
   nonlr-proj:       8213. kBytes
   fftplans  :      20284. kBytes
   grid      :      94580. kBytes
   one-center:        311. kBytes
   wavefun   :      21004. kBytes

     INWAV:  cpu time    0.0000: real time    0.0024
 Broyden mixing: mesh for mixing (old mesh)
   NGX = 25   NGY = 25   NGZ = 87
  (NGX  =108   NGY  =108   NGZ  =360)
  gives a total of  54375 points

 initial charge density was supplied:
 charge density of overlapping atoms calculated
 number of electron      56.0000000 magnetization       6.0000000
 keeping initial charge density in first step


--------------------------------------------------------------------------------------------------------


 Maximum index for non-local projection operator         7247
 Maximum index for augmentation-charges         4376 (set IRDMAX)


--------------------------------------------------------------------------------------------------------


 First call to EWALD:  gamma=   0.179
 Maximum number of real-space cells 4x 4x 1
 Maximum number of reciprocal cells 2x 2x 6

    FEWALD:  cpu time    0.0000: real time    0.0019


--------------------------------------- Iteration      1(   1)  ---------------------------------------


vdW kernel read from vdw_kernel.bindat
  0.0000  0.2424  0.5071  0.7962  1.1119  1.4567  1.8333  2.2446  2.6937  3.1842
  3.7199  4.3049  4.9438  5.6415  6.4036  7.2358  8.1446  9.1372 10.2212 11.4050
 12.6979 14.1099 15.6519 17.3360 19.1751 21.1837 23.3773 25.7729 28.3892 31.2465
 34.3669 37.7748 41.4965 45.5611 50.0000

    POTLOK:  cpu time  115.6000: real time  116.4550
    SETDIJ:  cpu time    0.0640: real time    0.0617
     EDDAV:  cpu time   20.8000: real time   20.9348
 BZINTS: Fermi energy:  6.887269; 56.000000 electrons
         Band energy:  62.401472;  BLOECHL correction: -0.058071
       DOS:  cpu time    0.0040: real time    0.0040
    --------------------------------------------
      LOOP:  cpu time  136.4680: real time  137.4555

 eigenvalue-minimisations  :   800
 total energy-change (2. order) : 0.4063198E+03  (-0.1569866E+04)
 number of electron      56.0000000 magnetization       6.0000000
 augmentation part       56.0000000 magnetization       6.0000000

 Free energy of the ion-electron system (eV)
  ---------------------------------------------------
  alpha Z        PSCENC =        12.70886290
  Ewald energy   TEWEN  =      5985.89955237
  -Hartree energ DENC   =     -7849.97450105
  -exchange      EXHF   =         0.00000000
  -V(xc)+E(xc)   XCENC  =      -232.53106950
  PAW double counting   =      1155.54629646     -839.90311501
  entropy T*S    EENTRO =         0.00000000
  eigenvalues    EBANDS =        62.40147157
  atomic energy  EATOM  =      2112.17225906
  Solvation  Ediel_sol  =         0.00000000
  ---------------------------------------------------
  free energy    TOTEN  =       406.31975678 eV

  energy without entropy =      406.31975678  energy(sigma->0) =      406.31975678


--------------------------------------------------------------------------------------------------------




--------------------------------------- Iteration      1(   2)  ---------------------------------------


     EDDAV:  cpu time   25.4080: real time   25.4821
 BZINTS: Fermi energy:  0.079394; 56.000000 electrons
         Band energy:-324.031407;  BLOECHL correction: -0.091608
       DOS:  cpu time    0.0040: real time    0.0039
    --------------------------------------------
      LOOP:  cpu time   25.4120: real time   25.4860

 eigenvalue-minimisations  :  1024
 total energy-change (2. order) :-0.3864329E+03  (-0.3685207E+03)
 number of electron      56.0000000 magnetization       6.0000000
 augmentation part       56.0000000 magnetization       6.0000000

 Free energy of the ion-electron system (eV)
  ---------------------------------------------------
  alpha Z        PSCENC =        12.70886290
  Ewald energy   TEWEN  =      5985.89955237
  -Hartree energ DENC   =     -7849.97450105
  -exchange      EXHF   =         0.00000000
  -V(xc)+E(xc)   XCENC  =      -232.53106950
  PAW double counting   =      1155.54629646     -839.90311501
  entropy T*S    EENTRO =         0.00000000
  eigenvalues    EBANDS =      -324.03140687
  atomic energy  EATOM  =      2112.17225906
  Solvation  Ediel_sol  =         0.00000000
  ---------------------------------------------------
  free energy    TOTEN  =        19.88687835 eV

  energy without entropy =       19.88687835  energy(sigma->0) =       19.88687835


--------------------------------------------------------------------------------------------------------




--------------------------------------- Iteration      1(   3)  ---------------------------------------


     EDDAV:  cpu time   37.7240: real time   38.3903
 BZINTS: Fermi energy: -1.648985; 56.000000 electrons
         Band energy:-385.146694;  BLOECHL correction: -0.022014
       DOS:  cpu time    0.0040: real time    0.0055
    --------------------------------------------
      LOOP:  cpu time   37.7320: real time   38.3958

 eigenvalue-minimisations  :  1080
 total energy-change (2. order) :-0.6111529E+02  (-0.5991945E+02)
 number of electron      56.0000000 magnetization       6.0000000
 augmentation part       56.0000000 magnetization       6.0000000

 Free energy of the ion-electron system (eV)
  ---------------------------------------------------
  alpha Z        PSCENC =        12.70886290
  Ewald energy   TEWEN  =      5985.89955237
  -Hartree energ DENC   =     -7849.97450105
  -exchange      EXHF   =         0.00000000
  -V(xc)+E(xc)   XCENC  =      -232.53106950
  PAW double counting   =      1155.54629646     -839.90311501
  entropy T*S    EENTRO =         0.00000000
  eigenvalues    EBANDS =      -385.14669435
  atomic energy  EATOM  =      2112.17225906
  Solvation  Ediel_sol  =         0.00000000
  ---------------------------------------------------
  free energy    TOTEN  =       -41.22840914 eV

  energy without entropy =      -41.22840914  energy(sigma->0) =      -41.22840914


--------------------------------------------------------------------------------------------------------




--------------------------------------- Iteration      1(   4)  ---------------------------------------


     EDDAV:  cpu time   42.5640: real time   42.7474
 BZINTS: Fermi energy: -1.701979; 56.000000 electrons
         Band energy:-388.569246;  BLOECHL correction: -0.019254
       DOS:  cpu time    0.0040: real time    0.0049
    --------------------------------------------
      LOOP:  cpu time   42.5640: real time   42.7522

 eigenvalue-minimisations  :  1208
 total energy-change (2. order) :-0.3422552E+01  (-0.3381792E+01)
 number of electron      56.0000000 magnetization       6.0000000
 augmentation part       56.0000000 magnetization       6.0000000

 Free energy of the ion-electron system (eV)
  ---------------------------------------------------
  alpha Z        PSCENC =        12.70886290
  Ewald energy   TEWEN  =      5985.89955237
  -Hartree energ DENC   =     -7849.97450105
  -exchange      EXHF   =         0.00000000
  -V(xc)+E(xc)   XCENC  =      -232.53106950
  PAW double counting   =      1155.54629646     -839.90311501
  entropy T*S    EENTRO =         0.00000000
  eigenvalues    EBANDS =      -388.56924617
  atomic energy  EATOM  =      2112.17225906
  Solvation  Ediel_sol  =         0.00000000
  ---------------------------------------------------
  free energy    TOTEN  =       -44.65096095 eV

  energy without entropy =      -44.65096095  energy(sigma->0) =      -44.65096095


--------------------------------------------------------------------------------------------------------




--------------------------------------- Iteration      1(   5)  ---------------------------------------


     EDDAV:  cpu time   29.0440: real time   29.2829
 BZINTS: Fermi energy: -1.705072; 56.000000 electrons
         Band energy:-388.677466;  BLOECHL correction: -0.019133
       DOS:  cpu time    0.0040: real time    0.0047
    CHARGE:  cpu time    2.0640: real time    2.0820
    MIXING:  cpu time    0.0600: real time    0.0599
    --------------------------------------------
      LOOP:  cpu time   31.1720: real time   31.4295

 eigenvalue-minimisations  :  1208
 total energy-change (2. order) :-0.1082194E+00  (-0.1078361E+00)
 number of electron      56.0000002 magnetization       5.8945422
 augmentation part       -4.6530319 magnetization       3.8560833

 Broyden mixing:
  rms(total) = 0.12919E+01    rms(broyden)= 0.12919E+01
  rms(prec ) = 0.14215E+01
  weight for this iteration     100.00

 Free energy of the ion-electron system (eV)
  ---------------------------------------------------
  alpha Z        PSCENC =        12.70886290
  Ewald energy   TEWEN  =      5985.89955237
  -Hartree energ DENC   =     -7849.97450105
  -exchange      EXHF   =         0.00000000
  -V(xc)+E(xc)   XCENC  =      -232.53106950
  PAW double counting   =      1155.54629646     -839.90311501
  entropy T*S    EENTRO =         0.00000000
  eigenvalues    EBANDS =      -388.67746555
  atomic energy  EATOM  =      2112.17225906
  Solvation  Ediel_sol  =         0.00000000
  ---------------------------------------------------
  free energy    TOTEN  =       -44.75918033 eV

  energy without entropy =      -44.75918033  energy(sigma->0) =      -44.75918033


--------------------------------------------------------------------------------------------------------




--------------------------------------- Iteration      1(   6)  ---------------------------------------


    POTLOK:  cpu time  104.1160: real time  104.4320
    SETDIJ:  cpu time    0.0720: real time    0.0721
     EDDAV:  cpu time   28.0440: real time   28.1243
 BZINTS: Fermi energy: -3.746182; 56.000000 electrons
         Band energy:-433.349530;  BLOECHL correction: -0.024339
       DOS:  cpu time    0.0040: real time    0.0053
    CHARGE:  cpu time    2.1320: real time    2.1320
    MIXING:  cpu time    0.0480: real time    0.0481
    --------------------------------------------
      LOOP:  cpu time  134.4160: real time  134.8138

 eigenvalue-minimisations  :  1168
 total energy-change (2. order) :-0.1170501E+02  (-0.7201286E+01)
 number of electron      55.9999999 magnetization       5.7996929
 augmentation part        4.4217228 magnetization       4.7082940

 Broyden mixing:
  rms(total) = 0.42574E+01    rms(broyden)= 0.42574E+01
  rms(prec ) = 0.47862E+01
  weight for this iteration     100.00

 eigenvalues of (default mixing * dielectric matrix)
  average eigenvalue GAMMA=   0.2054
  0.2054

 Free energy of the ion-electron system (eV)
  ---------------------------------------------------
  alpha Z        PSCENC =        12.70886290
  Ewald energy   TEWEN  =      5985.89955237
  -Hartree energ DENC   =     -7821.89742473
  -exchange      EXHF   =         0.00000000
  -V(xc)+E(xc)   XCENC  =      -232.00490963
  PAW double counting   =      1132.82408390     -812.81708662
  entropy T*S    EENTRO =         0.00000000
  eigenvalues    EBANDS =      -433.34952957
  atomic energy  EATOM  =      2112.17225906
  Solvation  Ediel_sol  =         0.00000000
  ---------------------------------------------------
  free energy    TOTEN  =       -56.46419231 eV

  energy without entropy =      -56.46419231  energy(sigma->0) =      -56.46419231


--------------------------------------------------------------------------------------------------------




--------------------------------------- Iteration      1(   7)  ---------------------------------------


    POTLOK:  cpu time  103.3120: real time  103.7572
    SETDIJ:  cpu time    0.0720: real time    0.0696
     EDDAV:  cpu time   27.9200: real time   28.1054
 BZINTS: Fermi energy: -2.225570; 56.000000 electrons
         Band energy:-385.424589;  BLOECHL correction:  0.000000
       DOS:  cpu time    0.0000: real time    0.0010
    CHARGE:  cpu time    2.0600: real time    2.0876
    MIXING:  cpu time    0.0520: real time    0.0488
    --------------------------------------------
      LOOP:  cpu time  133.4160: real time  134.0696

 eigenvalue-minimisations  :  1144
 total energy-change (2. order) : 0.1454298E+02  (-0.7341569E+01)
 number of electron      56.0000001 magnetization       5.7901408
 augmentation part       -3.2959866 magnetization       3.4245458

 Broyden mixing:
  rms(total) = 0.92650E+00    rms(broyden)= 0.92643E+00
  rms(prec ) = 0.95374E+00
  weight for this iteration     100.00

 eigenvalues of (default mixing * dielectric matrix)
  average eigenvalue GAMMA=   0.2935
  0.4208  0.1662

 Free energy of the ion-electron system (eV)
  ---------------------------------------------------
  alpha Z        PSCENC =        12.70886290
  Ewald energy   TEWEN  =      5985.89955237
  -Hartree energ DENC   =     -7849.84027654
  -exchange      EXHF   =         0.00000000
  -V(xc)+E(xc)   XCENC  =      -232.64156129
  PAW double counting   =      1188.29733982     -873.09279849
  entropy T*S    EENTRO =         0.00000000
  eigenvalues    EBANDS =      -385.42458917
  atomic energy  EATOM  =      2112.17225906
  Solvation  Ediel_sol  =         0.00000000
  ---------------------------------------------------
  free energy    TOTEN  =       -41.92121134 eV

  energy without entropy =      -41.92121134  energy(sigma->0) =      -41.92121134


--------------------------------------------------------------------------------------------------------




--------------------------------------- Iteration      1(   8)  ---------------------------------------


    POTLOK:  cpu time  104.4840: real time  104.9923
    SETDIJ:  cpu time    0.0720: real time    0.0721
     EDDAV:  cpu time   23.5840: real time   23.7785
 BZINTS: Fermi energy: -2.290278; 56.000000 electrons
         Band energy:-385.949229;  BLOECHL correction:  0.000000
       DOS:  cpu time    0.0000: real time    0.0022
    CHARGE:  cpu time    2.1480: real time    2.1552
    MIXING:  cpu time    0.0480: real time    0.0495
    --------------------------------------------
      LOOP:  cpu time  130.3360: real time  131.0498

 eigenvalue-minimisations  :   944
 total energy-change (2. order) :-0.1215625E+01  (-0.7528849E+00)
 number of electron      56.0000001 magnetization       5.7498179
 augmentation part       -3.6747381 magnetization       3.3142845

 Broyden mixing:
  rms(total) = 0.73554E+00    rms(broyden)= 0.73554E+00
  rms(prec ) = 0.78968E+00
  weight for this iteration     100.00

 eigenvalues of (default mixing * dielectric matrix)
  average eigenvalue GAMMA=   0.5813
  1.0282  0.2031  0.5124

 Free energy of the ion-electron system (eV)
  ---------------------------------------------------
  alpha Z        PSCENC =        12.70886290
  Ewald energy   TEWEN  =      5985.89955237
  -Hartree energ DENC   =     -7850.79526436
  -exchange      EXHF   =         0.00000000
  -V(xc)+E(xc)   XCENC  =      -232.01227826
  PAW double counting   =      1196.68750867     -881.84824770
  entropy T*S    EENTRO =         0.00000000
  eigenvalues    EBANDS =      -385.94922883
  atomic energy  EATOM  =      2112.17225906
  Solvation  Ediel_sol  =         0.00000000
  ---------------------------------------------------
  free energy    TOTEN  =       -43.13683616 eV

  energy without entropy =      -43.13683616  energy(sigma->0) =      -43.13683616


--------------------------------------------------------------------------------------------------------




--------------------------------------- Iteration      1(   9)  ---------------------------------------


    POTLOK:  cpu time  103.2360: real time  104.0574
    SETDIJ:  cpu time    0.0640: real time    0.0635
     EDDAV:  cpu time   27.9480: real time   28.1139
 BZINTS: Fermi energy: -2.437109; 56.000000 electrons
         Band energy:-382.753160;  BLOECHL correction:  0.000000
       DOS:  cpu time    0.0040: real time    0.0018
    CHARGE:  cpu time    2.0360: real time    2.0392
    MIXING:  cpu time    0.0520: real time    0.0537
    --------------------------------------------
      LOOP:  cpu time  133.3400: real time  134.3295

 eigenvalue-minimisations  :  1184
 total energy-change (2. order) : 0.3554083E+00  (-0.1060305E+00)
 number of electron      56.0000001 magnetization       5.7429549
 augmentation part       -3.1880039 magnetization       3.6169970

 Broyden mixing:
  rms(total) = 0.43056E+00    rms(broyden)= 0.43056E+00
  rms(prec ) = 0.45224E+00
  weight for this iteration     100.00

 eigenvalues of (default mixing * dielectric matrix)
  average eigenvalue GAMMA=   0.8438
  1.7602  0.9957  0.2002  0.4193

 Free energy of the ion-electron system (eV)
  ---------------------------------------------------
  alpha Z        PSCENC =        12.70886290
  Ewald energy   TEWEN  =      5985.89955237
  -Hartree energ DENC   =     -7854.09462572
  -exchange      EXHF   =         0.00000000
  -V(xc)+E(xc)   XCENC  =      -231.02134399
  PAW double counting   =      1220.14865288     -905.84162508
  entropy T*S    EENTRO =         0.00000000
  eigenvalues    EBANDS =      -382.75316031
  atomic energy  EATOM  =      2112.17225906
  Solvation  Ediel_sol  =         0.00000000
  ---------------------------------------------------
  free energy    TOTEN  =       -42.78142789 eV

  energy without entropy =      -42.78142789  energy(sigma->0) =      -42.78142789


--------------------------------------------------------------------------------------------------------




--------------------------------------- Iteration      1(  10)  ---------------------------------------


    POTLOK:  cpu time  103.2160: real time  103.8283
    SETDIJ:  cpu time    0.0720: real time    0.0737
     EDDAV:  cpu time   29.2720: real time   29.4718
 BZINTS: Fermi energy: -2.382484; 56.000000 electrons
         Band energy:-381.130637;  BLOECHL correction:  0.000000
       DOS:  cpu time    0.0040: real time    0.0019
    CHARGE:  cpu time    1.9800: real time    1.9836
    MIXING:  cpu time    0.0640: real time    0.0635
    --------------------------------------------
      LOOP:  cpu time  134.6080: real time  135.4227

 eigenvalue-minimisations  :  1232
 total energy-change (2. order) : 0.2348286E-01  (-0.3979150E-01)
 number of electron      56.0000001 magnetization       5.7634212
 augmentation part       -2.8188656 magnetization       3.8706238

 Broyden mixing:
  rms(total) = 0.21136E+00    rms(broyden)= 0.21136E+00
  rms(prec ) = 0.21451E+00
  weight for this iteration     100.00

 eigenvalues of (default mixing * dielectric matrix)
  average eigenvalue GAMMA=   0.9327
  1.6778  1.6778  0.2004  0.4660  0.6413

 Free energy of the ion-electron system (eV)
  ---------------------------------------------------
  alpha Z        PSCENC =        12.70886290
  Ewald energy   TEWEN  =      5985.89955237
  -Hartree energ DENC   =     -7856.25653198
  -exchange      EXHF   =         0.00000000
  -V(xc)+E(xc)   XCENC  =      -230.08567101
  PAW double counting   =      1228.11067657     -914.17645641
  entropy T*S    EENTRO =         0.00000000
  eigenvalues    EBANDS =      -381.13063653
  atomic energy  EATOM  =      2112.17225906
  Solvation  Ediel_sol  =         0.00000000
  ---------------------------------------------------
  free energy    TOTEN  =       -42.75794503 eV

  energy without entropy =      -42.75794503  energy(sigma->0) =      -42.75794503


--------------------------------------------------------------------------------------------------------




--------------------------------------- Iteration      1(  11)  ---------------------------------------


    POTLOK:  cpu time  102.8560: real time  103.6619
    SETDIJ:  cpu time    0.0560: real time    0.0625
     EDDAV:  cpu time   28.5960: real time   28.8553
 BZINTS: Fermi energy: -2.367405; 56.000000 electrons
         Band energy:-380.997011;  BLOECHL correction:  0.000000
       DOS:  cpu time    0.0000: real time    0.0024
    CHARGE:  cpu time    2.0840: real time    2.0959
    MIXING:  cpu time    0.0600: real time    0.0569
    --------------------------------------------
      LOOP:  cpu time  133.6520: real time  134.7349

 eigenvalue-minimisations  :  1200
 total energy-change (2. order) :-0.2830475E-01  (-0.3563569E-02)
 number of electron      56.0000001 magnetization       5.7995111
 augmentation part       -2.7835399 magnetization       3.9830136

 Broyden mixing:
  rms(total) = 0.13851E+00    rms(broyden)= 0.13851E+00
  rms(prec ) = 0.14055E+00
  weight for this iteration     100.00

 eigenvalues of (default mixing * dielectric matrix)
  average eigenvalue GAMMA=   1.1155
  2.2102  2.2102  0.2004  0.4445  0.7761  0.8515

 Free energy of the ion-electron system (eV)
  ---------------------------------------------------
  alpha Z        PSCENC =        12.70886290
  Ewald energy   TEWEN  =      5985.89955237
  -Hartree energ DENC   =     -7856.72426870
  -exchange      EXHF   =         0.00000000
  -V(xc)+E(xc)   XCENC  =      -229.70278773
  PAW double counting   =      1226.13710311     -912.27995978
  entropy T*S    EENTRO =         0.00000000
  eigenvalues    EBANDS =      -380.99701102
  atomic energy  EATOM  =      2112.17225906
  Solvation  Ediel_sol  =         0.00000000
  ---------------------------------------------------
  free energy    TOTEN  =       -42.78624978 eV

  energy without entropy =      -42.78624978  energy(sigma->0) =      -42.78624978


--------------------------------------------------------------------------------------------------------




--------------------------------------- Iteration      1(  12)  ---------------------------------------


    POTLOK:  cpu time  103.1560: real time  103.9841
    SETDIJ:  cpu time    0.0640: real time    0.0636
     EDDAV:  cpu time   29.6320: real time   29.9702
 BZINTS: Fermi energy: -2.356685; 56.000000 electrons
         Band energy:-380.790965;  BLOECHL correction:  0.000000
       DOS:  cpu time    0.0000: real time    0.0025
    CHARGE:  cpu time    2.0880: real time    2.0878
    MIXING:  cpu time    0.0520: real time    0.0512
    --------------------------------------------
      LOOP:  cpu time  134.9920: real time  136.1594

 eigenvalue-minimisations  :  1232
 total energy-change (2. order) :-0.8098213E-02  (-0.1382447E-02)
 number of electron      56.0000001 magnetization       5.8237777
 augmentation part       -2.7644672 magnetization       4.0671382

 Broyden mixing:
  rms(total) = 0.49727E-01    rms(broyden)= 0.49726E-01
  rms(prec ) = 0.51576E-01
  weight for this iteration     100.00

 eigenvalues of (default mixing * dielectric matrix)
  average eigenvalue GAMMA=   1.1295
  2.3648  2.3648  0.2004  1.0761  0.4462  0.7888  0.6656

 Free energy of the ion-electron system (eV)
  ---------------------------------------------------
  alpha Z        PSCENC =        12.70886290
  Ewald energy   TEWEN  =      5985.89955237
  -Hartree energ DENC   =     -7857.26078490
  -exchange      EXHF   =         0.00000000
  -V(xc)+E(xc)   XCENC  =      -229.24907593
  PAW double counting   =      1224.33633133     -910.61052783
  entropy T*S    EENTRO =         0.00000000
  eigenvalues    EBANDS =      -380.79096499
  atomic energy  EATOM  =      2112.17225906
  Solvation  Ediel_sol  =         0.00000000
  ---------------------------------------------------
  free energy    TOTEN  =       -42.79434799 eV

  energy without entropy =      -42.79434799  energy(sigma->0) =      -42.79434799


--------------------------------------------------------------------------------------------------------




--------------------------------------- Iteration      1(  13)  ---------------------------------------


    POTLOK:  cpu time  103.7400: real time  104.1839
    SETDIJ:  cpu time    0.0680: real time    0.0654
     EDDAV:  cpu time   28.9840: real time   29.2516
 BZINTS: Fermi energy: -2.354129; 56.000000 electrons
         Band energy:-380.717089;  BLOECHL correction:  0.000000
       DOS:  cpu time    0.0000: real time    0.0018
    CHARGE:  cpu time    2.0200: real time    2.0396
    MIXING:  cpu time    0.0520: real time    0.0542
    --------------------------------------------
      LOOP:  cpu time  134.8640: real time  135.5966

 eigenvalue-minimisations  :  1216
 total energy-change (2. order) :-0.2768092E-03  (-0.5086538E-03)
 number of electron      56.0000001 magnetization       5.8480096
 augmentation part       -2.7639556 magnetization       4.1082532

 Broyden mixing:
  rms(total) = 0.36136E-01    rms(broyden)= 0.36136E-01
  rms(prec ) = 0.38575E-01
  weight for this iteration     100.00

 eigenvalues of (default mixing * dielectric matrix)
  average eigenvalue GAMMA=   1.1173
  2.4821  2.4821  1.3565  0.2004  0.8610  0.7204  0.4463  0.3894

 Free energy of the ion-electron system (eV)
  ---------------------------------------------------
  alpha Z        PSCENC =        12.70886290
  Ewald energy   TEWEN  =      5985.89955237
  -Hartree energ DENC   =     -7857.42076883
  -exchange      EXHF   =         0.00000000
  -V(xc)+E(xc)   XCENC  =      -229.13803944
  PAW double counting   =      1224.10831546     -910.40771746
  entropy T*S    EENTRO =         0.00000000
  eigenvalues    EBANDS =      -380.71708886
  atomic energy  EATOM  =      2112.17225906
  Solvation  Ediel_sol  =         0.00000000
  ---------------------------------------------------
  free energy    TOTEN  =       -42.79462480 eV

  energy without entropy =      -42.79462480  energy(sigma->0) =      -42.79462480


--------------------------------------------------------------------------------------------------------




--------------------------------------- Iteration      1(  14)  ---------------------------------------


    POTLOK:  cpu time  102.8800: real time  103.3322
    SETDIJ:  cpu time    0.0720: real time    0.0705
     EDDAV:  cpu time   28.2920: real time   28.4609
 BZINTS: Fermi energy: -2.350887; 56.000000 electrons
         Band energy:-380.607445;  BLOECHL correction:  0.000000
       DOS:  cpu time    0.0040: real time    0.0021
    CHARGE:  cpu time    2.0160: real time    2.0184
    MIXING:  cpu time    0.0600: real time    0.0594
    --------------------------------------------
      LOOP:  cpu time  133.3240: real time  133.9436

 eigenvalue-minimisations  :  1192
 total energy-change (2. order) : 0.2060494E-02  (-0.2705112E-03)
 number of electron      56.0000001 magnetization       5.8773960
 augmentation part       -2.7643856 magnetization       4.1464591

 Broyden mixing:
  rms(total) = 0.21075E-01    rms(broyden)= 0.21075E-01
  rms(prec ) = 0.22827E-01
  weight for this iteration     100.00

 eigenvalues of (default mixing * dielectric matrix)
  average eigenvalue GAMMA=   1.1518
  2.6695  2.6695  1.6222  0.9891  0.2004  0.7537  0.6721  0.4459  0.3442

 Free energy of the ion-electron system (eV)
  ---------------------------------------------------
  alpha Z        PSCENC =        12.70886290
  Ewald energy   TEWEN  =      5985.89955237
  -Hartree energ DENC   =     -7857.58084361
  -exchange      EXHF   =         0.00000000
  -V(xc)+E(xc)   XCENC  =      -229.07029837
  PAW double counting   =      1223.95462168     -910.26927362
  entropy T*S    EENTRO =         0.00000000
  eigenvalues    EBANDS =      -380.60744471
  atomic energy  EATOM  =      2112.17225906
  Solvation  Ediel_sol  =         0.00000000
  ---------------------------------------------------
  free energy    TOTEN  =       -42.79256431 eV

  energy without entropy =      -42.79256431  energy(sigma->0) =      -42.79256431


--------------------------------------------------------------------------------------------------------




--------------------------------------- Iteration      1(  15)  ---------------------------------------


    POTLOK:  cpu time  102.7840: real time  103.3740
    SETDIJ:  cpu time    0.0720: real time    0.0721
     EDDAV:  cpu time   24.2960: real time   24.4526
 BZINTS: Fermi energy: -2.349739; 56.000000 electrons
         Band energy:-380.336786;  BLOECHL correction:  0.000000
       DOS:  cpu time    0.0000: real time    0.0020
    CHARGE:  cpu time    2.0160: real time    2.0335
    MIXING:  cpu time    0.0760: real time    0.0745
    --------------------------------------------
      LOOP:  cpu time  129.2440: real time  130.0085

 eigenvalue-minimisations  :   984
 total energy-change (2. order) :-0.3054429E-02  (-0.1852020E-03)
 number of electron      56.0000001 magnetization       5.9030925
 augmentation part       -2.7599234 magnetization       4.1795361

 Broyden mixing:
  rms(total) = 0.11243E-01    rms(broyden)= 0.11243E-01
  rms(prec ) = 0.13083E-01
  weight for this iteration     100.00

 eigenvalues of (default mixing * dielectric matrix)
  average eigenvalue GAMMA=   1.1911
  2.7313  2.7313  2.0393  0.2004  1.0888  0.9641  0.4458  0.7293  0.6406  0.3405

 Free energy of the ion-electron system (eV)
  ---------------------------------------------------
  alpha Z        PSCENC =        12.70886290
  Ewald energy   TEWEN  =      5985.89955237
  -Hartree energ DENC   =     -7857.89196894
  -exchange      EXHF   =         0.00000000
  -V(xc)+E(xc)   XCENC  =      -229.01077671
  PAW double counting   =      1223.81902377     -910.15578525
  entropy T*S    EENTRO =         0.00000000
  eigenvalues    EBANDS =      -380.33678594
  atomic energy  EATOM  =      2112.17225906
  Solvation  Ediel_sol  =         0.00000000
  ---------------------------------------------------
  free energy    TOTEN  =       -42.79561874 eV

  energy without entropy =      -42.79561874  energy(sigma->0) =      -42.79561874


--------------------------------------------------------------------------------------------------------




--------------------------------------- Iteration      1(  16)  ---------------------------------------


    POTLOK:  cpu time  103.0160: real time  103.7202
    SETDIJ:  cpu time    0.0680: real time    0.0695
     EDDAV:  cpu time   21.7120: real time   21.8662
 BZINTS: Fermi energy: -2.339417; 56.000000 electrons
         Band energy:-379.917857;  BLOECHL correction:  0.000000
       DOS:  cpu time    0.0040: real time    0.0030
    CHARGE:  cpu time    2.1680: real time    2.1690
    MIXING:  cpu time    0.0560: real time    0.0583
    --------------------------------------------
      LOOP:  cpu time  127.0240: real time  127.8862

 eigenvalue-minimisations  :   856
 total energy-change (2. order) :-0.2865310E-02  (-0.4584110E-04)
 number of electron      56.0000001 magnetization       5.9564393
 augmentation part       -2.7529240 magnetization       4.2385995

 Broyden mixing:
  rms(total) = 0.76296E-02    rms(broyden)= 0.76296E-02
  rms(prec ) = 0.96776E-02
  weight for this iteration     100.00

 eigenvalues of (default mixing * dielectric matrix)
  average eigenvalue GAMMA=   1.2870
  3.1138  3.1138  1.8852  1.8852  0.2004  0.9156  0.9156  0.4458  0.6961  0.6460
  0.3394

 Free energy of the ion-electron system (eV)
  ---------------------------------------------------
  alpha Z        PSCENC =        12.70886290
  Ewald energy   TEWEN  =      5985.89955237
  -Hartree energ DENC   =     -7858.33035222
  -exchange      EXHF   =         0.00000000
  -V(xc)+E(xc)   XCENC  =      -228.98668093
  PAW double counting   =      1224.03166098     -910.37592883
  entropy T*S    EENTRO =         0.00000000
  eigenvalues    EBANDS =      -379.91785738
  atomic energy  EATOM  =      2112.17225906
  Solvation  Ediel_sol  =         0.00000000
  ---------------------------------------------------
  free energy    TOTEN  =       -42.79848405 eV

  energy without entropy =      -42.79848405  energy(sigma->0) =      -42.79848405


--------------------------------------------------------------------------------------------------------




--------------------------------------- Iteration      1(  17)  ---------------------------------------


    POTLOK:  cpu time  102.1080: real time  102.5650
    SETDIJ:  cpu time    0.0720: real time    0.0733
     EDDAV:  cpu time   20.9480: real time   21.1097
 BZINTS: Fermi energy: -2.314650; 56.000000 electrons
         Band energy:-378.826156;  BLOECHL correction:  0.000000
       DOS:  cpu time    0.0040: real time    0.0019
    CHARGE:  cpu time    2.0320: real time    2.0373
    MIXING:  cpu time    0.0800: real time    0.0788
    --------------------------------------------
      LOOP:  cpu time  125.2440: real time  125.8659

 eigenvalue-minimisations  :   800
 total energy-change (2. order) : 0.6447519E-03  (-0.7658267E-04)
 number of electron      56.0000001 magnetization       5.9951388
 augmentation part       -2.7479454 magnetization       4.2803759

 Broyden mixing:
  rms(total) = 0.51532E-02    rms(broyden)= 0.51532E-02
  rms(prec ) = 0.73733E-02
  weight for this iteration     100.00

 eigenvalues of (default mixing * dielectric matrix)
  average eigenvalue GAMMA=   1.5275
  5.9332  2.9021  2.1756  2.1756  1.0342  1.0342  0.2004  0.4458  0.7652  0.6996
  0.6252  0.3390

 Free energy of the ion-electron system (eV)
  ---------------------------------------------------
  alpha Z        PSCENC =        12.70886290
  Ewald energy   TEWEN  =      5985.89955237
  -Hartree energ DENC   =     -7859.43076317
  -exchange      EXHF   =         0.00000000
  -V(xc)+E(xc)   XCENC  =      -228.97029944
  PAW double counting   =      1224.18725607     -910.53855112
  entropy T*S    EENTRO =         0.00000000
  eigenvalues    EBANDS =      -378.82615596
  atomic energy  EATOM  =      2112.17225906
  Solvation  Ediel_sol  =         0.00000000
  ---------------------------------------------------
  free energy    TOTEN  =       -42.79783930 eV

  energy without entropy =      -42.79783930  energy(sigma->0) =      -42.79783930


--------------------------------------------------------------------------------------------------------




--------------------------------------- Iteration      1(  18)  ---------------------------------------


    POTLOK:  cpu time  102.3080: real time  102.6964
    SETDIJ:  cpu time    0.0720: real time    0.0693
     EDDAV:  cpu time   21.5080: real time   21.6809
 BZINTS: Fermi energy: -2.283169; 56.000000 electrons
         Band energy:-377.859962;  BLOECHL correction:  0.000000
       DOS:  cpu time    0.0040: real time    0.0024
    CHARGE:  cpu time    2.0160: real time    2.0392
    MIXING:  cpu time    0.0680: real time    0.0702
    --------------------------------------------
      LOOP:  cpu time  125.9760: real time  126.5584

 eigenvalue-minimisations  :   824
 total energy-change (2. order) : 0.1096825E-02  (-0.1711909E-03)
 number of electron      56.0000001 magnetization       6.0066957
 augmentation part       -2.7475573 magnetization       4.2919190

 Broyden mixing:
  rms(total) = 0.33234E-02    rms(broyden)= 0.33234E-02
  rms(prec ) = 0.55104E-02
  weight for this iteration     100.00

 eigenvalues of (default mixing * dielectric matrix)
  average eigenvalue GAMMA=   1.6226
  7.4941  2.9346  2.1436  2.1436  1.4282  0.2004  0.9591  0.9591  0.4458  0.7477
  0.6803  0.6190  0.3390

 Free energy of the ion-electron system (eV)
  ---------------------------------------------------
  alpha Z        PSCENC =        12.70886290
  Ewald energy   TEWEN  =      5985.89955237
  -Hartree energ DENC   =     -7860.39972624
  -exchange      EXHF   =         0.00000000
  -V(xc)+E(xc)   XCENC  =      -228.96601745
  PAW double counting   =      1224.34348706     -910.69519819
  entropy T*S    EENTRO =         0.00000000
  eigenvalues    EBANDS =      -377.85996197
  atomic energy  EATOM  =      2112.17225906
  Solvation  Ediel_sol  =         0.00000000
  ---------------------------------------------------
  free energy    TOTEN  =       -42.79674247 eV

  energy without entropy =      -42.79674247  energy(sigma->0) =      -42.79674247


--------------------------------------------------------------------------------------------------------




--------------------------------------- Iteration      1(  19)  ---------------------------------------


    POTLOK:  cpu time  101.5480: real time  102.2751
    SETDIJ:  cpu time    0.0720: real time    0.0730
     EDDAV:  cpu time   20.7840: real time   20.8566
 BZINTS: Fermi energy: -2.304425; 56.000000 electrons
         Band energy:-377.416685;  BLOECHL correction:  0.000000
       DOS:  cpu time    0.0000: real time    0.0011
    --------------------------------------------
      LOOP:  cpu time  122.4040: real time  123.2058

 eigenvalue-minimisations  :   792
 total energy-change (2. order) : 0.5983776E-04  (-0.1570629E-04)
 number of electron      56.0000001 magnetization       6.0066957
 augmentation part       -2.7475573 magnetization       4.2919190

 Free energy of the ion-electron system (eV)
  ---------------------------------------------------
  alpha Z        PSCENC =        12.70886290
  Ewald energy   TEWEN  =      5985.89955237
  -Hartree energ DENC   =     -7860.85080792
  -exchange      EXHF   =         0.00000000
  -V(xc)+E(xc)   XCENC  =      -228.96370724
  PAW double counting   =      1224.27174871     -910.61790591
  entropy T*S    EENTRO =         0.00000000
  eigenvalues    EBANDS =      -377.41668459
  atomic energy  EATOM  =      2112.17225906
  Solvation  Ediel_sol  =         0.00000000
  ---------------------------------------------------
  free energy    TOTEN  =       -42.79668263 eV

  energy without entropy =      -42.79668263  energy(sigma->0) =      -42.79668263


--------------------------------------------------------------------------------------------------------




 average (electrostatic) potential at core
  the test charge radii are     1.1394  1.1631  0.9892  1.1897
  (the norm of the test charge is              1.0000)
       1 -50.7319       2 -50.7322       3 -39.1416       4 -92.3552       5 -96.5019
       6 -96.5019       7 -96.5019       8 -96.4953       9 -96.4953      10 -96.4953



 E-fermi :  -2.3044     XC(G=0):  -3.5424     alpha+bet : -3.0726


 spin component 1

 k-point     1 :       0.0000    0.0000    0.0000
  band No.  band energies     occupation 
      1     -14.6449      1.00000
      2     -13.7577      1.00000
      3     -12.7660      1.00000
      4     -12.7659      1.00000
      5     -12.7023      1.00000
      6     -12.7022      1.00000
      7     -10.7578      1.00000
      8      -8.6271      1.00000
      9      -6.7004      1.00000
     10      -6.6385      1.00000
     11      -6.6385      1.00000
     12      -6.5263      1.00000
     13      -6.2239      1.00000
     14      -6.2239      1.00000
     15      -5.4282      1.00000
     16      -4.5941      1.00000
     17      -4.5941      1.00000
     18      -4.2937      1.00000
     19      -4.2936      1.00000
     20      -4.1598      1.00000
     21      -3.6087      1.00000
     22      -3.6087      1.00000
     23      -3.5982      1.00000
     24      -3.3394      1.00000
     25      -3.3394      1.00000
     26      -3.3269      1.00000
     27      -3.2547      1.00000
     28      -3.2547      1.00000
     29      -2.9564      1.00000
     30      -2.3138      1.00000
     31      -2.3138      1.00000
     32      -1.2609      0.00000
     33      -1.2609      0.00000
     34      -0.6720      0.00000
     35      -0.5620      0.00000
     36      -0.5620      0.00000
     37      -0.4135      0.00000
     38       0.9308      0.00000
     39       0.9308      0.00000
     40       1.6411      0.00000

 k-point     2 :       0.2000    0.0000    0.0000
  band No.  band energies     occupation 
      1     -14.5210      1.00000
      2     -13.6648      1.00000
      3     -13.0018      1.00000
      4     -12.8629      1.00000
      5     -12.7956      1.00000
      6     -12.7506      1.00000
      7     -10.6010      1.00000
      8      -8.6856      1.00000
      9      -6.8449      1.00000
     10      -6.6344      1.00000
     11      -6.4522      1.00000
     12      -6.1968      1.00000
     13      -5.8300      1.00000
     14      -5.6917      1.00000
     15      -5.2129      1.00000
     16      -4.7468      1.00000
     17      -4.7335      1.00000
     18      -4.5844      1.00000
     19      -4.1608      1.00000
     20      -4.0580      1.00000
     21      -3.9414      1.00000
     22      -3.9245      1.00000
     23      -3.4964      1.00000
     24      -3.4918      1.00000
     25      -3.4167      1.00000
     26      -3.3239      1.00000
     27      -3.2172      1.00000
     28      -3.1823      1.00000
     29      -3.1246      1.00000
     30      -2.7529      1.00000
     31      -2.5438      1.00000
     32      -1.4748      0.00000
     33      -1.1723      0.00000
     34      -1.1069      0.00000
     35      -0.8185      0.00000
     36      -0.0952      0.00000
     37       0.0935      0.00000
     38       0.9329      0.00000
     39       0.9834      0.00000
     40       1.7922      0.00000

 k-point     3 :       0.4000    0.0000    0.0000
  band No.  band energies     occupation 
      1     -14.1883      1.00000
      2     -13.5386      1.00000
      3     -13.4053      1.00000
      4     -13.0225      1.00000
      5     -12.9260      1.00000
      6     -12.8988      1.00000
      7     -10.3756      1.00000
      8      -8.7234      1.00000
      9      -6.6830      1.00000
     10      -6.4661      1.00000
     11      -6.0402      1.00000
     12      -5.6036      1.00000
     13      -5.2569      1.00000
     14      -5.1985      1.00000
     15      -5.1829      1.00000
     16      -5.0502      1.00000
     17      -4.8450      1.00000
     18      -4.8244      1.00000
     19      -4.4333      1.00000
     20      -4.3576      1.00000
     21      -4.3156      1.00000
     22      -3.8199      1.00000
     23      -3.6692      1.00000
     24      -3.6615      1.00000
     25      -3.4489      1.00000
     26      -3.3696      1.00000
     27      -3.3502      1.00000
     28      -3.0596      1.00000
     29      -3.0045      1.00000
     30      -2.9437      1.00000
     31      -2.8939      1.00000
     32      -1.4916      0.00000
     33      -1.3765      0.00000
     34      -1.1286      0.00000
     35      -0.9763      0.00000
     36      -0.4291      0.00000
     37      -0.1771      0.00000
     38       0.7780      0.00000
     39       1.3603      0.00000
     40       1.5245      0.00000

 k-point     4 :       0.4000    0.2000    0.0000
  band No.  band energies     occupation 
      1     -14.2886      1.00000
      2     -13.5019      1.00000
      3     -13.2532      1.00000
      4     -13.1432      1.00000
      5     -12.9095      1.00000
      6     -12.8247      1.00000
      7     -10.3932      1.00000
      8      -8.6998      1.00000
      9      -6.8664      1.00000
     10      -6.3800      1.00000
     11      -6.2327      1.00000
     12      -5.8095      1.00000
     13      -5.2364      1.00000
     14      -5.1739      1.00000
     15      -5.0890      1.00000
     16      -5.0180      1.00000
     17      -4.9371      1.00000
     18      -4.7096      1.00000
     19      -4.6071      1.00000
     20      -4.3087      1.00000
     21      -4.2596      1.00000
     22      -3.7676      1.00000
     23      -3.5581      1.00000
     24      -3.5494      1.00000
     25      -3.4446      1.00000
     26      -3.3439      1.00000
     27      -3.2917      1.00000
     28      -3.1781      1.00000
     29      -3.0242      1.00000
     30      -2.8727      1.00000
     31      -2.7732      1.00000
     32      -1.7445      0.00000
     33      -1.1126      0.00000
     34      -1.0938      0.00000
     35      -0.8148      0.00000
     36      -0.4416      0.00000
     37      -0.1507      0.00000
     38       0.8362      0.00000
     39       0.8710      0.00000
     40       1.5361      0.00000

[...]
     18      -4.3118      1.00000
     19      -4.2951      1.00000
     20      -3.8359      1.00000
     21      -3.5686      1.00000
     22      -3.3345      1.00000
     23      -3.2503      1.00000
     24      -2.9536      1.00000
     25      -2.8454      1.00000
     26      -1.4185      0.00000
     27      -0.8554      0.00000
     28      -0.7491      0.00000
     29      -0.6457      0.00000
     30      -0.3679      0.00000
     31      -0.3015      0.00000
     32      -0.2642      0.00000
     33       0.0853      0.00000
     34       0.2855      0.00000
     35       0.3196      0.00000
     36       0.4093      0.00000
     37       0.7330      0.00000
     38       1.1571      0.00000
     39       1.2000      0.00000
     40       1.9213      0.00000

 k-point     5 :      -0.4000    0.2000    0.0000
  band No.  band energies     occupation 
      1     -14.0018      1.00000
      2     -13.5849      1.00000
      3     -13.2836      1.00000
      4     -13.2103      1.00000
      5     -13.0523      1.00000
      6     -12.8861      1.00000
      7     -10.1844      1.00000
      8      -8.4979      1.00000
      9      -6.4271      1.00000
     10      -6.0228      1.00000
     11      -5.9163      1.00000
     12      -5.5264      1.00000
     13      -5.3440      1.00000
     14      -5.0448      1.00000
     15      -4.6551      1.00000
     16      -4.4661      1.00000
     17      -4.2793      1.00000
     18      -4.1700      1.00000
     19      -4.0037      1.00000
     20      -3.8918      1.00000
     21      -3.6479      1.00000
     22      -3.3016      1.00000
     23      -3.1608      1.00000
     24      -3.1474      1.00000
     25      -3.0542      1.00000
     26      -1.7633      0.00000
     27      -0.9964      0.00000
     28      -0.8899      0.00000
     29      -0.8776      0.00000
     30      -0.3669      0.00000
     31      -0.3021      0.00000
     32      -0.2956      0.00000
     33       0.0651      0.00000
     34       0.0836      0.00000
     35       0.4393      0.00000
     36       0.5149      0.00000
     37       0.6943      0.00000
     38       0.8650      0.00000
     39       1.2274      0.00000
     40       1.7409      0.00000


--------------------------------------------------------------------------------------------------------


 soft charge-density along one line, spin component           1
         0         1         2         3         4         5         6         7         8         9
 total charge-density along one line

 soft charge-density along one line, spin component           2
         0         1         2         3         4         5         6         7         8         9
 total charge-density along one line

 pseudopotential strength for first ion, spin component:           1
 -8.488   0.091  -0.000  -0.000  -0.000   0.601  -0.025   0.000
  0.091  -8.417   0.000  -0.000  -0.000  -0.025   0.581  -0.000
 -0.000   0.000  -8.568   0.000   0.000   0.000  -0.000   0.622
 -0.000  -0.000   0.000  -8.417  -0.091   0.000   0.000  -0.000
 -0.000  -0.000   0.000  -0.091  -8.488   0.000   0.000  -0.000
  0.601  -0.025   0.000   0.000   0.000   0.386   0.006  -0.000
 -0.025   0.581  -0.000   0.000   0.000   0.006   0.391   0.000
  0.000  -0.000   0.622  -0.000  -0.000  -0.000   0.000   0.380
  0.000   0.000  -0.000   0.581   0.025  -0.000  -0.000   0.000
  0.000   0.000  -0.000   0.025   0.601  -0.000  -0.000   0.000
  0.000  -0.000   0.001  -0.000   0.000  -0.000   0.000  -0.000
 -0.000   0.000  -0.000   0.000  -0.000   0.000  -0.000   0.000
  0.000   0.000   0.000  -0.000   0.001   0.000  -0.000  -0.000
 -0.000  -0.000   0.000  -0.000  -0.000   0.000   0.000  -0.000
  0.001  -0.000   0.000   0.000  -0.000  -0.000   0.000  -0.000
 -0.000  -0.000  -0.000   0.000  -0.001  -0.000   0.000   0.000
  0.000   0.000  -0.000   0.000   0.000  -0.000  -0.000   0.000
 -0.001   0.000  -0.000  -0.000   0.000   0.000  -0.000   0.000
 pseudopotential strength for first ion, spin component:           2
 -6.829  -0.167  -0.000   0.000  -0.000   0.132   0.044   0.000
 -0.167  -6.999   0.000  -0.000   0.000   0.044   0.176  -0.000
 -0.000   0.000  -6.722   0.000   0.000   0.000  -0.000   0.104
  0.000  -0.000   0.000  -6.999   0.167  -0.000   0.000  -0.000
 -0.000   0.000   0.000   0.167  -6.829   0.000  -0.000  -0.000
  0.132   0.044   0.000  -0.000   0.000   0.514  -0.011  -0.000
  0.044   0.176  -0.000   0.000  -0.000  -0.011   0.503   0.000
  0.000  -0.000   0.104  -0.000  -0.000  -0.000   0.000   0.521
 -0.000   0.000  -0.000   0.176  -0.044   0.000  -0.000   0.000
  0.000  -0.000  -0.000  -0.044   0.132  -0.000   0.000   0.000
 -0.000  -0.000   0.006  -0.000   0.000  -0.000   0.000  -0.001
  0.000   0.000  -0.001   0.000  -0.000  -0.000  -0.000   0.000
 -0.000   0.000   0.000  -0.000   0.001   0.000  -0.000  -0.000
 -0.000  -0.000   0.000  -0.000   0.000   0.000   0.000  -0.000
  0.001  -0.000   0.000   0.000   0.000   0.000   0.000  -0.000
  0.000  -0.000  -0.000   0.000  -0.001  -0.000   0.000   0.000
  0.000   0.000  -0.000   0.000  -0.000  -0.000  -0.000   0.000
 -0.001   0.000  -0.000  -0.000  -0.000   0.000  -0.000   0.000
 total augmentation occupancy for first ion, spin component:           1
  0.983  -0.033   0.000   0.000  -0.000   0.032   0.196  -0.000  -0.000   0.000  -0.000  -0.000  -0.001   0.000   0.007  -0.000
 -0.033   0.939  -0.000  -0.000   0.000   0.195   0.229   0.000   0.000  -0.000   0.000  -0.000  -0.000   0.000   0.002   0.000
  0.000  -0.000   1.027  -0.000  -0.000  -0.000   0.000  -0.101   0.000   0.000  -0.004  -0.011  -0.000   0.001   0.000  -0.000
  0.000  -0.000  -0.000   0.939   0.033  -0.000  -0.000   0.000   0.229  -0.195  -0.000  -0.000  -0.002  -0.000  -0.000  -0.000
 -0.000   0.000  -0.000   0.033   0.983  -0.000  -0.000   0.000  -0.196   0.032   0.000   0.000   0.007  -0.000   0.001   0.000
  0.032   0.195  -0.000  -0.000  -0.000   0.127   0.060   0.000  -0.000  -0.000   0.000  -0.000   0.000   0.000   0.018   0.000
  0.196   0.229   0.000  -0.000  -0.000   0.060   0.195   0.000  -0.000  -0.000  -0.000   0.000   0.001   0.000  -0.004   0.000
 -0.000   0.000  -0.101   0.000   0.000   0.000   0.000   0.123   0.000  -0.000   0.046  -0.009  -0.000   0.001   0.000   0.000
 -0.000   0.000   0.000   0.229  -0.196  -0.000  -0.000   0.000   0.195  -0.060   0.000   0.000   0.004  -0.000   0.001  -0.000
  0.000  -0.000   0.000  -0.195   0.032  -0.000  -0.000  -0.000  -0.060   0.127  -0.000   0.000   0.018  -0.000  -0.000  -0.001
 -0.000   0.000  -0.004  -0.000   0.000   0.000   0.000   0.046   0.000  -0.000   1.053  -0.142   0.000  -0.000   0.000   0.000
 -0.000  -0.000  -0.011  -0.000   0.000  -0.000   0.000  -0.009   0.000   0.000  -0.142   0.051   0.000  -0.000   0.000   0.000
 -0.001  -0.000  -0.000  -0.002   0.007   0.000   0.001  -0.000   0.004   0.018   0.000   0.000   0.204   0.000  -0.000  -0.001
  0.000  -0.000   0.001   0.000  -0.000   0.000   0.000   0.001  -0.000  -0.000  -0.000  -0.000   0.000   0.218   0.000   0.000
  0.007   0.002   0.000  -0.000   0.001   0.018  -0.004   0.000   0.001  -0.000  -0.000   0.000  -0.000   0.000   0.204   0.000
 -0.000   0.000  -0.000  -0.000   0.000   0.000   0.000   0.000  -0.000  -0.001   0.000   0.000  -0.001   0.000   0.000   0.000
  0.000  -0.000   0.000  -0.000  -0.000  -0.000   0.000  -0.000   0.000   0.000   0.000  -0.000  -0.000  -0.002   0.000   0.000
  0.000   0.000   0.000   0.000   0.000  -0.001   0.000  -0.000   0.000  -0.000   0.000  -0.000  -0.000   0.000  -0.001  -0.000
 total augmentation occupancy for first ion, spin component:           2
  0.730  -0.284   0.000   0.000  -0.000  -0.140   0.044  -0.000  -0.000   0.000  -0.000  -0.000  -0.000  -0.000  -0.001  -0.000
 -0.284   0.458  -0.000  -0.000   0.000   0.041  -0.090   0.000  -0.000  -0.000  -0.000  -0.000  -0.000  -0.000   0.005   0.000
  0.000  -0.000   0.918  -0.000  -0.000  -0.000   0.000  -0.195   0.000   0.000  -0.029  -0.003   0.000  -0.000  -0.000  -0.000
  0.000  -0.000  -0.000   0.458   0.284  -0.000   0.000   0.000  -0.090  -0.041  -0.000  -0.000  -0.005  -0.000  -0.000   0.000
 -0.000   0.000  -0.000   0.284   0.730  -0.000  -0.000   0.000  -0.044  -0.140   0.000   0.000  -0.001   0.000   0.000   0.001
 -0.140   0.041  -0.000  -0.000  -0.000  -0.004  -0.047   0.000   0.000  -0.000   0.000   0.000   0.000   0.000  -0.001   0.000
  0.044  -0.090   0.000   0.000  -0.000  -0.047  -0.047  -0.000   0.000   0.000   0.000   0.000   0.000   0.000  -0.001  -0.000
 -0.000   0.000  -0.195   0.000   0.000   0.000  -0.000   0.038  -0.000  -0.000   0.009   0.004   0.000   0.000  -0.000  -0.000
 -0.000  -0.000   0.000  -0.090  -0.044   0.000   0.000  -0.000  -0.047   0.047   0.000   0.000   0.001   0.000   0.000  -0.000
  0.000  -0.000   0.000  -0.041  -0.140  -0.000   0.000  -0.000   0.047  -0.004  -0.000  -0.000  -0.001  -0.000  -0.000   0.000
 -0.000   0.000  -0.029  -0.000   0.000   0.000   0.000   0.009   0.000  -0.000   0.179   0.065   0.000  -0.000  -0.000   0.000
 -0.000  -0.000  -0.003  -0.000   0.000   0.000   0.000   0.004   0.000  -0.000   0.065  -0.017   0.000  -0.000   0.000   0.000
 -0.000  -0.000   0.000  -0.005  -0.001   0.000   0.000   0.000   0.001  -0.001   0.000  -0.000   0.030   0.000  -0.000   0.003
 -0.000  -0.000  -0.000  -0.000   0.000   0.000   0.000   0.000   0.000  -0.000  -0.000  -0.000   0.000   0.023   0.000   0.000
 -0.001   0.005  -0.000  -0.000   0.000  -0.001  -0.001  -0.000   0.000  -0.000   0.000   0.000  -0.000   0.000   0.030   0.000
 -0.000   0.000  -0.000   0.000   0.001   0.000  -0.000  -0.000  -0.000   0.000   0.000   0.000   0.003   0.000   0.000   0.000
  0.000   0.000   0.000  -0.000  -0.000  -0.000   0.000  -0.000  -0.000   0.000  -0.000  -0.000   0.000   0.003   0.000   0.000
  0.001  -0.000   0.000   0.000   0.000   0.000   0.000   0.000  -0.000  -0.000  -0.000   0.000  -0.000   0.000   0.003  -0.000


------------------------ aborting loop because EDIFF is reached ----------------------------------------





 total charge     

# of ion       s       p       d       tot
------------------------------------------
    1        0.337   0.418   4.249   5.004
    2        0.337   0.418   4.248   5.003
    3        1.165   1.162   0.079   2.405
    4        0.792   0.790   0.000   1.581
    5        1.389   1.976   0.035   3.400
    6        1.384   1.978   0.034   3.396
    7        1.388   1.974   0.034   3.397
    8        1.392   1.981   0.035   3.408
    9        1.386   1.979   0.034   3.399
   10        1.391   1.978   0.034   3.403
--------------------------------------------------
tot         10.961  14.654   8.782  34.397



 magnetization (x)

# of ion       s       p       d       tot
------------------------------------------
    1        0.042   0.047   3.020   3.109
    2        0.042   0.047   3.019   3.109
    3        0.003   0.043  -0.003   0.043
    4        0.003   0.034   0.000   0.037
    5       -0.001  -0.095   0.005  -0.091
    6       -0.002  -0.083   0.006  -0.079
    7       -0.001  -0.091   0.005  -0.087
    8       -0.001  -0.099   0.005  -0.096
    9       -0.002  -0.085   0.006  -0.081
   10       -0.001  -0.095   0.005  -0.091
--------------------------------------------------
tot          0.081  -0.375   6.069   5.774

    CHARGE:  cpu time    1.9920: real time    1.9997
    FORLOC:  cpu time    0.1200: real time    0.1195
    FORNL :  cpu time    6.1400: real time    6.1527
    STRESS:  cpu time   18.5920: real time   18.7168
    FORCOR:  cpu time   97.1920: real time   98.1131
    FORHAR:  cpu time    0.4440: real time    0.4453
    MIXING:  cpu time    0.0520: real time    0.0524
    OFIELD:  cpu time    0.0000: real time    0.0001

  FORCE on cell =-STRESS in cart. coord.  units (eV):
  Direction    XX          YY          ZZ          XY          YZ          ZX
  --------------------------------------------------------------------------------------
  Alpha Z    12.92798    12.92798    12.92798
  Ewald    7478.64350  7478.64154 -8920.20802    -0.00107    -0.00038    -0.00069
  Hartree  7777.45389  7777.45429 -7637.56451    -0.00004     0.00005     0.00008
  E(xc)    -223.69622  -223.69620  -223.51997     0.00002     0.00002     0.00002
  Local  -16101.69739-16101.69665 15682.59964     0.00086     0.00024     0.00044
  n-local   702.37794   704.29055   714.68065     0.81850     0.85899     0.95043
  augment  -103.78541  -103.78531  -110.04745     0.00002    -0.00003     0.00005
  Kinetic   459.68108   453.77069   481.20022    -4.29485     0.71352     0.73457
  Fock        0.00000     0.00000     0.00000     0.00000     0.00000     0.00000
  -------------------------------------------------------------------------------------
  Total      -0.09387    -0.09387     0.06854     0.00000    -0.00000     0.00000
  in kB      -0.15792    -0.15792     0.11530     0.00000    -0.00000     0.00000
  external pressure =       -0.07 kB  Pullay stress =        0.00 kB


 VOLUME and BASIS-vectors are now :
 -----------------------------------------------------------------------------
  energy-cutoff  :      520.00
  volume of cell :      952.41
      direct lattice vectors                 reciprocal lattice vectors
     6.865799567 -0.000000046  0.000000000     0.145649460 -0.084090749 -0.000000000
     3.432899333  5.945956461  0.000000000     0.000000001  0.168181520 -0.000000000
     0.000000000  0.000000000 23.329897876    -0.000000000 -0.000000000  0.042863454

  length of vectors
     6.865799567  6.865799011 23.329897876     0.168181506  0.168181520  0.042863454


 FORCES acting on ions
    electron-ion (+dipol)            ewald-force                    non-local-force                 convergence-correction
 -----------------------------------------------------------------------------------------------
   -.258E-04 -.151E-04 0.231E+00   0.309E-03 0.185E-03 -.295E+00   -.693E-17 0.139E-16 0.322E-01   0.155E-07 -.327E-08 -.182E-02
   0.285E-04 0.190E-04 -.106E+01   -.309E-03 -.185E-03 0.999E+00   0.110E-19 0.139E-16 0.349E-01   -.808E-07 -.627E-07 -.153E-02
   -.248E-04 -.257E-04 0.163E+03   -.143E-03 -.789E-04 -.160E+03   -.699E-18 -.746E-17 -.223E+01   0.129E-08 -.174E-07 0.594E-02
   0.285E-04 0.277E-04 -.162E+03   0.141E-03 0.777E-04 0.158E+03   0.136E-17 0.149E-16 0.434E+01   0.138E-07 -.308E-07 0.116E-02
   -.836E+01 0.170E+00 -.343E+03   0.470E+01 -.154E+00 0.347E+03   0.419E+01 -.133E-01 -.449E+01   -.545E-02 -.962E-02 -.294E-01
   0.433E+01 0.716E+01 -.343E+03   -.248E+01 -.399E+01 0.347E+03   -.211E+01 -.362E+01 -.449E+01   -.560E-02 0.953E-02 -.294E-01
   0.403E+01 -.733E+01 -.343E+03   -.221E+01 0.414E+01 0.347E+03   -.208E+01 0.364E+01 -.449E+01   0.111E-01 0.844E-04 -.294E-01
   0.815E+01 -.150E+00 0.342E+03   -.432E+01 0.154E+00 -.347E+03   -.368E+01 0.140E-01 0.442E+01   0.929E-02 -.955E-02 0.331E-01
   -.420E+01 -.698E+01 0.342E+03   0.229E+01 0.366E+01 -.347E+03   0.185E+01 0.318E+01 0.442E+01   -.129E-01 -.327E-02 0.331E-01
   -.394E+01 0.713E+01 0.342E+03   0.203E+01 -.381E+01 -.347E+03   0.183E+01 -.319E+01 0.442E+01   0.363E-02 0.128E-01 0.331E-01
 -----------------------------------------------------------------------------------------------
   0.385E-04 -.829E-05 -.199E+01   -.844E-14 0.115E-13 0.000E+00   0.222E-15 0.000E+00 0.198E+01   -.742E-07 -.124E-06 0.148E-01


 POSITION                                       TOTAL-FORCE (eV/Angst)
 -----------------------------------------------------------------------------------
      3.43290      1.98198     11.66320         0.000000     -0.000000     -0.034398
      6.86580      3.96397     11.66670         0.000000     -0.000000     -0.025636
      0.00000      0.00000     10.45683         0.000000      0.000000      0.420966
      0.00000      0.00000     12.84811         0.000000      0.000000      0.015820
      4.30188      0.00250     13.38558         0.519284     -0.006288      0.012576
      1.28412      2.21917     13.38558        -0.265088     -0.446569      0.012576
      4.71270      3.72429     13.38558        -0.254196      0.452858      0.012576
      5.99682      5.94346      9.94432         0.161962      0.007025     -0.138160
      9.01457      3.72678      9.94432        -0.074897     -0.143775     -0.138160
      5.58600      2.22166      9.94432        -0.087065      0.136750     -0.138160
 -----------------------------------------------------------------------------------
    total drift:                                0.000038     -0.000008      0.004560


--------------------------------------------------------------------------------------------------------



  FREE ENERGIE OF THE ION-ELECTRON SYSTEM (eV)
  ---------------------------------------------------
  free  energy   TOTEN  =       -42.81502023 eV

  energy  without entropy=      -42.81502023  energy(sigma->0) =      -42.81502023

 d Force = 0.1560332E-03[-0.976E-04, 0.410E-03]  d Energy = 0.2596888E-03-0.104E-03
 d Force =-0.9762887E+00[-0.975E+00,-0.978E+00]  d Ewald  = 0.6280211E+01-0.726E+01


--------------------------------------------------------------------------------------------------------


    POTLOK:  cpu time   98.6200: real time   99.0671


--------------------------------------------------------------------------------------------------------




--------------------------------------------------------------------------------------------------------


  
 reached required accuracy - stopping structural energy minimisation
     LOOP+:  cpu time  482.0960: real time  485.7061
    4ORBIT:  cpu time    0.0000: real time    0.0000



 total charge     

# of ion       s       p       d       tot
------------------------------------------
    1        0.337   0.418   4.249   5.004
    2        0.337   0.418   4.248   5.003
    3        1.165   1.162   0.079   2.405
    4        0.792   0.790   0.000   1.581
    5        1.389   1.976   0.035   3.400
    6        1.384   1.978   0.034   3.396
    7        1.388   1.974   0.034   3.397
    8        1.392   1.981   0.035   3.408
    9        1.386   1.979   0.034   3.399
   10        1.391   1.978   0.034   3.403
--------------------------------------------------
tot         10.961  14.654   8.782  34.397



 magnetization (x)

# of ion       s       p       d       tot
------------------------------------------
    1        0.042   0.047   3.020   3.109
    2        0.042   0.047   3.019   3.109
    3        0.003   0.043  -0.003   0.043
    4        0.003   0.034   0.000   0.037
    5       -0.001  -0.095   0.005  -0.091
    6       -0.002  -0.083   0.006  -0.079
    7       -0.001  -0.091   0.005  -0.087
    8       -0.001  -0.099   0.005  -0.096
    9       -0.002  -0.085   0.006  -0.081
   10       -0.001  -0.095   0.005  -0.091
--------------------------------------------------
tot          0.081  -0.375   6.069   5.774

 BZINTS: Fermi energy: -2.147584; 56.000000 electrons
         Band energy:-372.864539;  BLOECHL correction:  0.000000

 total amount of memory used by VASP MPI-rank0   174392. kBytes
=======================================================================

   base      :      30000. kBytes
   nonlr-proj:       8213. kBytes
   fftplans  :      20284. kBytes
   grid      :      94580. kBytes
   one-center:        311. kBytes
   wavefun   :      21004. kBytes

  
  
 General timing and accounting informations for this job:
 ========================================================
  
                  Total CPU time used (sec):     5382.216
                            User time (sec):     5359.612
                          System time (sec):       22.604
                         Elapsed time (sec):     5418.815
  
                   Maximum memory used (kb):      589564.
                   Average memory used (kb):           0.
  
                          Minor page faults:      6269924
                          Major page faults:            6
                 Voluntary context switches:          791
