 vasp.5.4.4.18Apr17-6-g9f103f2a35 (build May  1 2020 15:48:39) complex           
 executed on             LinuxGNU date 2020.06.29  17:49:22
 running on   16 total cores
 distrk:  each k-point on   16 cores,    1 groups
 distr:  one band on NCORES_PER_BAND=   1 cores,   16 groups


--------------------------------------------------------------------------------------------------------


 INCAR:
 POTCAR:   PAW_PBE Co 06Sep2000                   
 POTCAR:   PAW_PBE Si 05Jan2001                   
 POTCAR:    PAW_PBE P 17Jan2003                   
 POTCAR:    PAW_PBE S 17Jan2003                   

 ----------------------------------------------------------------------------- 
|                                                                             |
|           W    W    AA    RRRRR   N    N  II  N    N   GGGG   !!!           |
|           W    W   A  A   R    R  NN   N  II  NN   N  G    G  !!!           |
|           W    W  A    A  R    R  N N  N  II  N N  N  G       !!!           |
|           W WW W  AAAAAA  RRRRR   N  N N  II  N  N N  G  GGG   !            |
|           WW  WW  A    A  R   R   N   NN  II  N   NN  G    G                |
|           W    W  A    A  R    R  N    N  II  N    N   GGGG   !!!           |
|                                                                             |
|      For optimal performance we recommend to set                            |
|        NCORE= 4 - approx SQRT( number of cores)                             |
|      NCORE specifies how many cores store one orbital (NPAR=cpu/NCORE).     |
|      This setting can  greatly improve the performance of VASP for DFT.     |
|      The default,   NCORE=1            might be grossly inefficient         |
|      on modern multi-core architectures or massively parallel machines.     |
|      Do your own testing !!!!                                               |
|      Unfortunately you need to use the default for GW and RPA calculations. |
|      (for HF NCORE is supported but not extensively tested yet)             |
|                                                                             |
 ----------------------------------------------------------------------------- 


 ----------------------------------------------------------------------------- 
|                                                                             |
|  ADVICE TO THIS USER RUNNING 'VASP/VAMP'   (HEAR YOUR MASTER'S VOICE ...):  |
|                                                                             |
|      You have switched on vdW-DFT.                                          |
|      This routine was written and supplied by Jiri Klimes.                  |
|      We recommed that you carefully read and cite the following             |
|      publication                                                            |
|      J. Klimes, D.R. Bowler, A. Michelides                                  |
|        J. Phys.: Cond Matt. 22 022201 (2010)                                |
|      J. Klimes, D.R. Bowler, A. Michelides                                  |
|        Phys. Rev. B. 83, 195131 (2011)                                      |
|      and references therein.                                                |
|                                                                             |
 ----------------------------------------------------------------------------- 

 POTCAR:   PAW_PBE Co 06Sep2000                   
   VRHFIN =Co: d8 s1                                                            
   LEXCH  = PE                                                                  
   EATOM  =   813.5563 eV,   59.7947 Ry                                         
                                                                                
   TITEL  = PAW_PBE Co 06Sep2000                                                
   LULTRA =        F    use ultrasoft PP ?                                      
   IUNSCR =        1    unscreen: 0-lin 1-nonlin 2-no                           
   RPACOR =    2.000    partial core radius                                     
   POMASS =   58.933; ZVAL   =    9.000    mass and valenz                      
   RCORE  =    2.300    outmost cutoff radius                                   
   RWIGS  =    2.460; RWIGS  =    1.302    wigner-seitz radius (au A)           
   ENMAX  =  267.969; ENMIN  =  200.977 eV                                      
   RCLOC  =    1.697    cutoff for local pot                                    
   LCOR   =        T    correct aug charges                                     
   LPAW   =        T    paw PP                                                  
   EAUG   =  477.818                                                            
   DEXC   =    -.016                                                            
   RMAX   =    2.817    core radius for proj-oper                               
   RAUG   =    1.300    factor for augmentation sphere                          
   RDEP   =    2.393    radius for radial grids                                 
   QCUT   =   -4.438; QGAM   =    8.876    optimization parameters              
                                                                                
   Description                                                                  
     l     E      TYP  RCUT    TYP  RCUT                                        
     2   .000     23  2.300                                                     
     2   .000     23  2.300                                                     
     0   .000     23  2.300                                                     
     0   .000     23  2.300                                                     
     1  -.200     23  2.300                                                     
     1   .000     23  2.300                                                     
     3   .000      7   .000                                                     
  local pseudopotential read in
  partial core-charges read in
  atomic valenz-charges read in
  non local Contribution for L=           2  read in
    real space projection operators read in
  non local Contribution for L=           2  read in
    real space projection operators read in
  non local Contribution for L=           0  read in
    real space projection operators read in
  non local Contribution for L=           0  read in
    real space projection operators read in
  non local Contribution for L=           1  read in
    real space projection operators read in
  non local Contribution for L=           1  read in
    real space projection operators read in
    PAW grid and wavefunctions read in

   number of l-projection  operators is LMAX  =           6
   number of lm-projection operators is LMMAX =          18

 POTCAR:   PAW_PBE Si 05Jan2001                   
   VRHFIN =Si: s2p2                                                             
   LEXCH  = PE                                                                  
   EATOM  =   103.0669 eV,    7.5752 Ry                                         
                                                                                
   TITEL  = PAW_PBE Si 05Jan2001                                                
   LULTRA =        F    use ultrasoft PP ?                                      
   IUNSCR =        1    unscreen: 0-lin 1-nonlin 2-no                           
   RPACOR =    1.500    partial core radius                                     
   POMASS =   28.085; ZVAL   =    4.000    mass and valenz                      
   RCORE  =    1.900    outmost cutoff radius                                   
   RWIGS  =    2.480; RWIGS  =    1.312    wigner-seitz radius (au A)           
   ENMAX  =  245.345; ENMIN  =  184.009 eV                                      
   ICORE  =        2    local potential                                         
   LCOR   =        T    correct aug charges                                     
   LPAW   =        T    paw PP                                                  
   EAUG   =  322.069                                                            
   DEXC   =    -.007                                                            
   RMAX   =    2.944    core radius for proj-oper                               
   RAUG   =    1.300    factor for augmentation sphere                          
   RDEP   =    1.993    radius for radial grids                                 
   QCUT   =   -4.246; QGAM   =    8.493    optimization parameters              
                                                                                
   Description                                                                  
     l     E      TYP  RCUT    TYP  RCUT                                        
     0   .000     23  1.900                                                     
     0   .000     23  1.900                                                     
     1   .000     23  1.900                                                     
     1   .000     23  1.900                                                     
     2   .000      7  1.900                                                     
  local pseudopotential read in
  partial core-charges read in
  atomic valenz-charges read in
  non local Contribution for L=           0  read in
    real space projection operators read in
  non local Contribution for L=           0  read in
    real space projection operators read in
  non local Contribution for L=           1  read in
    real space projection operators read in
  non local Contribution for L=           1  read in
    real space projection operators read in
    PAW grid and wavefunctions read in

   number of l-projection  operators is LMAX  =           4
   number of lm-projection operators is LMMAX =           8

 POTCAR:    PAW_PBE P 17Jan2003                   
   VRHFIN =P : s2p3                                                             
   LEXCH  = PE                                                                  
   EATOM  =   176.0430 eV,   12.9388 Ry                                         
                                                                                
   TITEL  = PAW_PBE P 17Jan2003                                                 
   LULTRA =        F    use ultrasoft PP ?                                      
   IUNSCR =        1    unscreen: 0-lin 1-nonlin 2-no                           
   RPACOR =    1.500    partial core radius                                     
   POMASS =   30.974; ZVAL   =    5.000    mass and valenz                      
   RCORE  =    1.900    outmost cutoff radius                                   
   RWIGS  =    2.330; RWIGS  =    1.233    wigner-seitz radius (au A)           
   ENMAX  =  270.000; ENMIN  =  191.280 eV                                      
   ICORE  =        2    local potential                                         
   LCOR   =        T    correct aug charges                                     
   LPAW   =        T    paw PP                                                  
   EAUG   =  342.924                                                            
   DEXC   =    -.002                                                            
   RMAX   =    2.887    core radius for proj-oper                               
   RAUG   =    1.300    factor for augmentation sphere                          
   RDEP   =    1.931    radius for radial grids                                 
   QCUT   =   -4.330; QGAM   =    8.659    optimization parameters              
                                                                                
   Description                                                                  
     l     E      TYP  RCUT    TYP  RCUT                                        
     0   .000     23  1.900                                                     
     0   .000     23  1.900                                                     
     1   .000     23  1.900                                                     
     1   .000     23  1.900                                                     
     2   .000     23  1.900                                                     
  local pseudopotential read in
  partial core-charges read in
  atomic valenz-charges read in
  non local Contribution for L=           0  read in
    real space projection operators read in
  non local Contribution for L=           0  read in
    real space projection operators read in
  non local Contribution for L=           1  read in
    real space projection operators read in
  non local Contribution for L=           1  read in
    real space projection operators read in
    PAW grid and wavefunctions read in

   number of l-projection  operators is LMAX  =           4
   number of lm-projection operators is LMMAX =           8

 POTCAR:    PAW_PBE S 17Jan2003                   
   VRHFIN =S : s2p4                                                             
   LEXCH  = PE                                                                  
   EATOM  =   276.8230 eV,   20.3459 Ry                                         
                                                                                
   TITEL  = PAW_PBE S 17Jan2003                                                 
   LULTRA =        F    use ultrasoft PP ?                                      
   IUNSCR =        1    unscreen: 0-lin 1-nonlin 2-no                           
   RPACOR =    1.500    partial core radius                                     
   POMASS =   32.066; ZVAL   =    6.000    mass and valenz                      
   RCORE  =    1.900    outmost cutoff radius                                   
   RWIGS  =    2.200; RWIGS  =    1.164    wigner-seitz radius (au A)           
   ENMAX  =  280.000; ENMIN  =  194.016 eV                                      
   ICORE  =        2    local potential                                         
   LCOR   =        T    correct aug charges                                     
   LPAW   =        T    paw PP                                                  
   EAUG   =  335.092                                                            
   DEXC   =     .000                                                            
   RMAX   =    2.867    core radius for proj-oper                               
   RAUG   =    1.300    factor for augmentation sphere                          
   RDEP   =    1.954    radius for radial grids                                 
   QCUT   =   -4.360; QGAM   =    8.721    optimization parameters              
                                                                                
   Description                                                                  
     l     E      TYP  RCUT    TYP  RCUT                                        
     0   .000     23  1.900                                                     
     0   .000     23  1.900                                                     
     1   .000     23  1.900                                                     
     1   .000     23  1.900                                                     
     2   .000     23  1.900                                                     
  local pseudopotential read in
  partial core-charges read in
  atomic valenz-charges read in
  non local Contribution for L=           0  read in
    real space projection operators read in
  non local Contribution for L=           0  read in
    real space projection operators read in
  non local Contribution for L=           1  read in
    real space projection operators read in
  non local Contribution for L=           1  read in
    real space projection operators read in
    PAW grid and wavefunctions read in

   number of l-projection  operators is LMAX  =           4
   number of lm-projection operators is LMMAX =           8

 Optimization of the real space projectors (new method)

 maximal supplied QI-value         = 16.25
 optimisation between [QCUT,QGAM] = [ 11.54, 23.24] = [ 37.28,151.24] Ry 
 Optimized for a Real-space Cutoff    1.53 Angstroem

   l    n(q)    QCUT    max X(q) W(low)/X(q) W(high)/X(q)  e(spline) 
   2     10    11.539     4.599    0.83E-05    0.15E-04    0.45E-07
   2     10    11.539    18.158    0.10E-03    0.14E-03    0.24E-06
   0     11    11.539    15.740    0.19E-04    0.12E-05    0.17E-07
   0     11    11.539    47.662    0.48E-04    0.15E-04    0.31E-06
   1     10    11.539     5.777    0.11E-04    0.46E-05    0.25E-07
   1     10    11.539     8.007    0.46E-04    0.29E-04    0.11E-06
 Optimization of the real space projectors (new method)

 maximal supplied QI-value         = 19.84
 optimisation between [QCUT,QGAM] = [ 11.51, 23.22] = [ 37.09,150.92] Ry 
 Optimized for a Real-space Cutoff    1.21 Angstroem

   l    n(q)    QCUT    max X(q) W(low)/X(q) W(high)/X(q)  e(spline) 
   0      8    11.508     8.708    0.18E-04    0.44E-05    0.47E-08
   0      8    11.508   106.241    0.70E-04    0.15E-03    0.51E-07
   1      8    11.508     5.901    0.63E-05    0.23E-04    0.21E-07
   1      8    11.508    73.241    0.15E-03    0.36E-04    0.79E-07
 Optimization of the real space projectors (new method)

 maximal supplied QI-value         = 19.84
 optimisation between [QCUT,QGAM] = [ 11.51, 23.22] = [ 37.09,150.92] Ry 
 Optimized for a Real-space Cutoff    1.21 Angstroem

   l    n(q)    QCUT    max X(q) W(low)/X(q) W(high)/X(q)  e(spline) 
   0      8    11.508     6.651    0.19E-04    0.31E-05    0.49E-08
   0      8    11.508    90.285    0.95E-04    0.17E-03    0.51E-07
   1      8    11.508     4.328    0.14E-04    0.32E-04    0.22E-07
   1      8    11.508    54.583    0.16E-03    0.71E-04    0.89E-07
 Optimization of the real space projectors (new method)

 maximal supplied QI-value         = 19.84
 optimisation between [QCUT,QGAM] = [ 11.51, 23.22] = [ 37.09,150.92] Ry 
 Optimized for a Real-space Cutoff    1.21 Angstroem

   l    n(q)    QCUT    max X(q) W(low)/X(q) W(high)/X(q)  e(spline) 
   0      8    11.508     5.487    0.18E-04    0.22E-05    0.47E-08
   0      8    11.508    85.627    0.96E-04    0.18E-03    0.54E-07
   1      8    11.508     3.530    0.17E-04    0.28E-04    0.21E-07
   1      8    11.508    42.714    0.18E-03    0.63E-04    0.92E-07

 ----------------------------------------------------------------------------- 
|                                                                             |
|  ADVICE TO THIS USER RUNNING 'VASP/VAMP'   (HEAR YOUR MASTER'S VOICE ...):  |
|                                                                             |
|      You enforced a specific xc-type in the INCAR file,                     |
|      a different type was found on the POTCAR file                          |
|          I HOPE YOU KNOW, WHAT YOU ARE  DOING                               |
|                                                                             |
 ----------------------------------------------------------------------------- 

 PAW_PBE Co 06Sep2000                   :
 energy of atom  1       EATOM= -813.5563
 kinetic energy error for atom=    0.0028 (will be added to EATOM!!)
 PAW_PBE Si 05Jan2001                   :
 energy of atom  2       EATOM= -103.0669
 kinetic energy error for atom=    0.0005 (will be added to EATOM!!)
  PAW_PBE P 17Jan2003                   :
 energy of atom  3       EATOM= -176.0430
 kinetic energy error for atom=    0.0011 (will be added to EATOM!!)
  PAW_PBE S 17Jan2003                   :
 energy of atom  4       EATOM= -276.8230
 kinetic energy error for atom=    0.0016 (will be added to EATOM!!)


 POSCAR: Co2 Si P S6                             
  positions in direct lattice
  velocities in cartesian coordinates
  No initial velocities read in
 exchange correlation table for  LEXCH =       42
   RHO(1)=    0.500       N(1)  =     2000
   RHO(2)=  100.500       N(2)  =     4000



--------------------------------------------------------------------------------------------------------


 ion  position               nearest neighbor table
   1  0.333  0.333  0.500-   6 2.78   5 2.78   7 2.78   8 2.78  10 2.78   9 2.78
   2  0.667  0.667  0.500-   9 2.78   8 2.78  10 2.78   5 2.78   7 2.78   6 2.78
   3  0.000  0.000  0.448-   4 2.43   8 2.63  10 2.63   9 2.63
   4  0.000  0.000  0.552-   3 2.43   5 2.63   7 2.63   6 2.63
   5  0.626  0.000  0.574-   4 2.63   1 2.78   2 2.78
   6  0.000  0.373  0.574-   4 2.63   1 2.78   2 2.78
   7  0.373  0.626  0.574-   4 2.63   1 2.78   2 2.78
   8  0.374  1.000  0.426-   3 2.63   2 2.78   1 2.78
   9  1.000  0.627  0.426-   3 2.63   2 2.78   1 2.78
  10  0.627  0.374  0.426-   3 2.63   2 2.78   1 2.78

  LATTYP: Found a hexagonal cell.
 ALAT       =     6.9077769333
 C/A-ratio  =     3.3939410937
  
  Lattice vectors:
  
 A1 = (   3.4538890000,  -5.9823100000,   0.0000000000)
 A2 = (  -6.9077770000,   0.0000000000,   0.0000000000)
 A3 = (   0.0000000000,   0.0000000000, -23.4445880000)


Analysis of symmetry for initial positions (statically):
=====================================================================
 Subroutine PRICEL returns:
 Original cell was already a primitive cell.
 

 Routine SETGRP: Setting up the symmetry group for a 
 hexagonal supercell.


 Subroutine GETGRP returns: Found  3 space group operations
 (whereof  3 operations were pure point group operations)
 out of a pool of 24 trial point group operations.


The static configuration has the point symmetry C_3 .


Analysis of symmetry for dynamics (positions and initial velocities):
=====================================================================
 Subroutine PRICEL returns:
 Original cell was already a primitive cell.
 

 Routine SETGRP: Setting up the symmetry group for a 
 hexagonal supercell.


 Subroutine GETGRP returns: Found  3 space group operations
 (whereof  3 operations were pure point group operations)
 out of a pool of 24 trial point group operations.


The dynamic configuration has the point symmetry C_3 .


Analysis of constrained symmetry for selective dynamics:
=====================================================================
 Subroutine PRICEL returns:
 Original cell was already a primitive cell.
 

 Routine SETGRP: Setting up the symmetry group for a 
 hexagonal supercell.


 Subroutine GETGRP returns: Found  3 space group operations
 (whereof  3 operations were pure point group operations)
 out of a pool of 24 trial point group operations.


The constrained configuration has the point symmetry C_3 .


Analysis of structural, dynamic, and magnetic symmetry:
=====================================================================
 Subroutine PRICEL returns:
 Original cell was already a primitive cell.
 

 Routine SETGRP: Setting up the symmetry group for a 
 hexagonal supercell.


 Subroutine GETGRP returns: Found  3 space group operations
 (whereof  3 operations were pure point group operations)
 out of a pool of 24 trial point group operations.


The magnetic configuration has the point symmetry C_3 .


 Subroutine INISYM returns: Found  3 space group operations
 (whereof  3 operations are pure point group operations),
 and found     1 'primitive' translations



 KPOINTS: Kpoints from vasprun.xml                

Automatic generation of k-mesh.
Space group operators:
 irot       det(A)        alpha          n_x          n_y          n_z        tau_x        tau_y        tau_z
    1     1.000000     0.000000     1.000000     0.000000     0.000000     0.000000     0.000000     0.000000
    2     1.000000   120.000000     0.000000     0.000000     1.000000     0.000000     0.000000     0.000000
    3     1.000000   120.000000     0.000000     0.000000    -1.000000     0.000000     0.000000     0.000000
 
 Subroutine IBZKPT returns following result:
 ===========================================
 
 Found      5 irreducible k-points:
 
 Following reciprocal coordinates:
            Coordinates               Weight
  0.000000  0.000000  0.000000      1.000000
  0.200000  0.000000  0.000000      6.000000
  0.400000  0.000000  0.000000      6.000000
  0.400000  0.200000  0.000000      6.000000
 -0.400000  0.200000  0.000000      6.000000
 
 Following cartesian coordinates:
            Coordinates               Weight
  0.000000  0.000000  0.000000      1.000000
  0.028953 -0.016716  0.000000      6.000000
  0.057906 -0.033432  0.000000      6.000000
  0.057906  0.000000  0.000000      6.000000
 -0.057906  0.066864  0.000000      6.000000
 
 TETIRR: Found     15 inequivalent tetrahedra from      150


--------------------------------------------------------------------------------------------------------




 Dimension of arrays:
   k-points           NKPTS =      5   k-points in BZ     NKDIM =      5   number of bands    NBANDS=     48
   number of dos      NEDOS =    301   number of ions     NIONS =     10
   non local maximal  LDIM  =      6   non local SUM 2l+1 LMDIM =     18
   total plane-waves  NPLWV = 524880
   max r-space proj   IRMAX =   8238   max aug-charges    IRDMAX=  21564
   dimension x,y,z NGX =    54 NGY =   54 NGZ =  180
   dimension x,y,z NGXF=   108 NGYF=  108 NGZF=  360
   support grid    NGXF=   108 NGYF=  108 NGZF=  360
   ions per type =               2   1   1   6
   NGX,Y,Z   is equivalent  to a cutoff of  13.00, 13.00, 12.76 a.u.
   NGXF,Y,Z  is equivalent  to a cutoff of  25.99, 25.99, 25.53 a.u.

 SYSTEM =  unknown system                          
 POSCAR =  Co2 Si P S6                             

 Startparameter for this run:
   NWRITE =      2    write-flag & timer
   PREC   = accura    normal or accurate (medium, high low for compatibility)
   ISTART =      0    job   : 0-new  1-cont  2-samecut
   ICHARG =      2    charge: 1-file 2-atom 10-const
   ISPIN  =      2    spin polarized calculation?
   LNONCOLLINEAR =      F non collinear calculations
   LSORBIT =      F    spin-orbit coupling
   INIWAV =      1    electr: 0-lowe 1-rand  2-diag
   LASPH  =      F    aspherical Exc in radial PAW
   METAGGA=      F    non-selfconsistent MetaGGA calc.

 Electronic Relaxation 1
   ENCUT  =  520.0 eV  38.22 Ry    6.18 a.u.  12.84 12.84 43.59*2*pi/ulx,y,z
   ENINI  =  520.0     initial cutoff
   ENAUG  =  477.8 eV  augmentation charge cutoff
   NELM   =    400;   NELMIN=  2; NELMDL=  0     # of ELM steps 
   EDIFF  = 0.1E-03   stopping-criterion for ELM
   LREAL  =      T    real-space projection
   NLSPLINE    = F    spline interpolate recip. space projectors
   LCOMPAT=      F    compatible to vasp.4.4
   GGA_COMPAT  = T    GGA compatible to vasp.4.4-vasp.4.6
   LMAXPAW     = -100 max onsite density
   LMAXMIX     =    2 max onsite mixed and CHGCAR
   VOSKOWN=      0    Vosko Wilk Nusair interpolation
   ROPT   =   -0.00025  -0.00025  -0.00025  -0.00025
 Ionic relaxation
   EDIFFG = 0.1E-02   stopping-criterion for IOM
   NSW    =     99    number of steps for IOM
   NBLOCK =      1;   KBLOCK =     99    inner block; outer block 
   IBRION =      2    ionic relax: 0-MD 1-quasi-New 2-CG
   NFREE  =      1    steps in history (QN), initial steepest desc. (CG)
   ISIF   =      3    stress and relaxation
   IWAVPR =     11    prediction:  0-non 1-charg 2-wave 3-comb
   ISYM   =      2    0-nonsym 1-usesym 2-fastsym
   LCORR  =      T    Harris-Foulkes like correction to forces

   POTIM  = 0.5000    time-step for ionic-motion
   TEIN   =    0.0    initial temperature
   TEBEG  =    0.0;   TEEND  =   0.0 temperature during run
   SMASS  =  -3.00    Nose mass-parameter (am)
   estimated Nose-frequenzy (Omega)   =  0.10E-29 period in steps =****** mass=  -0.109E-26a.u.
   SCALEE = 1.0000    scale energy and forces
   NPACO  =    256;   APACO  = 16.0  distance and # of slots for P.C.
   PSTRESS=    0.0 pullay stress

  Mass of Ions in am
   POMASS =  58.93 28.09 30.97 32.07
  Ionic Valenz
   ZVAL   =   9.00  4.00  5.00  6.00
  Atomic Wigner-Seitz radii
   RWIGS  =  -1.00 -1.00 -1.00 -1.00
  virtual crystal weights 
   VCA    =   1.00  1.00  1.00  1.00
   NELECT =      63.0000    total number of electrons
   NUPDOWN=      -1.0000    fix difference up-down

 DOS related values:
   EMIN   =  10.00;   EMAX   =-10.00  energy-range for DOS
   EFERMI =   0.00
   ISMEAR =    -5;   SIGMA  =   0.05  broadening in eV -4-tet -1-fermi 0-gaus

 Electronic relaxation 2 (details)
   IALGO  =     38    algorithm
   LDIAG  =      T    sub-space diagonalisation (order eigenvalues)
   LSUBROT=      F    optimize rotation matrix (better conditioning)
   TURBO    =      0    0=normal 1=particle mesh
   IRESTART =      0    0=no restart 2=restart with 2 vectors
   NREBOOT  =      0    no. of reboots
   NMIN     =      0    reboot dimension
   EREF     =   0.00    reference energy to select bands
   IMIX   =      4    mixing-type and parameters
     AMIX     =   0.40;   BMIX     =  1.00
     AMIX_MAG =   1.60;   BMIX_MAG =  1.00
     AMIN     =   0.01
     WC   =   100.;   INIMIX=   1;  MIXPRE=   1;  MAXMIX= -45

 Intra band minimization:
   WEIMIN = 0.0010     energy-eigenvalue tresh-hold
   EBREAK =  0.52E-06  absolut break condition
   DEPER  =   0.30     relativ break condition  

   TIME   =   0.40     timestep for ELM

  volume/ion in A,a.u.               =      96.88       653.80
  Fermi-wavevector in a.u.,A,eV,Ry     =   0.658322  1.244048  5.896601  0.433388
  Thomas-Fermi vector in A             =   1.730108

 Write flags
   LWAVE        =      F    write WAVECAR
   LDOWNSAMPLE  =      F    k-point downsampling of WAVECAR
   LCHARG       =      T    write CHGCAR
   LVTOT        =      F    write LOCPOT, total local potential
   LVHAR        =      F    write LOCPOT, Hartree potential only
   LELF         =      F    write electronic localiz. function (ELF)
   LORBIT       =     11    0 simple, 1 ext, 2 COOP (PROOUT), +10 PAW based schemes


 Dipole corrections
   LMONO  =      F    monopole corrections only (constant potential shift)
   LDIPOL =      F    correct potential (dipole corrections)
   IDIPOL =      0    1-x, 2-y, 3-z, 4-all directions 
   EPSILON=  1.0000000 bulk dielectric constant

 Exchange correlation treatment:
   GGA     =    BO    GGA type
   LEXCH   =    42    internal setting for exchange type
   VOSKOWN=      0    Vosko Wilk Nusair interpolation
   LHFCALC =     F    Hartree Fock is set to
   LHFONE  =     F    Hartree Fock one center treatment
   AEXX    =    0.0000 exact exchange contribution

 vdW DFT:
   LUSE_VDW   =     T    switch on vdW DFT
   Zab_VDW    =-.8491    correlation parameter
   PARAM1     =0.1833
   PARAM2     =0.2200
   PARAM3     =0.0000
   -- rVV10 --
   BPARAM     = 6.3000
   CPARAM     = 0.0093

 Linear response parameters
   LEPSILON=     F    determine dielectric tensor
   LRPA    =     F    only Hartree local field effects (RPA)
   LNABLA  =     F    use nabla operator in PAW spheres
   LVEL    =     F    velocity operator in full k-point grid
   LINTERFAST=   F  fast interpolation
   KINTER  =     0    interpolate to denser k-point grid
   CSHIFT  =0.1000    complex shift for real part using Kramers Kronig
   OMEGAMAX=  -1.0    maximum frequency
   DEG_THRESHOLD= 0.2000000E-02 threshold for treating states as degnerate
   RTIME   =   -0.100 relaxation time in fs
  (WPLASMAI=    0.000 imaginary part of plasma frequency in eV, 0.658/RTIME)
   DFIELD  = 0.0000000 0.0000000 0.0000000 field for delta impulse in time

 Orbital magnetization related:
   ORBITALMAG=     F  switch on orbital magnetization
   LCHIMAG   =     F  perturbation theory with respect to B field
   DQ        =  0.001000  dq finite difference perturbation B field
   LLRAUG    =     F  two centre corrections for induced B field



--------------------------------------------------------------------------------------------------------


 conjugate gradient relaxation of ions
   using selective dynamics as specified on POSCAR
 charge density and potential will be updated during run
 spin polarized calculation
 Variant of blocked Davidson
 Davidson routine will perform the subspace rotation
 perform sub-space diagonalisation
    after iterative eigenvector-optimisation
 modified Broyden-mixing scheme, WC =      100.0
 initial mixing is a Kerker type mixing with AMIX =  0.4000 and BMIX =      1.0000
 Hartree-type preconditioning will be used
 using additional bands           16
 real space projection scheme for non local part
 use partial core corrections
 calculate Harris-corrections to forces   (improved forces if not selfconsistent)
 use gradient corrections 
 use of overlap-Matrix (Vanderbilt PP)
 Fermi weights with tetrahedron method with Bloechl corrections


--------------------------------------------------------------------------------------------------------


  energy-cutoff  :      520.00
  volume of cell :      968.84
      direct lattice vectors                 reciprocal lattice vectors
     6.907777000 -0.000000000  0.000000000     0.144764372 -0.083579742  0.000000000
     3.453888000  5.982310000  0.000000000     0.000000000  0.167159509 -0.000000000
     0.000000000  0.000000000 23.444588000    -0.000000000  0.000000000  0.042653767

  length of vectors
     6.907777000  6.907776433 23.444588000     0.167159495  0.167159509  0.042653767



 k-points in units of 2pi/SCALE and weight: Kpoints from vasprun.xml                
   0.00000000  0.00000000  0.00000000       0.040
   0.02895287 -0.01671595  0.00000000       0.240
   0.05790575 -0.03343190  0.00000000       0.240
   0.05790575  0.00000000  0.00000000       0.240
  -0.05790575  0.06686380  0.00000000       0.240

 k-points in reciprocal lattice and weights: Kpoints from vasprun.xml                
   0.00000000  0.00000000  0.00000000       0.040
   0.20000000  0.00000000  0.00000000       0.240
   0.40000000  0.00000000  0.00000000       0.240
   0.40000000  0.20000000  0.00000000       0.240
  -0.40000000  0.20000000  0.00000000       0.240

 position of ions in fractional coordinates (direct lattice) 
   0.33333300  0.33333300  0.49992500
   0.66666700  0.66666700  0.50007500
   0.00000000  0.00000000  0.44821600
   0.00000000  0.00000000  0.55178400
   0.62635700  0.00042000  0.57375200
   0.00042000  0.37322400  0.57375200
   0.37322400  0.62635700  0.57375200
   0.37364300  0.99958000  0.42624800
   0.99958000  0.62677600  0.42624800
   0.62677600  0.37364300  0.42624800

 position of ions in cartesian coordinates  (Angst):
   3.45388488  1.99410134 11.72053566
   6.90778012  3.98820866 11.72405234
   0.00000000  0.00000000 10.50823946
   0.00000000  0.00000000 12.93634854
   4.32818511  0.00251257 13.45137925
   1.29197516  2.23274167 13.45137925
   4.74151509  3.74706174 13.45137925
   6.03347989  5.97979743  9.99320875
   9.06968984  3.74956833  9.99320875
   5.62014991  2.23524826  9.99320875



--------------------------------------------------------------------------------------------------------


 k-point  1 :   0.0000 0.0000 0.0000  plane waves:   26073
 k-point  2 :   0.2000 0.0000 0.0000  plane waves:   26070
 k-point  3 :   0.4000 0.0000 0.0000  plane waves:   26086
 k-point  4 :   0.4000 0.2000 0.0000  plane waves:   26085
 k-point  5 :  -0.4000 0.2000 0.0000  plane waves:   26115

 maximum and minimum number of plane-waves per node :     26115    26070

 maximum number of plane-waves:     26115
 maximum index in each direction: 
   IXMAX=   13   IYMAX=   12   IZMAX=   43
   IXMIN=  -13   IYMIN=  -13   IZMIN=  -43


 serial   3D FFT for wavefunctions
 parallel 3D FFT for charge:
    minimum data exchange during FFTs selected (reduces bandwidth)


 total amount of memory used by VASP MPI-rank0   128589. kBytes
=======================================================================

   base      :      30000. kBytes
   nonlr-proj:       6104. kBytes
   fftplans  :      11247. kBytes
   grid      :      68332. kBytes
   one-center:        311. kBytes
   wavefun   :      12595. kBytes

     INWAV:  cpu time    0.0000: real time    0.0004
 Broyden mixing: mesh for mixing (old mesh)
   NGX = 25   NGY = 25   NGZ = 87
  (NGX  =108   NGY  =108   NGZ  =360)
  gives a total of  54375 points

 initial charge density was supplied:
 charge density of overlapping atoms calculated
 number of electron      63.0000000 magnetization       9.7800000
 keeping initial charge density in first step


--------------------------------------------------------------------------------------------------------


 Maximum index for non-local projection operator         7925
 Maximum index for augmentation-charges         1342 (set IRDMAX)


--------------------------------------------------------------------------------------------------------


 First call to EWALD:  gamma=   0.179
 Maximum number of real-space cells 4x 4x 1
 Maximum number of reciprocal cells 2x 2x 6

    FEWALD:  cpu time    0.0040: real time    0.0014


--------------------------------------- Iteration      1(   1)  ---------------------------------------


vdW kernel read from vdw_kernel.bindat
  0.0000  0.2424  0.5071  0.7962  1.1119  1.4567  1.8333  2.2446  2.6937  3.1842
  3.7199  4.3049  4.9438  5.6415  6.4036  7.2358  8.1446  9.1372 10.2212 11.4050
 12.6979 14.1099 15.6519 17.3360 19.1751 21.1837 23.3773 25.7729 28.3892 31.2465
 34.3669 37.7748 41.4965 45.5611 50.0000

    POTLOK:  cpu time   51.9880: real time   52.1133
    SETDIJ:  cpu time    0.0400: real time    0.0379
     EDDAV:  cpu time   22.2320: real time   22.6036
 BZINTS: Fermi energy:  4.798074; 63.000000 electrons
         Band energy: -34.083476;  BLOECHL correction: -0.019273
       DOS:  cpu time    0.0080: real time    0.0067
    --------------------------------------------
      LOOP:  cpu time   74.2680: real time   74.7615

 eigenvalue-minimisations  :   960
 total energy-change (2. order) : 0.4208717E+03  (-0.1915980E+04)
 number of electron      63.0000000 magnetization       9.7800000
 augmentation part       63.0000000 magnetization       9.7800000

 Free energy of the ion-electron system (eV)
  ---------------------------------------------------
  alpha Z        PSCENC =        24.60922623
  Ewald energy   TEWEN  =      7794.22900203
  -Hartree energ DENC   =    -10979.65901139
  -exchange      EXHF   =         0.00000000
  -V(xc)+E(xc)   XCENC  =        90.70565378
  PAW double counting   =      1942.90090461    -1998.47629575
  entropy T*S    EENTRO =         0.00000000
  eigenvalues    EBANDS =       -34.08347551
  atomic energy  EATOM  =      3580.64568177
  Solvation  Ediel_sol  =         0.00000000
  ---------------------------------------------------
  free energy    TOTEN  =       420.87168575 eV

  energy without entropy =      420.87168575  energy(sigma->0) =      420.87168575


--------------------------------------------------------------------------------------------------------




--------------------------------------- Iteration      1(   2)  ---------------------------------------


     EDDAV:  cpu time   29.2840: real time   29.7357
 BZINTS: Fermi energy: -1.606718; 63.000000 electrons
         Band energy:-419.881219;  BLOECHL correction: -0.014557
       DOS:  cpu time    0.0200: real time    0.0171
    --------------------------------------------
      LOOP:  cpu time   29.3040: real time   29.7529

 eigenvalue-minimisations  :  1296
 total energy-change (2. order) :-0.3857977E+03  (-0.3538855E+03)
 number of electron      63.0000000 magnetization       9.7800000
 augmentation part       63.0000000 magnetization       9.7800000

 Free energy of the ion-electron system (eV)
  ---------------------------------------------------
  alpha Z        PSCENC =        24.60922623
  Ewald energy   TEWEN  =      7794.22900203
  -Hartree energ DENC   =    -10979.65901139
  -exchange      EXHF   =         0.00000000
  -V(xc)+E(xc)   XCENC  =        90.70565378
  PAW double counting   =      1942.90090461    -1998.47629575
  entropy T*S    EENTRO =         0.00000000
  eigenvalues    EBANDS =      -419.88121928
  atomic energy  EATOM  =      3580.64568177
  Solvation  Ediel_sol  =         0.00000000
  ---------------------------------------------------
  free energy    TOTEN  =        35.07394198 eV

  energy without entropy =       35.07394198  energy(sigma->0) =       35.07394198


--------------------------------------------------------------------------------------------------------




--------------------------------------- Iteration      1(   3)  ---------------------------------------


     EDDAV:  cpu time   28.9080: real time   29.6397
 BZINTS: Fermi energy: -2.951751; 63.000000 electrons
         Band energy:-501.139370;  BLOECHL correction: -0.005426
       DOS:  cpu time    0.0040: real time    0.0048
    --------------------------------------------
      LOOP:  cpu time   28.9120: real time   29.6446

 eigenvalue-minimisations  :  1296
 total energy-change (2. order) :-0.8125815E+02  (-0.7795056E+02)
 number of electron      63.0000000 magnetization       9.7800000
 augmentation part       63.0000000 magnetization       9.7800000

 Free energy of the ion-electron system (eV)
  ---------------------------------------------------
  alpha Z        PSCENC =        24.60922623
  Ewald energy   TEWEN  =      7794.22900203
  -Hartree energ DENC   =    -10979.65901139
  -exchange      EXHF   =         0.00000000
  -V(xc)+E(xc)   XCENC  =        90.70565378
  PAW double counting   =      1942.90090461    -1998.47629575
  entropy T*S    EENTRO =         0.00000000
  eigenvalues    EBANDS =      -501.13937035
  atomic energy  EATOM  =      3580.64568177
  Solvation  Ediel_sol  =         0.00000000
  ---------------------------------------------------
  free energy    TOTEN  =       -46.18420909 eV

  energy without entropy =      -46.18420909  energy(sigma->0) =      -46.18420909


--------------------------------------------------------------------------------------------------------




--------------------------------------- Iteration      1(   4)  ---------------------------------------


     EDDAV:  cpu time   28.0320: real time   28.5831
 BZINTS: Fermi energy: -3.019580; 63.000000 electrons
         Band energy:-504.446652;  BLOECHL correction: -0.004339
       DOS:  cpu time    0.0080: real time    0.0049
    --------------------------------------------
      LOOP:  cpu time   28.0400: real time   28.5880

 eigenvalue-minimisations  :  1248
 total energy-change (2. order) :-0.3307282E+01  (-0.3278000E+01)
 number of electron      63.0000000 magnetization       9.7800000
 augmentation part       63.0000000 magnetization       9.7800000

 Free energy of the ion-electron system (eV)
  ---------------------------------------------------
  alpha Z        PSCENC =        24.60922623
  Ewald energy   TEWEN  =      7794.22900203
  -Hartree energ DENC   =    -10979.65901139
  -exchange      EXHF   =         0.00000000
  -V(xc)+E(xc)   XCENC  =        90.70565378
  PAW double counting   =      1942.90090461    -1998.47629575
  entropy T*S    EENTRO =         0.00000000
  eigenvalues    EBANDS =      -504.44665194
  atomic energy  EATOM  =      3580.64568177
  Solvation  Ediel_sol  =         0.00000000
  ---------------------------------------------------
  free energy    TOTEN  =       -49.49149068 eV

  energy without entropy =      -49.49149068  energy(sigma->0) =      -49.49149068


--------------------------------------------------------------------------------------------------------




--------------------------------------- Iteration      1(   5)  ---------------------------------------


     EDDAV:  cpu time   30.0480: real time   30.5885
 BZINTS: Fermi energy: -3.020000; 63.000000 electrons
         Band energy:-504.544453;  BLOECHL correction: -0.004404
       DOS:  cpu time    0.0040: real time    0.0056
    CHARGE:  cpu time    2.0560: real time    2.0561
    MIXING:  cpu time    0.0400: real time    0.0432
    --------------------------------------------
      LOOP:  cpu time   32.1480: real time   32.6934

 eigenvalue-minimisations  :  1344
 total energy-change (2. order) :-0.9780082E-01  (-0.9781349E-01)
 number of electron      62.9999989 magnetization       9.7171677
 augmentation part        0.3211222 magnetization       6.5730031

 Broyden mixing:
  rms(total) = 0.35751E+01    rms(broyden)= 0.35751E+01
  rms(prec ) = 0.38657E+01
  weight for this iteration     100.00

 Free energy of the ion-electron system (eV)
  ---------------------------------------------------
  alpha Z        PSCENC =        24.60922623
  Ewald energy   TEWEN  =      7794.22900203
  -Hartree energ DENC   =    -10979.65901139
  -exchange      EXHF   =         0.00000000
  -V(xc)+E(xc)   XCENC  =        90.70565378
  PAW double counting   =      1942.90090461    -1998.47629575
  entropy T*S    EENTRO =         0.00000000
  eigenvalues    EBANDS =      -504.54445276
  atomic energy  EATOM  =      3580.64568177
  Solvation  Ediel_sol  =         0.00000000
  ---------------------------------------------------
  free energy    TOTEN  =       -49.58929150 eV

  energy without entropy =      -49.58929150  energy(sigma->0) =      -49.58929150


--------------------------------------------------------------------------------------------------------




--------------------------------------- Iteration      1(   6)  ---------------------------------------


    POTLOK:  cpu time   52.0120: real time   52.2945
    SETDIJ:  cpu time    0.0560: real time    0.0594
     EDDAV:  cpu time   29.1160: real time   29.1801
 BZINTS: Fermi energy: -4.450067; 63.000000 electrons
         Band energy:-755.522979;  BLOECHL correction: -0.034605
       DOS:  cpu time    0.0040: real time    0.0070
    CHARGE:  cpu time    1.9280: real time    2.0724
    MIXING:  cpu time    0.0360: real time    0.0450
    --------------------------------------------
      LOOP:  cpu time   83.1520: real time   83.6584

 eigenvalue-minimisations  :  1280
 total energy-change (2. order) :-0.6959155E+02  (-0.5996675E+02)
 number of electron      62.9999982 magnetization       9.3488465
 augmentation part       10.6282623 magnetization       9.5078551

 Broyden mixing:
  rms(total) = 0.66055E+01    rms(broyden)= 0.66054E+01
  rms(prec ) = 0.69656E+01
  weight for this iteration     100.00

 eigenvalues of (default mixing * dielectric matrix)
  average eigenvalue GAMMA=   0.3237
  0.3237

 Free energy of the ion-electron system (eV)
  ---------------------------------------------------
  alpha Z        PSCENC =        24.60922623
  Ewald energy   TEWEN  =      7794.22900203
  -Hartree energ DENC   =    -10836.60996707
  -exchange      EXHF   =         0.00000000
  -V(xc)+E(xc)   XCENC  =        94.64967198
  PAW double counting   =      1681.87797659    -1703.05945511
  entropy T*S    EENTRO =         0.00000000
  eigenvalues    EBANDS =      -755.52297902
  atomic energy  EATOM  =      3580.64568177
  Solvation  Ediel_sol  =         0.00000000
  ---------------------------------------------------
  free energy    TOTEN  =      -119.18084259 eV

  energy without entropy =     -119.18084259  energy(sigma->0) =     -119.18084259


--------------------------------------------------------------------------------------------------------




--------------------------------------- Iteration      1(   7)  ---------------------------------------


    POTLOK:  cpu time   51.9520: real time   52.2255
    SETDIJ:  cpu time    0.0400: real time    0.0402
     EDDAV:  cpu time   26.0280: real time   26.2378
 BZINTS: Fermi energy: -4.813995; 63.000000 electrons
         Band energy:-580.349874;  BLOECHL correction: -0.016036
       DOS:  cpu time    0.0040: real time    0.0062
    CHARGE:  cpu time    1.9960: real time    2.0823
    MIXING:  cpu time    0.0440: real time    0.0446
    --------------------------------------------
      LOOP:  cpu time   80.0640: real time   80.6366

 eigenvalue-minimisations  :  1136
 total energy-change (2. order) : 0.6756001E+02  (-0.8329748E+01)
 number of electron      62.9999983 magnetization       9.0628465
 augmentation part        9.0479111 magnetization       8.2046847

 Broyden mixing:
  rms(total) = 0.37634E+01    rms(broyden)= 0.37634E+01
  rms(prec ) = 0.40382E+01
  weight for this iteration     100.00

 eigenvalues of (default mixing * dielectric matrix)
  average eigenvalue GAMMA=   0.4525
  0.4525  0.4525

 Free energy of the ion-electron system (eV)
  ---------------------------------------------------
  alpha Z        PSCENC =        24.60922623
  Ewald energy   TEWEN  =      7794.22900203
  -Hartree energ DENC   =    -10913.16411268
  -exchange      EXHF   =         0.00000000
  -V(xc)+E(xc)   XCENC  =        90.51821763
  PAW double counting   =      1827.85592199    -1875.96489438
  entropy T*S    EENTRO =         0.00000000
  eigenvalues    EBANDS =      -580.34987389
  atomic energy  EATOM  =      3580.64568177
  Solvation  Ediel_sol  =         0.00000000
  ---------------------------------------------------
  free energy    TOTEN  =       -51.62083129 eV

  energy without entropy =      -51.62083129  energy(sigma->0) =      -51.62083129


--------------------------------------------------------------------------------------------------------




--------------------------------------- Iteration      1(   8)  ---------------------------------------


    POTLOK:  cpu time   52.4080: real time   52.6030
    SETDIJ:  cpu time    0.0360: real time    0.0393
     EDDAV:  cpu time   29.9000: real time   30.1444
 BZINTS: Fermi energy: -4.181898; 63.000000 electrons
         Band energy:-521.379647;  BLOECHL correction: -0.001577
       DOS:  cpu time    0.0040: real time    0.0071
    CHARGE:  cpu time    2.1320: real time    2.1389
    MIXING:  cpu time    0.0440: real time    0.0437
    --------------------------------------------
      LOOP:  cpu time   84.5240: real time   84.9765

 eigenvalue-minimisations  :  1312
 total energy-change (2. order) : 0.1362284E+02  (-0.2179624E+01)
 number of electron      62.9999987 magnetization       8.9870264
 augmentation part        4.0868406 magnetization       6.2047415

 Broyden mixing:
  rms(total) = 0.90719E+00    rms(broyden)= 0.90692E+00
  rms(prec ) = 0.93612E+00
  weight for this iteration     100.00

 eigenvalues of (default mixing * dielectric matrix)
  average eigenvalue GAMMA=   0.4325
  0.4911  0.4032  0.4032

 Free energy of the ion-electron system (eV)
  ---------------------------------------------------
  alpha Z        PSCENC =        24.60922623
  Ewald energy   TEWEN  =      7794.22900203
  -Hartree energ DENC   =    -10951.11030028
  -exchange      EXHF   =         0.00000000
  -V(xc)+E(xc)   XCENC  =        90.69250340
  PAW double counting   =      1897.00067506    -1952.68513559
  entropy T*S    EENTRO =         0.00000000
  eigenvalues    EBANDS =      -521.37964689
  atomic energy  EATOM  =      3580.64568177
  Solvation  Ediel_sol  =         0.00000000
  ---------------------------------------------------
  free energy    TOTEN  =       -37.99799429 eV

  energy without entropy =      -37.99799429  energy(sigma->0) =      -37.99799429


--------------------------------------------------------------------------------------------------------




--------------------------------------- Iteration      1(   9)  ---------------------------------------


    POTLOK:  cpu time   50.8720: real time   52.1238
    SETDIJ:  cpu time    0.0360: real time    0.0397
     EDDAV:  cpu time   29.5560: real time   30.1348
 BZINTS: Fermi energy: -4.742746; 63.000000 electrons
         Band energy:-536.229377;  BLOECHL correction: -0.012254
       DOS:  cpu time    0.0080: real time    0.0069
    CHARGE:  cpu time    2.0760: real time    2.1192
    MIXING:  cpu time    0.0440: real time    0.0448
    --------------------------------------------
      LOOP:  cpu time   82.5920: real time   84.4693

 eigenvalue-minimisations  :  1328
 total energy-change (2. order) :-0.1310222E+01  (-0.7354296E+00)
 number of electron      62.9999985 magnetization       8.8594621
 augmentation part        6.6724954 magnetization       8.5913127

 Broyden mixing:
  rms(total) = 0.19571E+01    rms(broyden)= 0.19570E+01
  rms(prec ) = 0.20708E+01
  weight for this iteration     100.00

 eigenvalues of (default mixing * dielectric matrix)
  average eigenvalue GAMMA=   0.3863
  0.4865  0.4437  0.4437  0.1712

 Free energy of the ion-electron system (eV)
  ---------------------------------------------------
  alpha Z        PSCENC =        24.60922623
  Ewald energy   TEWEN  =      7794.22900203
  -Hartree energ DENC   =    -10939.32444697
  -exchange      EXHF   =         0.00000000
  -V(xc)+E(xc)   XCENC  =        90.81313634
  PAW double counting   =      1876.08280530    -1930.13424410
  entropy T*S    EENTRO =         0.00000000
  eigenvalues    EBANDS =      -536.22937662
  atomic energy  EATOM  =      3580.64568177
  Solvation  Ediel_sol  =         0.00000000
  ---------------------------------------------------
  free energy    TOTEN  =       -39.30821603 eV

  energy without entropy =      -39.30821603  energy(sigma->0) =      -39.30821603


--------------------------------------------------------------------------------------------------------




--------------------------------------- Iteration      1(  10)  ---------------------------------------


    POTLOK:  cpu time   50.4320: real time   51.1005
    SETDIJ:  cpu time    0.0360: real time    0.0357
     EDDAV:  cpu time   32.9400: real time   33.2541
 BZINTS: Fermi energy: -4.641846; 63.000000 electrons
         Band energy:-531.980855;  BLOECHL correction: -0.005252
       DOS:  cpu time    0.0040: real time    0.0073
    CHARGE:  cpu time    2.0640: real time    2.1330
    MIXING:  cpu time    0.0440: real time    0.0423
    --------------------------------------------
      LOOP:  cpu time   85.5200: real time   86.5730

 eigenvalue-minimisations  :  1472
 total energy-change (2. order) : 0.5923706E+00  (-0.6462535E-01)
 number of electron      62.9999985 magnetization       8.8151569
 augmentation part        5.6622769 magnetization       7.2952696

 Broyden mixing:
  rms(total) = 0.10039E+01    rms(broyden)= 0.10037E+01
  rms(prec ) = 0.10668E+01
  weight for this iteration     100.00

 eigenvalues of (default mixing * dielectric matrix)
  average eigenvalue GAMMA=   0.3215
  0.4523  0.4523  0.4552  0.2047  0.0430

 Free energy of the ion-electron system (eV)
  ---------------------------------------------------
  alpha Z        PSCENC =        24.60922623
  Ewald energy   TEWEN  =      7794.22900203
  -Hartree energ DENC   =    -10942.66915984
  -exchange      EXHF   =         0.00000000
  -V(xc)+E(xc)   XCENC  =        90.79158710
  PAW double counting   =      1882.65293578    -1936.99426374
  entropy T*S    EENTRO =         0.00000000
  eigenvalues    EBANDS =      -531.98085480
  atomic energy  EATOM  =      3580.64568177
  Solvation  Ediel_sol  =         0.00000000
  ---------------------------------------------------
  free energy    TOTEN  =       -38.71584547 eV

  energy without entropy =      -38.71584547  energy(sigma->0) =      -38.71584547


--------------------------------------------------------------------------------------------------------




--------------------------------------- Iteration      1(  11)  ---------------------------------------


    POTLOK:  cpu time   50.5200: real time   50.9775
    SETDIJ:  cpu time    0.0400: real time    0.0384
     EDDAV:  cpu time   28.1120: real time   28.3710
 BZINTS: Fermi energy: -4.564566; 63.000000 electrons
         Band energy:-530.318813;  BLOECHL correction: -0.011833
       DOS:  cpu time    0.0080: real time    0.0067
    CHARGE:  cpu time    2.0560: real time    2.1073
    MIXING:  cpu time    0.0480: real time    0.0463
    --------------------------------------------
      LOOP:  cpu time   80.7840: real time   81.5472

 eigenvalue-minimisations  :  1248
 total energy-change (2. order) : 0.1188558E+00  (-0.3443428E-01)
 number of electron      62.9999984 magnetization       8.8120427
 augmentation part        5.2888298 magnetization       6.9617264

 Broyden mixing:
  rms(total) = 0.68496E+00    rms(broyden)= 0.68486E+00
  rms(prec ) = 0.72359E+00
  weight for this iteration     100.00

 eigenvalues of (default mixing * dielectric matrix)
  average eigenvalue GAMMA=   0.2902
  0.4822  0.4548  0.4548  0.2047  0.0790  0.0660

 Free energy of the ion-electron system (eV)
  ---------------------------------------------------
  alpha Z        PSCENC =        24.60922623
  Ewald energy   TEWEN  =      7794.22900203
  -Hartree energ DENC   =    -10944.11576028
  -exchange      EXHF   =         0.00000000
  -V(xc)+E(xc)   XCENC  =        90.77677997
  PAW double counting   =      1885.38513517    -1939.80824149
  entropy T*S    EENTRO =         0.00000000
  eigenvalues    EBANDS =      -530.31881308
  atomic energy  EATOM  =      3580.64568177
  Solvation  Ediel_sol  =         0.00000000
  ---------------------------------------------------
  free energy    TOTEN  =       -38.59698968 eV

  energy without entropy =      -38.59698968  energy(sigma->0) =      -38.59698968


--------------------------------------------------------------------------------------------------------




--------------------------------------- Iteration      1(  12)  ---------------------------------------


    POTLOK:  cpu time   50.6800: real time   50.9221
    SETDIJ:  cpu time    0.0360: real time    0.0367
     EDDAV:  cpu time   29.4000: real time   29.6153
 BZINTS: Fermi energy: -4.550066; 63.000000 electrons
         Band energy:-530.206586;  BLOECHL correction: -0.012115
       DOS:  cpu time    0.0080: real time    0.0066
    CHARGE:  cpu time    2.0960: real time    2.0982
    MIXING:  cpu time    0.0480: real time    0.0501
    --------------------------------------------
      LOOP:  cpu time   82.2680: real time   82.7290

 eigenvalue-minimisations  :  1312
 total energy-change (2. order) : 0.4443632E-02  (-0.3847387E-02)
 number of electron      62.9999984 magnetization       8.8130464
 augmentation part        5.2539580 magnetization       6.9332433

 Broyden mixing:
  rms(total) = 0.65666E+00    rms(broyden)= 0.65665E+00
  rms(prec ) = 0.69285E+00
  weight for this iteration     100.00

 eigenvalues of (default mixing * dielectric matrix)
  average eigenvalue GAMMA=   0.2703
  0.4868  0.4526  0.4526  0.2052  0.1128  0.1128  0.0695

 Free energy of the ion-electron system (eV)
  ---------------------------------------------------
  alpha Z        PSCENC =        24.60922623
  Ewald energy   TEWEN  =      7794.22900203
  -Hartree energ DENC   =    -10944.22713923
  -exchange      EXHF   =         0.00000000
  -V(xc)+E(xc)   XCENC  =        90.77896177
  PAW double counting   =      1885.54758837    -1939.96928064
  entropy T*S    EENTRO =         0.00000000
  eigenvalues    EBANDS =      -530.20658634
  atomic energy  EATOM  =      3580.64568177
  Solvation  Ediel_sol  =         0.00000000
  ---------------------------------------------------
  free energy    TOTEN  =       -38.59254605 eV

  energy without entropy =      -38.59254605  energy(sigma->0) =      -38.59254605


--------------------------------------------------------------------------------------------------------




--------------------------------------- Iteration      1(  13)  ---------------------------------------


    POTLOK:  cpu time   50.7120: real time   51.2834
    SETDIJ:  cpu time    0.0400: real time    0.0385
     EDDAV:  cpu time   25.1080: real time   25.3600
 BZINTS: Fermi energy: -4.549905; 63.000000 electrons
         Band energy:-530.313191;  BLOECHL correction: -0.012086
       DOS:  cpu time    0.0040: real time    0.0068
    CHARGE:  cpu time    2.0520: real time    2.1116
    MIXING:  cpu time    0.0440: real time    0.0449
    --------------------------------------------
      LOOP:  cpu time   77.9600: real time   78.8452

 eigenvalue-minimisations  :  1104
 total energy-change (2. order) :-0.1345170E-01  (-0.8366004E-02)
 number of electron      62.9999984 magnetization       8.6601412
 augmentation part        5.2477655 magnetization       6.7800568

 Broyden mixing:
  rms(total) = 0.65805E+00    rms(broyden)= 0.65805E+00
  rms(prec ) = 0.69366E+00
  weight for this iteration     100.00

 eigenvalues of (default mixing * dielectric matrix)
  average eigenvalue GAMMA=   0.5199
  0.9186  0.9186  0.4879  0.4879  0.5297  0.5297  0.2145  0.0724

 Free energy of the ion-electron system (eV)
  ---------------------------------------------------
  alpha Z        PSCENC =        24.60922623
  Ewald energy   TEWEN  =      7794.22900203
  -Hartree energ DENC   =    -10944.15866915
  -exchange      EXHF   =         0.00000000
  -V(xc)+E(xc)   XCENC  =        90.77748100
  PAW double counting   =      1885.45287484    -1939.84840312
  entropy T*S    EENTRO =         0.00000000
  eigenvalues    EBANDS =      -530.31319136
  atomic energy  EATOM  =      3580.64568177
  Solvation  Ediel_sol  =         0.00000000
  ---------------------------------------------------
  free energy    TOTEN  =       -38.60599776 eV

  energy without entropy =      -38.60599776  energy(sigma->0) =      -38.60599776


--------------------------------------------------------------------------------------------------------




--------------------------------------- Iteration      1(  14)  ---------------------------------------


    POTLOK:  cpu time   51.0280: real time   51.2557
    SETDIJ:  cpu time    0.0400: real time    0.0396
     EDDAV:  cpu time   24.5000: real time   24.5720
 BZINTS: Fermi energy: -4.571744; 63.000000 electrons
         Band energy:-530.489256;  BLOECHL correction: -0.006660
       DOS:  cpu time    0.0040: real time    0.0069
    CHARGE:  cpu time    2.0440: real time    2.1231
    MIXING:  cpu time    0.0520: real time    0.0516
    --------------------------------------------
      LOOP:  cpu time   77.6680: real time   78.0489

 eigenvalue-minimisations  :  1056
 total energy-change (2. order) :-0.2374341E+00  (-0.4502629E-01)
 number of electron      62.9999984 magnetization       8.1377884
 augmentation part        5.5547839 magnetization       6.2329300

 Broyden mixing:
  rms(total) = 0.80821E+00    rms(broyden)= 0.80821E+00
  rms(prec ) = 0.86399E+00
  weight for this iteration     100.00

 eigenvalues of (default mixing * dielectric matrix)
  average eigenvalue GAMMA=   0.6427
  1.1838  1.1838  0.8293  0.8293  0.5623  0.4548  0.4548  0.2137  0.0724

 Free energy of the ion-electron system (eV)
  ---------------------------------------------------
  alpha Z        PSCENC =        24.60922623
  Ewald energy   TEWEN  =      7794.22900203
  -Hartree energ DENC   =    -10944.56610699
  -exchange      EXHF   =         0.00000000
  -V(xc)+E(xc)   XCENC  =        90.94530753
  PAW double counting   =      1884.06599227    -1938.28327917
  entropy T*S    EENTRO =         0.00000000
  eigenvalues    EBANDS =      -530.48925555
  atomic energy  EATOM  =      3580.64568177
  Solvation  Ediel_sol  =         0.00000000
  ---------------------------------------------------
  free energy    TOTEN  =       -38.84343188 eV

  energy without entropy =      -38.84343188  energy(sigma->0) =      -38.84343188


--------------------------------------------------------------------------------------------------------




--------------------------------------- Iteration      1(  15)  ---------------------------------------


    POTLOK:  cpu time   51.2320: real time   51.2666
    SETDIJ:  cpu time    0.0360: real time    0.0371
     EDDAV:  cpu time   31.8880: real time   32.1032
 BZINTS: Fermi energy: -4.454214; 62.973025 electrons
         Band energy:-525.862738;  BLOECHL correction: -0.011501
       DOS:  cpu time    0.0080: real time    0.0061
    CHARGE:  cpu time    2.0520: real time    2.0820
    MIXING:  cpu time    0.0440: real time    0.0467
    --------------------------------------------
      LOOP:  cpu time   85.2600: real time   85.5416

 eigenvalue-minimisations  :  1440
 total energy-change (2. order) : 0.2682372E+00  (-0.1007058E+00)
 number of electron      62.9730234 magnetization       7.8189062
 augmentation part        5.1221978 magnetization       6.0896978

 Broyden mixing:
  rms(total) = 0.52250E+00    rms(broyden)= 0.52242E+00
  rms(prec ) = 0.54560E+00
  weight for this iteration     100.00

 eigenvalues of (default mixing * dielectric matrix)
  average eigenvalue GAMMA=   0.6792
  1.0528  1.0528  0.9779  0.9779  0.9320  0.5987  0.4569  0.4569  0.2138  0.0724

 Free energy of the ion-electron system (eV)
  ---------------------------------------------------
  alpha Z        PSCENC =        24.60922623
  Ewald energy   TEWEN  =      7794.22900203
  -Hartree energ DENC   =    -10949.23678704
  -exchange      EXHF   =         0.00000000
  -V(xc)+E(xc)   XCENC  =        91.48752483
  PAW double counting   =      1889.51996508    -1943.96706930
  entropy T*S    EENTRO =         0.00000000
  eigenvalues    EBANDS =      -525.86273829
  atomic energy  EATOM  =      3580.64568177
  Solvation  Ediel_sol  =         0.00000000
  ---------------------------------------------------
  free energy    TOTEN  =       -38.57519469 eV

  energy without entropy =      -38.57519469  energy(sigma->0) =      -38.57519469


--------------------------------------------------------------------------------------------------------




--------------------------------------- Iteration      1(  16)  ---------------------------------------


    POTLOK:  cpu time   51.0240: real time   51.3159
    SETDIJ:  cpu time    0.0360: real time    0.0365
     EDDAV:  cpu time   29.9880: real time   30.1386
 BZINTS: Fermi energy: -4.461151; 63.000000 electrons
         Band energy:-527.871621;  BLOECHL correction: -0.009379
       DOS:  cpu time    0.0040: real time    0.0069
    CHARGE:  cpu time    2.1120: real time    2.1158
    MIXING:  cpu time    0.0480: real time    0.0477
    --------------------------------------------
      LOOP:  cpu time   83.2120: real time   83.6615

 eigenvalue-minimisations  :  1344
 total energy-change (2. order) :-0.9174787E-01  (-0.2082762E-01)
 number of electron      62.9999985 magnetization       7.5586401
 augmentation part        5.0516861 magnetization       5.9506123

 Broyden mixing:
  rms(total) = 0.52091E+00    rms(broyden)= 0.52090E+00
  rms(prec ) = 0.53923E+00
  weight for this iteration     100.00

 eigenvalues of (default mixing * dielectric matrix)
  average eigenvalue GAMMA=   0.7465
  1.9510  1.0909  1.0909  0.7642  0.7642  0.7921  0.4569  0.4569  0.5583  0.2137
  0.0724

 Free energy of the ion-electron system (eV)
  ---------------------------------------------------
  alpha Z        PSCENC =        24.60922623
  Ewald energy   TEWEN  =      7794.22900203
  -Hartree energ DENC   =    -10947.35538223
  -exchange      EXHF   =         0.00000000
  -V(xc)+E(xc)   XCENC  =        91.58952413
  PAW double counting   =      1886.26750762    -1940.78088073
  entropy T*S    EENTRO =         0.00000000
  eigenvalues    EBANDS =      -527.87162137
  atomic energy  EATOM  =      3580.64568177
  Solvation  Ediel_sol  =         0.00000000
  ---------------------------------------------------
  free energy    TOTEN  =       -38.66694256 eV

  energy without entropy =      -38.66694256  energy(sigma->0) =      -38.66694256


--------------------------------------------------------------------------------------------------------




--------------------------------------- Iteration      1(  17)  ---------------------------------------


    POTLOK:  cpu time   51.0080: real time   51.0955
    SETDIJ:  cpu time    0.0360: real time    0.0376
     EDDAV:  cpu time   28.4280: real time   28.7923
 BZINTS: Fermi energy: -4.502470; 63.000000 electrons
         Band energy:-531.125180;  BLOECHL correction: -0.010827
       DOS:  cpu time    0.0040: real time    0.0064
    CHARGE:  cpu time    2.0880: real time    2.0904
    MIXING:  cpu time    0.0480: real time    0.0486
    --------------------------------------------
      LOOP:  cpu time   81.6120: real time   82.0708

 eigenvalue-minimisations  :  1264
 total energy-change (2. order) :-0.1101520E+00  (-0.9662849E-02)
 number of electron      62.9999985 magnetization       7.3174044
 augmentation part        5.1150100 magnetization       5.6686525

 Broyden mixing:
  rms(total) = 0.53100E+00    rms(broyden)= 0.53100E+00
  rms(prec ) = 0.55289E+00
  weight for this iteration     100.00

 eigenvalues of (default mixing * dielectric matrix)
  average eigenvalue GAMMA=   0.7961
  2.3644  1.1429  1.1429  0.8557  0.8557  0.8392  0.4570  0.4570  0.5760  0.5760
  0.2137  0.0724

 Free energy of the ion-electron system (eV)
  ---------------------------------------------------
  alpha Z        PSCENC =        24.60922623
  Ewald energy   TEWEN  =      7794.22900203
  -Hartree energ DENC   =    -10944.13672555
  -exchange      EXHF   =         0.00000000
  -V(xc)+E(xc)   XCENC  =        91.44150074
  PAW double counting   =      1881.97945213    -1936.42005242
  entropy T*S    EENTRO =         0.00000000
  eigenvalues    EBANDS =      -531.12517953
  atomic energy  EATOM  =      3580.64568177
  Solvation  Ediel_sol  =         0.00000000
  ---------------------------------------------------
  free energy    TOTEN  =       -38.77709460 eV

  energy without entropy =      -38.77709460  energy(sigma->0) =      -38.77709460


--------------------------------------------------------------------------------------------------------




--------------------------------------- Iteration      1(  18)  ---------------------------------------


    POTLOK:  cpu time   51.0960: real time   51.1781
    SETDIJ:  cpu time    0.0360: real time    0.0370
     EDDAV:  cpu time   28.4120: real time   28.5654
 BZINTS: Fermi energy: -4.513400; 63.000000 electrons
         Band energy:-531.691412;  BLOECHL correction: -0.009952
       DOS:  cpu time    0.0040: real time    0.0068
    CHARGE:  cpu time    2.0920: real time    2.1012
    MIXING:  cpu time    0.0480: real time    0.0492
    --------------------------------------------
      LOOP:  cpu time   81.6880: real time   81.9376

 eigenvalue-minimisations  :  1264
 total energy-change (2. order) :-0.4345073E-01  (-0.6364583E-02)
 number of electron      62.9999985 magnetization       7.0084412
 augmentation part        5.0399898 magnetization       5.3945557

 Broyden mixing:
  rms(total) = 0.46115E+00    rms(broyden)= 0.46115E+00
  rms(prec ) = 0.47957E+00
  weight for this iteration     100.00

 eigenvalues of (default mixing * dielectric matrix)
  average eigenvalue GAMMA=   0.8407
  2.6588  1.1559  1.1559  1.0483  1.0483  0.7669  0.7669  0.4570  0.4570  0.5750
  0.5534  0.2137  0.0724

 Free energy of the ion-electron system (eV)
  ---------------------------------------------------
  alpha Z        PSCENC =        24.60922623
  Ewald energy   TEWEN  =      7794.22900203
  -Hartree energ DENC   =    -10943.24585765
  -exchange      EXHF   =         0.00000000
  -V(xc)+E(xc)   XCENC  =        91.29324298
  PAW double counting   =      1882.07991028    -1936.74033942
  entropy T*S    EENTRO =         0.00000000
  eigenvalues    EBANDS =      -531.69141154
  atomic energy  EATOM  =      3580.64568177
  Solvation  Ediel_sol  =         0.00000000
  ---------------------------------------------------
  free energy    TOTEN  =       -38.82054533 eV

  energy without entropy =      -38.82054533  energy(sigma->0) =      -38.82054533


--------------------------------------------------------------------------------------------------------




--------------------------------------- Iteration      1(  19)  ---------------------------------------


    POTLOK:  cpu time   50.7680: real time   51.0817
    SETDIJ:  cpu time    0.0680: real time    0.0661
     EDDAV:  cpu time   32.5480: real time   32.9847
 BZINTS: Fermi energy: -4.528576; 63.000000 electrons
         Band energy:-532.907153;  BLOECHL correction: -0.010818
       DOS:  cpu time    0.0040: real time    0.0063
    CHARGE:  cpu time    2.0840: real time    2.0869
    MIXING:  cpu time    0.0520: real time    0.0507
    --------------------------------------------
      LOOP:  cpu time   85.5240: real time   86.2764

 eigenvalue-minimisations  :  1472
 total energy-change (2. order) :-0.5851902E-01  (-0.5174395E-02)
 number of electron      62.9999985 magnetization       6.7040503
 augmentation part        5.0487557 magnetization       5.0728464

 Broyden mixing:
  rms(total) = 0.45080E+00    rms(broyden)= 0.45080E+00
  rms(prec ) = 0.47059E+00
  weight for this iteration     100.00

 eigenvalues of (default mixing * dielectric matrix)
  average eigenvalue GAMMA=   0.8919
  3.1241  1.1520  1.1520  1.1714  1.1714  0.8940  0.8940  0.4571  0.4571  0.6231
  0.6231  0.2137  0.4810  0.0724

 Free energy of the ion-electron system (eV)
  ---------------------------------------------------
  alpha Z        PSCENC =        24.60922623
  Ewald energy   TEWEN  =      7794.22900203
  -Hartree energ DENC   =    -10941.81896981
  -exchange      EXHF   =         0.00000000
  -V(xc)+E(xc)   XCENC  =        91.17006451
  PAW double counting   =      1881.38920246    -1936.19611833
  entropy T*S    EENTRO =         0.00000000
  eigenvalues    EBANDS =      -532.90715321
  atomic energy  EATOM  =      3580.64568177
  Solvation  Ediel_sol  =         0.00000000
  ---------------------------------------------------
  free energy    TOTEN  =       -38.87906435 eV

  energy without entropy =      -38.87906435  energy(sigma->0) =      -38.87906435


--------------------------------------------------------------------------------------------------------




--------------------------------------- Iteration      1(  20)  ---------------------------------------


    POTLOK:  cpu time   50.9800: real time   51.1553
    SETDIJ:  cpu time    0.0400: real time    0.0407
     EDDAV:  cpu time   27.2920: real time   27.6084
 BZINTS: Fermi energy: -4.527996; 63.000000 electrons
         Band energy:-533.333626;  BLOECHL correction: -0.010661
       DOS:  cpu time    0.0080: real time    0.0071
    CHARGE:  cpu time    2.0400: real time    2.0774
    MIXING:  cpu time    0.0520: real time    0.0521
    --------------------------------------------
      LOOP:  cpu time   80.4120: real time   80.9410

 eigenvalue-minimisations  :  1216
 total energy-change (2. order) :-0.3444306E-01  (-0.2059922E-02)
 number of electron      62.9999985 magnetization       6.3702546
 augmentation part        5.0489459 magnetization       4.7278791

 Broyden mixing:
  rms(total) = 0.43537E+00    rms(broyden)= 0.43537E+00
  rms(prec ) = 0.45604E+00
  weight for this iteration     100.00

 eigenvalues of (default mixing * dielectric matrix)
  average eigenvalue GAMMA=   0.9603
  3.5776  1.6964  1.1555  1.1555  1.0448  1.0448  0.8615  0.8615  0.4570  0.4570
  0.7434  0.2137  0.5748  0.4882  0.0724

 Free energy of the ion-electron system (eV)
  ---------------------------------------------------
  alpha Z        PSCENC =        24.60922623
  Ewald energy   TEWEN  =      7794.22900203
  -Hartree energ DENC   =    -10941.17147793
  -exchange      EXHF   =         0.00000000
  -V(xc)+E(xc)   XCENC  =        91.09821913
  PAW double counting   =      1881.62009847    -1936.61063084
  entropy T*S    EENTRO =         0.00000000
  eigenvalues    EBANDS =      -533.33362627
  atomic energy  EATOM  =      3580.64568177
  Solvation  Ediel_sol  =         0.00000000
  ---------------------------------------------------
  free energy    TOTEN  =       -38.91350741 eV

  energy without entropy =      -38.91350741  energy(sigma->0) =      -38.91350741


--------------------------------------------------------------------------------------------------------




--------------------------------------- Iteration      1(  21)  ---------------------------------------


    POTLOK:  cpu time   50.9040: real time   51.0414
    SETDIJ:  cpu time    0.0360: real time    0.0359
     EDDAV:  cpu time   24.9280: real time   25.1324
 BZINTS: Fermi energy: -4.513897; 63.000000 electrons
         Band energy:-532.248401;  BLOECHL correction: -0.010288
       DOS:  cpu time    0.0040: real time    0.0066
    CHARGE:  cpu time    2.0440: real time    2.0901
    MIXING:  cpu time    0.0520: real time    0.0539
    --------------------------------------------
      LOOP:  cpu time   77.9680: real time   78.3603

 eigenvalue-minimisations  :  1088
 total energy-change (2. order) : 0.7427345E-02  (-0.2325366E-02)
 number of electron      62.9999985 magnetization       5.9697060
 augmentation part        5.0033236 magnetization       4.3537102

 Broyden mixing:
  rms(total) = 0.38005E+00    rms(broyden)= 0.38005E+00
  rms(prec ) = 0.39835E+00
  weight for this iteration     100.00

 eigenvalues of (default mixing * dielectric matrix)
  average eigenvalue GAMMA=   1.1166
  5.7878  1.9783  1.1550  1.1550  1.1029  1.1029  0.9590  0.8540  0.8540  0.4570
  0.4570  0.2137  0.6153  0.6153  0.4856  0.0724

 Free energy of the ion-electron system (eV)
  ---------------------------------------------------
  alpha Z        PSCENC =        24.60922623
  Ewald energy   TEWEN  =      7794.22900203
  -Hartree energ DENC   =    -10942.10224830
  -exchange      EXHF   =         0.00000000
  -V(xc)+E(xc)   XCENC  =        91.09887335
  PAW double counting   =      1884.11831612    -1939.25653012
  entropy T*S    EENTRO =         0.00000000
  eigenvalues    EBANDS =      -532.24840114
  atomic energy  EATOM  =      3580.64568177
  Solvation  Ediel_sol  =         0.00000000
  ---------------------------------------------------
  free energy    TOTEN  =       -38.90608006 eV

  energy without entropy =      -38.90608006  energy(sigma->0) =      -38.90608006


--------------------------------------------------------------------------------------------------------




--------------------------------------- Iteration      1(  22)  ---------------------------------------


    POTLOK:  cpu time   50.8320: real time   51.0533
    SETDIJ:  cpu time    0.0360: real time    0.0383
     EDDAV:  cpu time   28.0320: real time   28.2010
 BZINTS: Fermi energy: -4.602959; 63.000000 electrons
         Band energy:-536.532860;  BLOECHL correction: -0.005944
       DOS:  cpu time    0.0040: real time    0.0068
    CHARGE:  cpu time    2.1040: real time    2.1284
    MIXING:  cpu time    0.0520: real time    0.0547
    --------------------------------------------
      LOOP:  cpu time   81.0600: real time   81.4825

 eigenvalue-minimisations  :  1232
 total energy-change (2. order) :-0.3654035E+01  (-0.8652338E-03)
 number of electron      62.9999985 magnetization       5.9697991
 augmentation part        4.6960257 magnetization       5.6640886

 Broyden mixing:
  rms(total) = 0.10261E+01    rms(broyden)= 0.10208E+01
  rms(prec ) = 0.11274E+01
  weight for this iteration     100.00

 eigenvalues of (default mixing * dielectric matrix)
  average eigenvalue GAMMA=   1.0509
  5.7881  1.9786  1.1550  1.1550  1.1029  1.1029  0.9592  0.8539  0.8539  0.4570
  0.4570  0.6153  0.6153  0.2137  0.4856  0.0724  0.0002

 Free energy of the ion-electron system (eV)
  ---------------------------------------------------
  alpha Z        PSCENC =        24.60922623
  Ewald energy   TEWEN  =      7794.22900203
  -Hartree energ DENC   =    -10941.41035328
  -exchange      EXHF   =         0.00000000
  -V(xc)+E(xc)   XCENC  =        91.05444278
  PAW double counting   =      1884.19227593    -1939.34753084
  entropy T*S    EENTRO =         0.00000000
  eigenvalues    EBANDS =      -536.53286010
  atomic energy  EATOM  =      3580.64568177
  Solvation  Ediel_sol  =         0.00000000
  ---------------------------------------------------
  free energy    TOTEN  =       -42.56011548 eV

  energy without entropy =      -42.56011548  energy(sigma->0) =      -42.56011548


[...]
     34      -1.1750      0.00000
     35      -1.0424      0.00000
     36      -0.3563      0.00000
     37       0.8880      0.00000
     38       1.1666      0.00000
     39       1.2607      0.00000
     40       2.0279      0.00000
     41       2.4030      0.00000
     42       2.4836      0.00000
     43       2.7661      0.00000
     44       3.0701      0.00000
     45       3.5029      0.00000
     46       3.5364      0.00000
     47       3.9308      0.00000
     48       4.2310      0.00000

 k-point     5 :      -0.4000    0.2000    0.0000
  band No.  band energies     occupation 
      1     -17.6255      1.00000
      2     -16.4257      1.00000
      3     -16.0485      1.00000
      4     -15.8964      1.00000
      5     -15.5047      1.00000
      6     -15.3077      1.00000
      7     -11.9472      1.00000
      8      -9.8670      1.00000
      9      -8.6786      1.00000
     10      -8.1835      1.00000
     11      -7.8748      1.00000
     12      -7.2849      1.00000
     13      -7.1986      1.00000
     14      -6.5817      1.00000
     15      -6.2969      1.00000
     16      -6.2179      1.00000
     17      -6.0345      1.00000
     18      -5.7131      1.00000
     19      -5.6431      1.00000
     20      -5.3298      1.00000
     21      -5.3025      1.00000
     22      -4.4682      1.00000
     23      -4.3746      1.00000
     24      -4.2053      1.00000
     25      -4.1691      1.00000
     26      -3.5294      1.00000
     27      -3.3326      1.00000
     28      -3.2271      1.00000
     29      -2.9551      1.00000
     30      -2.8615      1.00000
     31      -2.8354      1.00000
     32      -1.6836     -0.00267
     33      -1.5045      0.00000
     34      -1.1791      0.00000
     35      -0.8795      0.00000
     36      -0.5990      0.00000
     37       0.6767      0.00000
     38       0.7853      0.00000
     39       1.0892      0.00000
     40       1.8772      0.00000
     41       2.1477      0.00000
     42       2.1639      0.00000
     43       3.3221      0.00000
     44       3.4815      0.00000
     45       3.5106      0.00000
     46       3.7305      0.00000
     47       3.8792      0.00000
     48       4.3466      0.00000


--------------------------------------------------------------------------------------------------------


 soft charge-density along one line, spin component           1
         0         1         2         3         4         5         6         7         8         9
 total charge-density along one line

 soft charge-density along one line, spin component           2
         0         1         2         3         4         5         6         7         8         9
 total charge-density along one line

 pseudopotential strength for first ion, spin component:           1
-10.215  -0.142  -0.000   0.014  -0.000   0.941   0.050   0.000
 -0.142 -10.380   0.000  -0.000   0.014   0.050   0.999  -0.000
 -0.000   0.000 -10.143   0.000   0.000   0.000  -0.000   0.916
  0.014  -0.000   0.000 -10.380   0.142  -0.005   0.000  -0.000
 -0.000   0.014   0.000   0.142 -10.215   0.000  -0.005  -0.000
  0.941   0.050   0.000  -0.005   0.000   0.689  -0.018  -0.000
  0.050   0.999  -0.000   0.000  -0.005  -0.018   0.668   0.000
  0.000  -0.000   0.916  -0.000  -0.000  -0.000   0.000   0.698
 -0.005   0.000  -0.000   0.999  -0.050   0.002  -0.000   0.000
  0.000  -0.005  -0.000  -0.050   0.941  -0.000   0.002   0.000
 -0.000  -0.000   0.007  -0.000   0.000  -0.000  -0.000  -0.002
  0.000   0.000  -0.001   0.000  -0.000  -0.000  -0.000   0.000
 -0.001   0.002   0.000  -0.000   0.001   0.000  -0.000  -0.000
 -0.000  -0.000   0.003  -0.000   0.000  -0.000   0.000  -0.001
  0.001  -0.000   0.000   0.002   0.001   0.000  -0.000  -0.000
  0.000  -0.002  -0.000   0.000  -0.001  -0.000   0.000   0.000
  0.000   0.000  -0.002   0.000  -0.000  -0.000  -0.000   0.001
 -0.001   0.000  -0.000  -0.002  -0.000   0.000  -0.000   0.000
 pseudopotential strength for first ion, spin component:           2
 -9.956  -0.042  -0.000  -0.013  -0.000   0.846   0.015   0.000
 -0.042 -10.026   0.000  -0.000  -0.013   0.015   0.871  -0.000
 -0.000   0.000  -9.955   0.000   0.000   0.000  -0.000   0.845
 -0.013  -0.000   0.000 -10.026   0.042   0.005   0.000  -0.000
 -0.000  -0.013   0.000   0.042  -9.956   0.000   0.005  -0.000
  0.846   0.015   0.000   0.005   0.000   0.724  -0.007  -0.000
  0.015   0.871  -0.000   0.000   0.005  -0.007   0.714   0.000
  0.000  -0.000   0.845  -0.000  -0.000  -0.000   0.000   0.725
  0.005   0.000  -0.000   0.871  -0.015  -0.002  -0.000   0.000
  0.000   0.005  -0.000  -0.015   0.846  -0.000  -0.002   0.000
 -0.000  -0.000   0.004  -0.000   0.000  -0.000  -0.000  -0.001
  0.000   0.000  -0.000   0.000  -0.000  -0.000  -0.000   0.000
 -0.000   0.003   0.000  -0.000   0.001   0.000  -0.001  -0.000
 -0.000  -0.000   0.003  -0.000  -0.000  -0.000   0.000  -0.001
  0.001  -0.000   0.000   0.003   0.000  -0.000  -0.000  -0.000
  0.000  -0.002  -0.000   0.000  -0.001  -0.000   0.001   0.000
  0.000   0.000  -0.002   0.000   0.000  -0.000  -0.000   0.001
 -0.001   0.000  -0.000  -0.002  -0.000   0.000  -0.000   0.000
 total augmentation occupancy for first ion, spin component:           1
  1.690  -0.308   0.000   0.006  -0.000   0.091   0.168   0.000   0.002   0.000  -0.000  -0.000  -0.007   0.000   0.013  -0.000
 -0.308   1.403  -0.000  -0.000   0.006   0.164   0.251   0.000   0.000   0.002  -0.000  -0.000  -0.004  -0.000   0.004   0.001
  0.000  -0.000   1.928  -0.000  -0.000   0.000   0.000  -0.053   0.000  -0.000  -0.014  -0.007  -0.000   0.007   0.000   0.000
  0.006  -0.000  -0.000   1.403   0.308   0.002  -0.000   0.000   0.251  -0.164   0.000   0.000  -0.004   0.000  -0.004   0.000
 -0.000   0.006  -0.000   0.308   1.690  -0.000   0.002  -0.000  -0.168   0.091   0.000   0.000   0.013  -0.000   0.007  -0.000
  0.091   0.164   0.000   0.002  -0.000   0.130   0.083   0.000  -0.005  -0.000   0.000  -0.000   0.001  -0.000   0.010  -0.000
  0.168   0.251   0.000  -0.000   0.002   0.083   0.211   0.000  -0.000  -0.005   0.000   0.000   0.001   0.000  -0.003  -0.000
  0.000   0.000  -0.053   0.000  -0.000   0.000   0.000   0.105   0.000  -0.000   0.033  -0.015  -0.000  -0.002   0.000   0.000
  0.002   0.000   0.000   0.251  -0.168  -0.005  -0.000   0.000   0.211  -0.083  -0.000   0.000   0.003  -0.000   0.001  -0.000
  0.000   0.002  -0.000  -0.164   0.091  -0.000  -0.005  -0.000  -0.083   0.130  -0.000   0.000   0.010   0.000  -0.001  -0.003
 -0.000  -0.000  -0.014   0.000   0.000   0.000   0.000   0.033  -0.000  -0.000   1.050  -0.349  -0.000  -0.005   0.000   0.000
 -0.000  -0.000  -0.007   0.000   0.000  -0.000   0.000  -0.015   0.000   0.000  -0.349   0.192  -0.000  -0.002   0.000   0.000
 -0.007  -0.004  -0.000  -0.004   0.013   0.001   0.001  -0.000   0.003   0.010  -0.000  -0.000   0.212   0.000  -0.000  -0.018
  0.000  -0.000   0.007   0.000  -0.000  -0.000   0.000  -0.002  -0.000   0.000  -0.005  -0.002   0.000   0.220   0.000  -0.000
  0.013   0.004   0.000  -0.004   0.007   0.010  -0.003   0.000   0.001  -0.001   0.000   0.000  -0.000   0.000   0.212   0.000
 -0.000   0.001   0.000   0.000  -0.000  -0.000  -0.000   0.000  -0.000  -0.003  -0.000   0.000  -0.018  -0.000   0.000   0.002
  0.000  -0.000   0.002   0.000  -0.000  -0.000  -0.000  -0.000   0.000   0.000   0.000   0.000  -0.000  -0.020  -0.000  -0.000
 -0.000  -0.000  -0.000   0.001   0.000  -0.003   0.000  -0.000  -0.000   0.000   0.000  -0.000  -0.000  -0.000  -0.018  -0.000
 total augmentation occupancy for first ion, spin component:           2
  0.044   0.068   0.000  -0.019  -0.000  -0.033  -0.025  -0.000   0.010  -0.002   0.000   0.000   0.002  -0.000   0.001   0.000
  0.068   0.110   0.000  -0.000  -0.019  -0.025  -0.059  -0.000  -0.002   0.008   0.000   0.000   0.003   0.000   0.002   0.000
  0.000   0.000  -0.002   0.000  -0.000  -0.000  -0.000  -0.016  -0.000   0.000   0.001   0.001   0.000  -0.000   0.000   0.000
 -0.019  -0.000   0.000   0.110  -0.068   0.008   0.002  -0.000  -0.059   0.025  -0.000  -0.000  -0.002  -0.000   0.003  -0.000
 -0.000  -0.019  -0.000  -0.068   0.044   0.002   0.010   0.000   0.025  -0.033  -0.000  -0.000   0.001   0.000  -0.002   0.000
 -0.033  -0.025  -0.000   0.008   0.002   0.004   0.005   0.000  -0.003  -0.000  -0.000   0.000  -0.001  -0.000  -0.001  -0.000
 -0.025  -0.059  -0.000   0.002   0.010   0.005   0.009   0.000  -0.000  -0.003  -0.000  -0.000  -0.001  -0.000  -0.001  -0.000
 -0.000  -0.000  -0.016  -0.000   0.000   0.000   0.000   0.002   0.000  -0.000  -0.000   0.000  -0.000  -0.000  -0.000  -0.000
  0.010  -0.002  -0.000  -0.059   0.025  -0.003  -0.000   0.000   0.009  -0.005   0.000   0.000   0.001   0.000  -0.001   0.000
 -0.002   0.008   0.000   0.025  -0.033  -0.000  -0.003  -0.000  -0.005   0.004   0.000  -0.000  -0.001   0.000   0.001   0.000
  0.000   0.000   0.001  -0.000  -0.000  -0.000  -0.000  -0.000   0.000   0.000   0.008   0.011   0.000   0.000   0.000  -0.000
  0.000   0.000   0.001  -0.000  -0.000   0.000  -0.000   0.000   0.000  -0.000   0.011  -0.008   0.000  -0.000   0.000   0.000
  0.002   0.003   0.000  -0.002   0.001  -0.001  -0.001  -0.000   0.001  -0.001   0.000  -0.000   0.001  -0.000  -0.000   0.000
 -0.000   0.000  -0.000  -0.000   0.000  -0.000   0.000  -0.000   0.000   0.000   0.000  -0.000  -0.000   0.001  -0.000  -0.000
  0.001   0.002   0.000   0.003  -0.002  -0.001  -0.001  -0.000  -0.001   0.001   0.000   0.000  -0.000  -0.000   0.001   0.000
  0.000   0.000   0.000  -0.000   0.000  -0.000  -0.000  -0.000   0.000   0.000  -0.000   0.000   0.000   0.000   0.000  -0.000
  0.000   0.000   0.000   0.000  -0.000  -0.000   0.000  -0.000   0.000   0.000   0.000  -0.000   0.000   0.001   0.000  -0.000
  0.000   0.000   0.000   0.000  -0.000   0.000  -0.000   0.000  -0.000   0.000   0.000   0.000  -0.000   0.000   0.000   0.000


------------------------ aborting loop because EDIFF is reached ----------------------------------------





 total charge     

# of ion       s       p       d       tot
------------------------------------------
    1        0.382   0.494   7.390   8.265
    2        0.381   0.494   7.388   8.264
    3        0.734   0.900   0.000   1.634
    4        1.024   1.430   0.000   2.454
    5        1.381   2.295   0.000   3.676
    6        1.367   2.305   0.000   3.673
    7        1.377   2.297   0.000   3.674
    8        1.367   2.329   0.000   3.696
    9        1.361   2.371   0.000   3.732
   10        1.365   2.340   0.000   3.705
--------------------------------------------------
tot         10.740  17.256  14.778  42.773



 magnetization (x)

# of ion       s       p       d       tot
------------------------------------------
    1        0.001   0.001   0.359   0.361
    2        0.001   0.001   0.359   0.361
    3        0.006   0.015   0.000   0.021
    4        0.012   0.015   0.000   0.027
    5        0.008   0.009   0.000   0.018
    6        0.006   0.004   0.000   0.010
    7        0.006   0.009   0.000   0.015
    8        0.007  -0.005   0.000   0.002
    9        0.006   0.006   0.000   0.013
   10        0.005  -0.001   0.000   0.005
--------------------------------------------------
tot          0.059   0.055   0.718   0.832

    CHARGE:  cpu time    2.1640: real time    2.1652
    FORLOC:  cpu time    0.0640: real time    0.0627
    FORNL :  cpu time    6.6600: real time    6.8881
    STRESS:  cpu time   20.5720: real time   20.7505
    FORCOR:  cpu time   52.2760: real time   52.4766
    FORHAR:  cpu time    0.3400: real time    0.3404
    MIXING:  cpu time    0.0400: real time    0.0400
    OFIELD:  cpu time    0.0000: real time    0.0000

  FORCE on cell =-STRESS in cart. coord.  units (eV):
  Direction    XX          YY          ZZ          XY          YZ          ZX
  --------------------------------------------------------------------------------------
  Alpha Z    39.73979    39.73979    39.73979
  Ewald   12660.29683 12660.29370-14895.61589    -0.00210    -0.00063    -0.00113
  Hartree 13240.08086 13240.08166-12830.03763    -0.00033     0.00006     0.00009
  E(xc)    -253.90856  -253.90857  -253.76314     0.00003     0.00001     0.00001
  Local  -26834.82469-26834.82393 26745.45327     0.00194     0.00037     0.00068
  n-local   463.90374   465.50900   470.40407     0.75234     0.81311     0.72814
  augment   -23.82810   -23.82796   -28.86256     0.00005    -0.00001     0.00008
  Kinetic   711.90165   703.48286   752.65866    -4.67559    -0.83993    -1.11376
  Fock        0.00000     0.00000     0.00000     0.00000     0.00000     0.00000
  -------------------------------------------------------------------------------------
  Total      -0.04597    -0.04597    -0.02342    -0.00000    -0.00000     0.00000
  in kB      -0.12275    -0.12275    -0.06255    -0.00000    -0.00000     0.00000
  external pressure =       -0.10 kB  Pullay stress =        0.00 kB


 VOLUME and BASIS-vectors are now :
 -----------------------------------------------------------------------------
  energy-cutoff  :      520.00
  volume of cell :      599.96
      direct lattice vectors                 reciprocal lattice vectors
     5.781826557  0.000000102  0.000000000     0.172955726 -0.099856026 -0.000000000
     2.890912937  5.007208545  0.000000000    -0.000000004  0.199712075  0.000000000
     0.000000000 -0.000000000 20.723421077    -0.000000000 -0.000000000  0.048254581

  length of vectors
     5.781826557  5.781826271 20.723421077     0.199712065  0.199712075  0.048254581


 FORCES acting on ions
    electron-ion (+dipol)            ewald-force                    non-local-force                 convergence-correction
 -----------------------------------------------------------------------------------------------
   -.148E-03 -.991E-04 0.922E+01   0.828E-03 0.488E-03 -.996E+01   -.684E-17 0.138E-16 0.776E+00   0.784E-07 -.706E-07 -.341E-02
   0.155E-03 0.909E-04 0.837E+01   -.821E-03 -.484E-03 -.911E+01   0.965E-19 -.336E-19 0.761E+00   0.195E-07 -.787E-07 -.875E-03
   -.297E-04 -.194E-04 0.294E+03   -.225E-03 -.127E-03 -.290E+03   -.536E-18 0.187E-18 -.423E+01   -.264E-07 -.148E-07 0.497E-02
   0.408E-04 0.271E-04 -.344E+03   0.282E-03 0.158E-03 0.338E+03   -.200E-16 0.136E-16 0.644E+01   -.877E-07 -.476E-07 -.105E-01
   -.133E+02 0.300E-01 -.580E+03   0.935E+01 -.153E-01 0.584E+03   0.391E+01 -.558E-02 -.443E+01   -.146E-01 -.121E-01 -.200E-01
   0.665E+01 0.115E+02 -.580E+03   -.469E+01 -.809E+01 0.584E+03   -.196E+01 -.339E+01 -.443E+01   -.316E-02 0.187E-01 -.200E-01
   0.660E+01 -.115E+02 -.580E+03   -.466E+01 0.811E+01 0.584E+03   -.195E+01 0.339E+01 -.443E+01   0.178E-01 -.661E-02 -.200E-01
   0.241E+02 0.699E-02 0.589E+03   -.210E+02 0.409E-02 -.593E+03   -.308E+01 0.365E-02 0.425E+01   0.111E-01 -.117E-01 0.172E-01
   -.120E+02 -.208E+02 0.589E+03   0.105E+02 0.182E+02 -.593E+03   0.154E+01 0.266E+01 0.425E+01   -.157E-01 -.377E-02 0.172E-01
   -.120E+02 0.208E+02 0.589E+03   0.105E+02 -.182E+02 -.593E+03   0.154E+01 -.267E+01 0.425E+01   0.456E-02 0.154E-01 0.172E-01
 -----------------------------------------------------------------------------------------------
   0.410E-04 0.321E-04 -.320E+01   0.711E-14 0.000E+00 0.227E-12   0.000E+00 0.444E-15 0.321E+01   -.263E-07 -.211E-06 -.181E-01


 POSITION                                       TOTAL-FORCE (eV/Angst)
 -----------------------------------------------------------------------------------
      2.89091      1.66907     10.36524        -0.000000     -0.000000      0.029847
      5.78183      3.33814     10.36635        -0.000000     -0.000000      0.024696
      0.00000     -0.00000      9.25343        -0.000000      0.000000     -0.060695
      0.00000     -0.00000     11.45744        -0.000000      0.000000      0.041206
      3.67526      0.00050     11.78789         0.000626     -0.002075      0.003214
      1.05372      1.82409     11.78789        -0.002110      0.000496      0.003214
      3.94376      3.18262     11.78789         0.001484      0.001579      0.003214
      5.01461      5.00677      8.93699        -0.001797      0.002225     -0.014899
      7.61051      3.16825      8.93699         0.002826      0.000444     -0.014899
      4.72035      1.83940      8.93699        -0.001029     -0.002669     -0.014899
 -----------------------------------------------------------------------------------
    total drift:                                0.000041      0.000032     -0.008796


--------------------------------------------------------------------------------------------------------



  FREE ENERGIE OF THE ION-ELECTRON SYSTEM (eV)
  ---------------------------------------------------
  free  energy   TOTEN  =       -48.73757998 eV

  energy  without entropy=      -48.73757998  energy(sigma->0) =      -48.73757998

 d Force =-0.9912502E-06[-0.184E-05,-0.142E-06]  d Energy =-0.3679175E-05 0.269E-05
 d Force =-0.5107541E-01[-0.511E-01,-0.511E-01]  d Ewald  =-0.1449177E+01 0.140E+01


--------------------------------------------------------------------------------------------------------


    POTLOK:  cpu time   52.5520: real time   52.6382


--------------------------------------------------------------------------------------------------------




--------------------------------------------------------------------------------------------------------


  
 reached required accuracy - stopping structural energy minimisation
     LOOP+:  cpu time  285.2840: real time  288.0082
    4ORBIT:  cpu time    0.0000: real time    0.0000



 total charge     

# of ion       s       p       d       tot
------------------------------------------
    1        0.382   0.494   7.390   8.265
    2        0.381   0.494   7.388   8.264
    3        0.734   0.900   0.000   1.634
    4        1.024   1.430   0.000   2.454
    5        1.381   2.295   0.000   3.676
    6        1.367   2.305   0.000   3.673
    7        1.377   2.297   0.000   3.674
    8        1.367   2.329   0.000   3.696
    9        1.361   2.371   0.000   3.732
   10        1.365   2.340   0.000   3.705
--------------------------------------------------
tot         10.740  17.256  14.778  42.773



 magnetization (x)

# of ion       s       p       d       tot
------------------------------------------
    1        0.001   0.001   0.359   0.361
    2        0.001   0.001   0.359   0.361
    3        0.006   0.015   0.000   0.021
    4        0.012   0.015   0.000   0.027
    5        0.008   0.009   0.000   0.018
    6        0.006   0.004   0.000   0.010
    7        0.006   0.009   0.000   0.015
    8        0.007  -0.005   0.000   0.002
    9        0.006   0.006   0.000   0.013
   10        0.005  -0.001   0.000   0.005
--------------------------------------------------
tot          0.059   0.055   0.718   0.832

 BZINTS: Fermi energy: -1.908831; 63.000000 electrons
         Band energy:-486.952473;  BLOECHL correction: -0.011357

 total amount of memory used by VASP MPI-rank0   131832. kBytes
=======================================================================

   base      :      30000. kBytes
   nonlr-proj:       9347. kBytes
   fftplans  :      11247. kBytes
   grid      :      68332. kBytes
   one-center:        311. kBytes
   wavefun   :      12595. kBytes

  
  
 General timing and accounting informations for this job:
 ========================================================
  
                  Total CPU time used (sec):    14381.864
                            User time (sec):    14036.780
                          System time (sec):      345.084
                         Elapsed time (sec):    14497.262
  
                   Maximum memory used (kb):      384560.
                   Average memory used (kb):           0.
  
                          Minor page faults:     13097593
                          Major page faults:            7
                 Voluntary context switches:         1105
