 vasp.5.4.4.18Apr17-6-g9f103f2a35 (build May  1 2020 15:48:39) complex           
 executed on             LinuxGNU date 2020.07.04  12:38:09
 running on   16 total cores
 distrk:  each k-point on   16 cores,    1 groups
 distr:  one band on NCORES_PER_BAND=   1 cores,   16 groups


--------------------------------------------------------------------------------------------------------


 INCAR:
 POTCAR:   PAW_PBE Fe 06Sep2000                   
 POTCAR:    PAW_PBE P 17Jan2003                   
 POTCAR:   PAW_PBE Te 08Apr2002                   

 ----------------------------------------------------------------------------- 
|                                                                             |
|           W    W    AA    RRRRR   N    N  II  N    N   GGGG   !!!           |
|           W    W   A  A   R    R  NN   N  II  NN   N  G    G  !!!           |
|           W    W  A    A  R    R  N N  N  II  N N  N  G       !!!           |
|           W WW W  AAAAAA  RRRRR   N  N N  II  N  N N  G  GGG   !            |
|           WW  WW  A    A  R   R   N   NN  II  N   NN  G    G                |
|           W    W  A    A  R    R  N    N  II  N    N   GGGG   !!!           |
|                                                                             |
|      For optimal performance we recommend to set                            |
|        NCORE= 4 - approx SQRT( number of cores)                             |
|      NCORE specifies how many cores store one orbital (NPAR=cpu/NCORE).     |
|      This setting can  greatly improve the performance of VASP for DFT.     |
|      The default,   NCORE=1            might be grossly inefficient         |
|      on modern multi-core architectures or massively parallel machines.     |
|      Do your own testing !!!!                                               |
|      Unfortunately you need to use the default for GW and RPA calculations. |
|      (for HF NCORE is supported but not extensively tested yet)             |
|                                                                             |
 ----------------------------------------------------------------------------- 


 ----------------------------------------------------------------------------- 
|                                                                             |
|  ADVICE TO THIS USER RUNNING 'VASP/VAMP'   (HEAR YOUR MASTER'S VOICE ...):  |
|                                                                             |
|      You have switched on vdW-DFT.                                          |
|      This routine was written and supplied by Jiri Klimes.                  |
|      We recommed that you carefully read and cite the following             |
|      publication                                                            |
|      J. Klimes, D.R. Bowler, A. Michelides                                  |
|        J. Phys.: Cond Matt. 22 022201 (2010)                                |
|      J. Klimes, D.R. Bowler, A. Michelides                                  |
|        Phys. Rev. B. 83, 195131 (2011)                                      |
|      and references therein.                                                |
|                                                                             |
 ----------------------------------------------------------------------------- 

 POTCAR:   PAW_PBE Fe 06Sep2000                   
   VRHFIN =Fe:  d7 s1                                                           
   LEXCH  = PE                                                                  
   EATOM  =   594.4687 eV,   43.6922 Ry                                         
                                                                                
   TITEL  = PAW_PBE Fe 06Sep2000                                                
   LULTRA =        F    use ultrasoft PP ?                                      
   IUNSCR =        1    unscreen: 0-lin 1-nonlin 2-no                           
   RPACOR =    2.000    partial core radius                                     
   POMASS =   55.847; ZVAL   =    8.000    mass and valenz                      
   RCORE  =    2.300    outmost cutoff radius                                   
   RWIGS  =    2.460; RWIGS  =    1.302    wigner-seitz radius (au A)           
   ENMAX  =  267.883; ENMIN  =  200.912 eV                                      
   RCLOC  =    1.701    cutoff for local pot                                    
   LCOR   =        T    correct aug charges                                     
   LPAW   =        T    paw PP                                                  
   EAUG   =  511.368                                                            
   DEXC   =    -.022                                                            
   RMAX   =    2.817    core radius for proj-oper                               
   RAUG   =    1.300    factor for augmentation sphere                          
   RDEP   =    2.442    radius for radial grids                                 
   QCUT   =   -4.437; QGAM   =    8.874    optimization parameters              
                                                                                
   Description                                                                  
     l     E      TYP  RCUT    TYP  RCUT                                        
     2   .000     23  2.300                                                     
     2   .000     23  2.300                                                     
     0   .000     23  2.300                                                     
     0   .000     23  2.300                                                     
     1  -.200     23  2.300                                                     
     1   .000     23  2.300                                                     
     3   .000      7   .000                                                     
  local pseudopotential read in
  partial core-charges read in
  atomic valenz-charges read in
  non local Contribution for L=           2  read in
    real space projection operators read in
  non local Contribution for L=           2  read in
    real space projection operators read in
  non local Contribution for L=           0  read in
    real space projection operators read in
  non local Contribution for L=           0  read in
    real space projection operators read in
  non local Contribution for L=           1  read in
    real space projection operators read in
  non local Contribution for L=           1  read in
    real space projection operators read in
    PAW grid and wavefunctions read in

   number of l-projection  operators is LMAX  =           6
   number of lm-projection operators is LMMAX =          18

 POTCAR:    PAW_PBE P 17Jan2003                   
   VRHFIN =P : s2p3                                                             
   LEXCH  = PE                                                                  
   EATOM  =   176.0430 eV,   12.9388 Ry                                         
                                                                                
   TITEL  = PAW_PBE P 17Jan2003                                                 
   LULTRA =        F    use ultrasoft PP ?                                      
   IUNSCR =        1    unscreen: 0-lin 1-nonlin 2-no                           
   RPACOR =    1.500    partial core radius                                     
   POMASS =   30.974; ZVAL   =    5.000    mass and valenz                      
   RCORE  =    1.900    outmost cutoff radius                                   
   RWIGS  =    2.330; RWIGS  =    1.233    wigner-seitz radius (au A)           
   ENMAX  =  270.000; ENMIN  =  191.280 eV                                      
   ICORE  =        2    local potential                                         
   LCOR   =        T    correct aug charges                                     
   LPAW   =        T    paw PP                                                  
   EAUG   =  342.924                                                            
   DEXC   =    -.002                                                            
   RMAX   =    2.887    core radius for proj-oper                               
   RAUG   =    1.300    factor for augmentation sphere                          
   RDEP   =    1.931    radius for radial grids                                 
   QCUT   =   -4.330; QGAM   =    8.659    optimization parameters              
                                                                                
   Description                                                                  
     l     E      TYP  RCUT    TYP  RCUT                                        
     0   .000     23  1.900                                                     
     0   .000     23  1.900                                                     
     1   .000     23  1.900                                                     
     1   .000     23  1.900                                                     
     2   .000     23  1.900                                                     
  local pseudopotential read in
  partial core-charges read in
  atomic valenz-charges read in
  non local Contribution for L=           0  read in
    real space projection operators read in
  non local Contribution for L=           0  read in
    real space projection operators read in
  non local Contribution for L=           1  read in
    real space projection operators read in
  non local Contribution for L=           1  read in
    real space projection operators read in
    PAW grid and wavefunctions read in

   number of l-projection  operators is LMAX  =           4
   number of lm-projection operators is LMMAX =           8

 POTCAR:   PAW_PBE Te 08Apr2002                   
   VRHFIN =Te: s2p4                                                             
   LEXCH  = PE                                                                  
   EATOM  =   223.2721 eV,   16.4100 Ry                                         
                                                                                
   TITEL  = PAW_PBE Te 08Apr2002                                                
   LULTRA =        F    use ultrasoft PP ?                                      
   IUNSCR =        1    unscreen: 0-lin 1-nonlin 2-no                           
   RPACOR =    2.200    partial core radius                                     
   POMASS =  127.600; ZVAL   =    6.000    mass and valenz                      
   RCORE  =    2.300    outmost cutoff radius                                   
   RWIGS  =    2.900; RWIGS  =    1.535    wigner-seitz radius (au A)           
   ENMAX  =  174.982; ENMIN  =  131.236 eV                                      
   ICORE  =        3    local potential                                         
   LCOR   =        T    correct aug charges                                     
   LPAW   =        T    paw PP                                                  
   EAUG   =  368.792                                                            
   DEXC   =    -.169                                                            
   RMAX   =    3.486    core radius for proj-oper                               
   RAUG   =    1.300    factor for augmentation sphere                          
   RDEP   =    2.397    radius for radial grids                                 
   QCUT   =   -3.586; QGAM   =    7.172    optimization parameters              
                                                                                
   Description                                                                  
     l     E      TYP  RCUT    TYP  RCUT                                        
     0   .000     23  2.300                                                     
     0   .000     23  2.300                                                     
     1   .000     23  2.300                                                     
     1   .000     23  2.300                                                     
     2   .000     23  2.300                                                     
     3  -.100     23  2.300                                                     
  local pseudopotential read in
  partial core-charges read in
  atomic valenz-charges read in
  non local Contribution for L=           0  read in
    real space projection operators read in
  non local Contribution for L=           0  read in
    real space projection operators read in
  non local Contribution for L=           1  read in
    real space projection operators read in
  non local Contribution for L=           1  read in
    real space projection operators read in
  non local Contribution for L=           2  read in
    real space projection operators read in
    PAW grid and wavefunctions read in

   number of l-projection  operators is LMAX  =           5
   number of lm-projection operators is LMMAX =          13

 Optimization of the real space projectors (new method)

 maximal supplied QI-value         = 16.25
 optimisation between [QCUT,QGAM] = [ 11.54, 23.24] = [ 37.28,151.24] Ry 
 Optimized for a Real-space Cutoff    1.53 Angstroem

   l    n(q)    QCUT    max X(q) W(low)/X(q) W(high)/X(q)  e(spline) 
   2     10    11.539     4.378    0.86E-05    0.15E-04    0.46E-07
   2     10    11.539    23.237    0.11E-03    0.14E-03    0.22E-06
   0     11    11.539    17.641    0.19E-04    0.14E-05    0.18E-07
   0     11    11.539    50.908    0.43E-04    0.16E-04    0.30E-06
   1     10    11.539     6.148    0.11E-04    0.38E-05    0.26E-07
   1     10    11.539     8.345    0.44E-04    0.25E-04    0.11E-06
 Optimization of the real space projectors (new method)

 maximal supplied QI-value         = 19.84
 optimisation between [QCUT,QGAM] = [ 11.51, 23.22] = [ 37.09,150.92] Ry 
 Optimized for a Real-space Cutoff    1.21 Angstroem

   l    n(q)    QCUT    max X(q) W(low)/X(q) W(high)/X(q)  e(spline) 
   0      8    11.508     6.651    0.19E-04    0.31E-05    0.49E-08
   0      8    11.508    90.285    0.95E-04    0.17E-03    0.51E-07
   1      8    11.508     4.328    0.14E-04    0.32E-04    0.22E-07
   1      8    11.508    54.583    0.16E-03    0.71E-04    0.89E-07
 Optimization of the real space projectors (new method)

 maximal supplied QI-value         = 16.25
 optimisation between [QCUT,QGAM] = [ 11.54, 23.24] = [ 37.28,151.24] Ry 
 Optimized for a Real-space Cutoff    1.36 Angstroem

   l    n(q)    QCUT    max X(q) W(low)/X(q) W(high)/X(q)  e(spline) 
   0      9    11.539     7.090    0.13E-04    0.25E-05    0.51E-08
   0      9    11.539   101.654    0.53E-04    0.69E-04    0.12E-06
   1      9    11.539     5.276    0.20E-04    0.98E-05    0.24E-07
   1      9    11.539    81.891    0.24E-03    0.13E-04    0.15E-06
   2      9    11.539     5.599    0.30E-04    0.97E-04    0.54E-07

 ----------------------------------------------------------------------------- 
|                                                                             |
|  ADVICE TO THIS USER RUNNING 'VASP/VAMP'   (HEAR YOUR MASTER'S VOICE ...):  |
|                                                                             |
|      You enforced a specific xc-type in the INCAR file,                     |
|      a different type was found on the POTCAR file                          |
|          I HOPE YOU KNOW, WHAT YOU ARE  DOING                               |
|                                                                             |
 ----------------------------------------------------------------------------- 

 PAW_PBE Fe 06Sep2000                   :
 energy of atom  1       EATOM= -594.4687
 kinetic energy error for atom=    0.0026 (will be added to EATOM!!)
  PAW_PBE P 17Jan2003                   :
 energy of atom  2       EATOM= -176.0430
 kinetic energy error for atom=    0.0011 (will be added to EATOM!!)
 PAW_PBE Te 08Apr2002                   :
 energy of atom  3       EATOM= -223.2721
 kinetic energy error for atom=    0.0007 (will be added to EATOM!!)


 POSCAR: Fe2 P2 Te6                              
  positions in direct lattice
  velocities in cartesian coordinates
  No initial velocities read in
 exchange correlation table for  LEXCH =       42
   RHO(1)=    0.500       N(1)  =     2000
   RHO(2)=  100.500       N(2)  =     4000



--------------------------------------------------------------------------------------------------------


 ion  position               nearest neighbor table
   1  0.333  0.333  0.500-   6 2.78   5 2.78   7 2.78   8 2.78  10 2.78   9 2.78
   2  0.667  0.667  0.500-   9 2.78   8 2.78  10 2.78   5 2.78   7 2.78   6 2.78
   3  0.000  0.000  0.448-   4 2.43   8 2.63  10 2.63   9 2.63
   4  0.000  0.000  0.552-   3 2.43   5 2.63   7 2.63   6 2.63
   5  0.626  0.000  0.574-   4 2.63   1 2.78   2 2.78
   6  0.000  0.373  0.574-   4 2.63   1 2.78   2 2.78
   7  0.373  0.626  0.574-   4 2.63   1 2.78   2 2.78
   8  0.374  1.000  0.426-   3 2.63   2 2.78   1 2.78
   9  1.000  0.627  0.426-   3 2.63   2 2.78   1 2.78
  10  0.627  0.374  0.426-   3 2.63   2 2.78   1 2.78

  LATTYP: Found a hexagonal cell.
 ALAT       =     6.9077769333
 C/A-ratio  =     3.3939410937
  
  Lattice vectors:
  
 A1 = (   3.4538890000,  -5.9823100000,   0.0000000000)
 A2 = (  -6.9077770000,   0.0000000000,   0.0000000000)
 A3 = (   0.0000000000,   0.0000000000, -23.4445880000)


Analysis of symmetry for initial positions (statically):
=====================================================================
 Subroutine PRICEL returns:
 Original cell was already a primitive cell.
 

 Routine SETGRP: Setting up the symmetry group for a 
 hexagonal supercell.


 Subroutine GETGRP returns: Found  6 space group operations
 (whereof  6 operations were pure point group operations)
 out of a pool of 24 trial point group operations.


The static configuration has the point symmetry S_6 .


Analysis of symmetry for dynamics (positions and initial velocities):
=====================================================================
 Subroutine PRICEL returns:
 Original cell was already a primitive cell.
 

 Routine SETGRP: Setting up the symmetry group for a 
 hexagonal supercell.


 Subroutine GETGRP returns: Found  6 space group operations
 (whereof  6 operations were pure point group operations)
 out of a pool of 24 trial point group operations.


The dynamic configuration has the point symmetry S_6 .


Analysis of constrained symmetry for selective dynamics:
=====================================================================
 Subroutine PRICEL returns:
 Original cell was already a primitive cell.
 

 Routine SETGRP: Setting up the symmetry group for a 
 hexagonal supercell.


 Subroutine GETGRP returns: Found  6 space group operations
 (whereof  6 operations were pure point group operations)
 out of a pool of 24 trial point group operations.


The constrained configuration has the point symmetry S_6 .


Analysis of structural, dynamic, and magnetic symmetry:
=====================================================================
 Subroutine PRICEL returns:
 Original cell was already a primitive cell.
 

 Routine SETGRP: Setting up the symmetry group for a 
 hexagonal supercell.


 Subroutine GETGRP returns: Found  6 space group operations
 (whereof  6 operations were pure point group operations)
 out of a pool of 24 trial point group operations.


The magnetic configuration has the point symmetry S_6 .


 Subroutine INISYM returns: Found  6 space group operations
 (whereof  6 operations are pure point group operations),
 and found     1 'primitive' translations



 KPOINTS: Kpoints from vasprun.xml                

Automatic generation of k-mesh.
Space group operators:
 irot       det(A)        alpha          n_x          n_y          n_z        tau_x        tau_y        tau_z
    1     1.000000     0.000000     1.000000     0.000000     0.000000     0.000000     0.000000     0.000000
    2    -1.000000     0.000000     1.000000     0.000000     0.000000     0.000000     0.000000     0.000000
    3     1.000000   120.000000     0.000000     0.000000     1.000000     0.000000     0.000000     0.000000
    4    -1.000000   120.000000     0.000000     0.000000     1.000000     0.000000     0.000000     0.000000
    5     1.000000   120.000000     0.000000     0.000000    -1.000000     0.000000     0.000000     0.000000
    6    -1.000000   120.000000     0.000000     0.000000    -1.000000     0.000000     0.000000     0.000000
 
 Subroutine IBZKPT returns following result:
 ===========================================
 
 Found      5 irreducible k-points:
 
 Following reciprocal coordinates:
            Coordinates               Weight
  0.000000  0.000000  0.000000      1.000000
  0.200000  0.000000  0.000000      6.000000
  0.400000  0.000000  0.000000      6.000000
  0.400000  0.200000  0.000000      6.000000
 -0.400000  0.200000  0.000000      6.000000
 
 Following cartesian coordinates:
            Coordinates               Weight
  0.000000  0.000000  0.000000      1.000000
  0.028953 -0.016716  0.000000      6.000000
  0.057906 -0.033432  0.000000      6.000000
  0.057906  0.000000  0.000000      6.000000
 -0.057906  0.066864  0.000000      6.000000
 
 TETIRR: Found     15 inequivalent tetrahedra from      150


--------------------------------------------------------------------------------------------------------




 Dimension of arrays:
   k-points           NKPTS =      5   k-points in BZ     NKDIM =      5   number of bands    NBANDS=     48
   number of dos      NEDOS =    301   number of ions     NIONS =     10
   non local maximal  LDIM  =      6   non local SUM 2l+1 LMDIM =     18
   total plane-waves  NPLWV = 524880
   max r-space proj   IRMAX =   8238   max aug-charges    IRDMAX=  31706
   dimension x,y,z NGX =    54 NGY =   54 NGZ =  180
   dimension x,y,z NGXF=   108 NGYF=  108 NGZF=  360
   support grid    NGXF=   108 NGYF=  108 NGZF=  360
   ions per type =               2   2   6
   NGX,Y,Z   is equivalent  to a cutoff of  13.00, 13.00, 12.76 a.u.
   NGXF,Y,Z  is equivalent  to a cutoff of  25.99, 25.99, 25.53 a.u.

 SYSTEM =  unknown system                          
 POSCAR =  Fe2 P2 Te6                              

 Startparameter for this run:
   NWRITE =      2    write-flag & timer
   PREC   = accura    normal or accurate (medium, high low for compatibility)
   ISTART =      0    job   : 0-new  1-cont  2-samecut
   ICHARG =      2    charge: 1-file 2-atom 10-const
   ISPIN  =      2    spin polarized calculation?
   LNONCOLLINEAR =      F non collinear calculations
   LSORBIT =      F    spin-orbit coupling
   INIWAV =      1    electr: 0-lowe 1-rand  2-diag
   LASPH  =      F    aspherical Exc in radial PAW
   METAGGA=      F    non-selfconsistent MetaGGA calc.

 Electronic Relaxation 1
   ENCUT  =  520.0 eV  38.22 Ry    6.18 a.u.  12.84 12.84 43.59*2*pi/ulx,y,z
   ENINI  =  520.0     initial cutoff
   ENAUG  =  511.4 eV  augmentation charge cutoff
   NELM   =    400;   NELMIN=  2; NELMDL=  0     # of ELM steps 
   EDIFF  = 0.1E-03   stopping-criterion for ELM
   LREAL  =      T    real-space projection
   NLSPLINE    = F    spline interpolate recip. space projectors
   LCOMPAT=      F    compatible to vasp.4.4
   GGA_COMPAT  = T    GGA compatible to vasp.4.4-vasp.4.6
   LMAXPAW     = -100 max onsite density
   LMAXMIX     =    2 max onsite mixed and CHGCAR
   VOSKOWN=      0    Vosko Wilk Nusair interpolation
   ROPT   =   -0.00025  -0.00025  -0.00025
 Ionic relaxation
   EDIFFG = 0.1E-02   stopping-criterion for IOM
   NSW    =     99    number of steps for IOM
   NBLOCK =      1;   KBLOCK =     99    inner block; outer block 
   IBRION =      2    ionic relax: 0-MD 1-quasi-New 2-CG
   NFREE  =      1    steps in history (QN), initial steepest desc. (CG)
   ISIF   =      3    stress and relaxation
   IWAVPR =     11    prediction:  0-non 1-charg 2-wave 3-comb
   ISYM   =      2    0-nonsym 1-usesym 2-fastsym
   LCORR  =      T    Harris-Foulkes like correction to forces

   POTIM  = 0.5000    time-step for ionic-motion
   TEIN   =    0.0    initial temperature
   TEBEG  =    0.0;   TEEND  =   0.0 temperature during run
   SMASS  =  -3.00    Nose mass-parameter (am)
   estimated Nose-frequenzy (Omega)   =  0.10E-29 period in steps =****** mass=  -0.109E-26a.u.
   SCALEE = 1.0000    scale energy and forces
   NPACO  =    256;   APACO  = 16.0  distance and # of slots for P.C.
   PSTRESS=    0.0 pullay stress

  Mass of Ions in am
   POMASS =  55.85 30.97127.60
  Ionic Valenz
   ZVAL   =   8.00  5.00  6.00
  Atomic Wigner-Seitz radii
   RWIGS  =  -1.00 -1.00 -1.00
  virtual crystal weights 
   VCA    =   1.00  1.00  1.00
   NELECT =      62.0000    total number of electrons
   NUPDOWN=      -1.0000    fix difference up-down

 DOS related values:
   EMIN   =  10.00;   EMAX   =-10.00  energy-range for DOS
   EFERMI =   0.00
   ISMEAR =    -5;   SIGMA  =   0.05  broadening in eV -4-tet -1-fermi 0-gaus

 Electronic relaxation 2 (details)
   IALGO  =     38    algorithm
   LDIAG  =      T    sub-space diagonalisation (order eigenvalues)
   LSUBROT=      F    optimize rotation matrix (better conditioning)
   TURBO    =      0    0=normal 1=particle mesh
   IRESTART =      0    0=no restart 2=restart with 2 vectors
   NREBOOT  =      0    no. of reboots
   NMIN     =      0    reboot dimension
   EREF     =   0.00    reference energy to select bands
   IMIX   =      4    mixing-type and parameters
     AMIX     =   0.40;   BMIX     =  1.00
     AMIX_MAG =   1.60;   BMIX_MAG =  1.00
     AMIN     =   0.01
     WC   =   100.;   INIMIX=   1;  MIXPRE=   1;  MAXMIX= -45

 Intra band minimization:
   WEIMIN = 0.0010     energy-eigenvalue tresh-hold
   EBREAK =  0.52E-06  absolut break condition
   DEPER  =   0.30     relativ break condition  

   TIME   =   0.40     timestep for ELM

  volume/ion in A,a.u.               =      96.88       653.80
  Fermi-wavevector in a.u.,A,eV,Ry     =   0.654820  1.237431  5.834037  0.428790
  Thomas-Fermi vector in A             =   1.725500

 Write flags
   LWAVE        =      F    write WAVECAR
   LDOWNSAMPLE  =      F    k-point downsampling of WAVECAR
   LCHARG       =      T    write CHGCAR
   LVTOT        =      F    write LOCPOT, total local potential
   LVHAR        =      F    write LOCPOT, Hartree potential only
   LELF         =      F    write electronic localiz. function (ELF)
   LORBIT       =     11    0 simple, 1 ext, 2 COOP (PROOUT), +10 PAW based schemes


 Dipole corrections
   LMONO  =      F    monopole corrections only (constant potential shift)
   LDIPOL =      F    correct potential (dipole corrections)
   IDIPOL =      0    1-x, 2-y, 3-z, 4-all directions 
   EPSILON=  1.0000000 bulk dielectric constant

 Exchange correlation treatment:
   GGA     =    BO    GGA type
   LEXCH   =    42    internal setting for exchange type
   VOSKOWN=      0    Vosko Wilk Nusair interpolation
   LHFCALC =     F    Hartree Fock is set to
   LHFONE  =     F    Hartree Fock one center treatment
   AEXX    =    0.0000 exact exchange contribution

 vdW DFT:
   LUSE_VDW   =     T    switch on vdW DFT
   Zab_VDW    =-.8491    correlation parameter
   PARAM1     =0.1833
   PARAM2     =0.2200
   PARAM3     =0.0000
   -- rVV10 --
   BPARAM     = 6.3000
   CPARAM     = 0.0093

 Linear response parameters
   LEPSILON=     F    determine dielectric tensor
   LRPA    =     F    only Hartree local field effects (RPA)
   LNABLA  =     F    use nabla operator in PAW spheres
   LVEL    =     F    velocity operator in full k-point grid
   LINTERFAST=   F  fast interpolation
   KINTER  =     0    interpolate to denser k-point grid
   CSHIFT  =0.1000    complex shift for real part using Kramers Kronig
   OMEGAMAX=  -1.0    maximum frequency
   DEG_THRESHOLD= 0.2000000E-02 threshold for treating states as degnerate
   RTIME   =   -0.100 relaxation time in fs
  (WPLASMAI=    0.000 imaginary part of plasma frequency in eV, 0.658/RTIME)
   DFIELD  = 0.0000000 0.0000000 0.0000000 field for delta impulse in time

 Orbital magnetization related:
   ORBITALMAG=     F  switch on orbital magnetization
   LCHIMAG   =     F  perturbation theory with respect to B field
   DQ        =  0.001000  dq finite difference perturbation B field
   LLRAUG    =     F  two centre corrections for induced B field



--------------------------------------------------------------------------------------------------------


 conjugate gradient relaxation of ions
   using selective dynamics as specified on POSCAR
 charge density and potential will be updated during run
 spin polarized calculation
 Variant of blocked Davidson
 Davidson routine will perform the subspace rotation
 perform sub-space diagonalisation
    after iterative eigenvector-optimisation
 modified Broyden-mixing scheme, WC =      100.0
 initial mixing is a Kerker type mixing with AMIX =  0.4000 and BMIX =      1.0000
 Hartree-type preconditioning will be used
 using additional bands           17
 real space projection scheme for non local part
 use partial core corrections
 calculate Harris-corrections to forces   (improved forces if not selfconsistent)
 use gradient corrections 
 use of overlap-Matrix (Vanderbilt PP)
 Fermi weights with tetrahedron method with Bloechl corrections


--------------------------------------------------------------------------------------------------------


  energy-cutoff  :      520.00
  volume of cell :      968.84
      direct lattice vectors                 reciprocal lattice vectors
     6.907777000 -0.000000000  0.000000000     0.144764372 -0.083579742  0.000000000
     3.453888000  5.982310000  0.000000000     0.000000000  0.167159509 -0.000000000
     0.000000000  0.000000000 23.444588000    -0.000000000  0.000000000  0.042653767

  length of vectors
     6.907777000  6.907776433 23.444588000     0.167159495  0.167159509  0.042653767



 k-points in units of 2pi/SCALE and weight: Kpoints from vasprun.xml                
   0.00000000  0.00000000  0.00000000       0.040
   0.02895287 -0.01671595  0.00000000       0.240
   0.05790575 -0.03343190  0.00000000       0.240
   0.05790575  0.00000000  0.00000000       0.240
  -0.05790575  0.06686380  0.00000000       0.240

 k-points in reciprocal lattice and weights: Kpoints from vasprun.xml                
   0.00000000  0.00000000  0.00000000       0.040
   0.20000000  0.00000000  0.00000000       0.240
   0.40000000  0.00000000  0.00000000       0.240
   0.40000000  0.20000000  0.00000000       0.240
  -0.40000000  0.20000000  0.00000000       0.240

 position of ions in fractional coordinates (direct lattice) 
   0.33333300  0.33333300  0.49992500
   0.66666700  0.66666700  0.50007500
   0.00000000  0.00000000  0.44821600
   0.00000000  0.00000000  0.55178400
   0.62635700  0.00042000  0.57375200
   0.00042000  0.37322400  0.57375200
   0.37322400  0.62635700  0.57375200
   0.37364300  0.99958000  0.42624800
   0.99958000  0.62677600  0.42624800
   0.62677600  0.37364300  0.42624800

 position of ions in cartesian coordinates  (Angst):
   3.45388488  1.99410134 11.72053566
   6.90778012  3.98820866 11.72405234
   0.00000000  0.00000000 10.50823946
   0.00000000  0.00000000 12.93634854
   4.32818511  0.00251257 13.45137925
   1.29197516  2.23274167 13.45137925
   4.74151509  3.74706174 13.45137925
   6.03347989  5.97979743  9.99320875
   9.06968984  3.74956833  9.99320875
   5.62014991  2.23524826  9.99320875



--------------------------------------------------------------------------------------------------------


 k-point  1 :   0.0000 0.0000 0.0000  plane waves:   26073
 k-point  2 :   0.2000 0.0000 0.0000  plane waves:   26070
 k-point  3 :   0.4000 0.0000 0.0000  plane waves:   26086
 k-point  4 :   0.4000 0.2000 0.0000  plane waves:   26085
 k-point  5 :  -0.4000 0.2000 0.0000  plane waves:   26115

 maximum and minimum number of plane-waves per node :     26115    26070

 maximum number of plane-waves:     26115
 maximum index in each direction: 
   IXMAX=   13   IYMAX=   12   IZMAX=   43
   IXMIN=  -13   IYMIN=  -13   IZMIN=  -43


 serial   3D FFT for wavefunctions
 parallel 3D FFT for charge:
    minimum data exchange during FFTs selected (reduces bandwidth)


 total amount of memory used by VASP MPI-rank0   128591. kBytes
=======================================================================

   base      :      30000. kBytes
   nonlr-proj:       8281. kBytes
   fftplans  :      11247. kBytes
   grid      :      66142. kBytes
   one-center:        311. kBytes
   wavefun   :      12610. kBytes

     INWAV:  cpu time    0.0000: real time    0.0005
 Broyden mixing: mesh for mixing (old mesh)
   NGX = 25   NGY = 25   NGZ = 87
  (NGX  =108   NGY  =108   NGZ  =360)
  gives a total of  54375 points

 initial charge density was supplied:
 charge density of overlapping atoms calculated
 number of electron      62.0000000 magnetization      12.0600000
 keeping initial charge density in first step


--------------------------------------------------------------------------------------------------------


 Maximum index for non-local projection operator         7925
 Maximum index for augmentation-charges         2278 (set IRDMAX)


--------------------------------------------------------------------------------------------------------


 First call to EWALD:  gamma=   0.179
 Maximum number of real-space cells 4x 4x 1
 Maximum number of reciprocal cells 2x 2x 6

    FEWALD:  cpu time    0.0000: real time    0.0015


--------------------------------------- Iteration      1(   1)  ---------------------------------------


vdW kernel read from vdw_kernel.bindat
  0.0000  0.2424  0.5071  0.7962  1.1119  1.4567  1.8333  2.2446  2.6937  3.1842
  3.7199  4.3049  4.9438  5.6415  6.4036  7.2358  8.1446  9.1372 10.2212 11.4050
 12.6979 14.1099 15.6519 17.3360 19.1751 21.1837 23.3773 25.7729 28.3892 31.2465
 34.3669 37.7748 41.4965 45.5611 50.0000

    POTLOK:  cpu time   52.3880: real time   52.8751
    SETDIJ:  cpu time    0.0880: real time    0.0886
     EDDAV:  cpu time   23.1800: real time   23.3917
 BZINTS: Fermi energy:  6.104937; 62.000000 electrons
         Band energy:  32.562600;  BLOECHL correction: -0.047633
       DOS:  cpu time    0.0040: real time    0.0051
    --------------------------------------------
      LOOP:  cpu time   75.6600: real time   76.3606

 eigenvalue-minimisations  :   960
 total energy-change (2. order) : 0.4095273E+03  (-0.1851760E+04)
 number of electron      62.0000000 magnetization      12.0600000
 augmentation part       62.0000000 magnetization      12.0600000

 Free energy of the ion-electron system (eV)
  ---------------------------------------------------
  alpha Z        PSCENC =        15.28173641
  Ewald energy   TEWEN  =      7519.48427785
  -Hartree energ DENC   =    -10134.24392642
  -exchange      EXHF   =         0.00000000
  -V(xc)+E(xc)   XCENC  =      -161.23157528
  PAW double counting   =      1679.24084508    -1435.31213203
  entropy T*S    EENTRO =         0.00000000
  eigenvalues    EBANDS =        32.56260046
  atomic energy  EATOM  =      2893.74546681
  Solvation  Ediel_sol  =         0.00000000
  ---------------------------------------------------
  free energy    TOTEN  =       409.52729289 eV

  energy without entropy =      409.52729289  energy(sigma->0) =      409.52729289


--------------------------------------------------------------------------------------------------------




--------------------------------------- Iteration      1(   2)  ---------------------------------------


     EDDAV:  cpu time   28.6560: real time   28.9917
 BZINTS: Fermi energy: -0.333015; 62.000000 electrons
         Band energy:-363.887404;  BLOECHL correction: -0.113775
       DOS:  cpu time    0.0080: real time    0.0049
    --------------------------------------------
      LOOP:  cpu time   28.6640: real time   28.9966

 eigenvalue-minimisations  :  1232
 total energy-change (2. order) :-0.3964500E+03  (-0.3749507E+03)
 number of electron      62.0000000 magnetization      12.0600000
 augmentation part       62.0000000 magnetization      12.0600000

 Free energy of the ion-electron system (eV)
  ---------------------------------------------------
  alpha Z        PSCENC =        15.28173641
  Ewald energy   TEWEN  =      7519.48427785
  -Hartree energ DENC   =    -10134.24392642
  -exchange      EXHF   =         0.00000000
  -V(xc)+E(xc)   XCENC  =      -161.23157528
  PAW double counting   =      1679.24084508    -1435.31213203
  entropy T*S    EENTRO =         0.00000000
  eigenvalues    EBANDS =      -363.88740435
  atomic energy  EATOM  =      2893.74546681
  Solvation  Ediel_sol  =         0.00000000
  ---------------------------------------------------
  free energy    TOTEN  =        13.07728808 eV

  energy without entropy =       13.07728808  energy(sigma->0) =       13.07728808


--------------------------------------------------------------------------------------------------------




--------------------------------------- Iteration      1(   3)  ---------------------------------------


     EDDAV:  cpu time   29.9520: real time   30.2482
 BZINTS: Fermi energy: -1.340270; 62.000000 electrons
         Band energy:-415.422136;  BLOECHL correction: -0.022243
       DOS:  cpu time    0.0040: real time    0.0050
    --------------------------------------------
      LOOP:  cpu time   29.9560: real time   30.2532

 eigenvalue-minimisations  :  1280
 total energy-change (2. order) :-0.5153473E+02  (-0.4979972E+02)
 number of electron      62.0000000 magnetization      12.0600000
 augmentation part       62.0000000 magnetization      12.0600000

 Free energy of the ion-electron system (eV)
  ---------------------------------------------------
  alpha Z        PSCENC =        15.28173641
  Ewald energy   TEWEN  =      7519.48427785
  -Hartree energ DENC   =    -10134.24392642
  -exchange      EXHF   =         0.00000000
  -V(xc)+E(xc)   XCENC  =      -161.23157528
  PAW double counting   =      1679.24084508    -1435.31213203
  entropy T*S    EENTRO =         0.00000000
  eigenvalues    EBANDS =      -415.42213647
  atomic energy  EATOM  =      2893.74546681
  Solvation  Ediel_sol  =         0.00000000
  ---------------------------------------------------
  free energy    TOTEN  =       -38.45744405 eV

  energy without entropy =      -38.45744405  energy(sigma->0) =      -38.45744405


--------------------------------------------------------------------------------------------------------




--------------------------------------- Iteration      1(   4)  ---------------------------------------


     EDDAV:  cpu time   28.4040: real time   28.5656
 BZINTS: Fermi energy: -1.403446; 62.000000 electrons
         Band energy:-417.735078;  BLOECHL correction: -0.010822
       DOS:  cpu time    0.0080: real time    0.0047
    --------------------------------------------
      LOOP:  cpu time   28.4120: real time   28.5703

 eigenvalue-minimisations  :  1216
 total energy-change (2. order) :-0.2312941E+01  (-0.2264388E+01)
 number of electron      62.0000000 magnetization      12.0600000
 augmentation part       62.0000000 magnetization      12.0600000

 Free energy of the ion-electron system (eV)
  ---------------------------------------------------
  alpha Z        PSCENC =        15.28173641
  Ewald energy   TEWEN  =      7519.48427785
  -Hartree energ DENC   =    -10134.24392642
  -exchange      EXHF   =         0.00000000
  -V(xc)+E(xc)   XCENC  =      -161.23157528
  PAW double counting   =      1679.24084508    -1435.31213203
  entropy T*S    EENTRO =         0.00000000
  eigenvalues    EBANDS =      -417.73507785
  atomic energy  EATOM  =      2893.74546681
  Solvation  Ediel_sol  =         0.00000000
  ---------------------------------------------------
  free energy    TOTEN  =       -40.77038543 eV

  energy without entropy =      -40.77038543  energy(sigma->0) =      -40.77038543


--------------------------------------------------------------------------------------------------------




--------------------------------------- Iteration      1(   5)  ---------------------------------------


     EDDAV:  cpu time   32.1720: real time   33.4865
 BZINTS: Fermi energy: -1.405810; 62.000000 electrons
         Band energy:-417.821091;  BLOECHL correction: -0.010773
       DOS:  cpu time    0.0040: real time    0.0056
    CHARGE:  cpu time    2.0840: real time    2.0920
    MIXING:  cpu time    0.0400: real time    0.0419
    --------------------------------------------
      LOOP:  cpu time   34.3000: real time   35.6260

 eigenvalue-minimisations  :  1440
 total energy-change (2. order) :-0.8601277E-01  (-0.8614855E-01)
 number of electron      62.0000006 magnetization      11.6386345
 augmentation part       -2.5194555 magnetization       8.5501716

 Broyden mixing:
  rms(total) = 0.20329E+01    rms(broyden)= 0.20328E+01
  rms(prec ) = 0.22052E+01
  weight for this iteration     100.00

 Free energy of the ion-electron system (eV)
  ---------------------------------------------------
  alpha Z        PSCENC =        15.28173641
  Ewald energy   TEWEN  =      7519.48427785
  -Hartree energ DENC   =    -10134.24392642
  -exchange      EXHF   =         0.00000000
  -V(xc)+E(xc)   XCENC  =      -161.23157528
  PAW double counting   =      1679.24084508    -1435.31213203
  entropy T*S    EENTRO =         0.00000000
  eigenvalues    EBANDS =      -417.82109062
  atomic energy  EATOM  =      2893.74546681
  Solvation  Ediel_sol  =         0.00000000
  ---------------------------------------------------
  free energy    TOTEN  =       -40.85639820 eV

  energy without entropy =      -40.85639820  energy(sigma->0) =      -40.85639820


--------------------------------------------------------------------------------------------------------




--------------------------------------- Iteration      1(   6)  ---------------------------------------


    POTLOK:  cpu time   51.5480: real time   52.5260
    SETDIJ:  cpu time    0.0520: real time    0.0537
     EDDAV:  cpu time   28.8600: real time   29.4668
 BZINTS: Fermi energy: -3.329272; 62.000000 electrons
         Band energy:-548.681513;  BLOECHL correction: -0.055041
       DOS:  cpu time    0.0080: real time    0.0065
    CHARGE:  cpu time    2.0640: real time    2.0728
    MIXING:  cpu time    0.0440: real time    0.0433
    --------------------------------------------
      LOOP:  cpu time   82.5760: real time   84.1691

 eigenvalue-minimisations  :  1248
 total energy-change (2. order) :-0.3671205E+02  (-0.2645043E+02)
 number of electron      62.0000014 magnetization      11.3313927
 augmentation part        6.8096724 magnetization      11.3590099

 Broyden mixing:
  rms(total) = 0.58536E+01    rms(broyden)= 0.58535E+01
  rms(prec ) = 0.62438E+01
  weight for this iteration     100.00

 eigenvalues of (default mixing * dielectric matrix)
  average eigenvalue GAMMA=   0.2151
  0.2151

 Free energy of the ion-electron system (eV)
  ---------------------------------------------------
  alpha Z        PSCENC =        15.28173641
  Ewald energy   TEWEN  =      7519.48427785
  -Hartree energ DENC   =    -10049.62742433
  -exchange      EXHF   =         0.00000000
  -V(xc)+E(xc)   XCENC  =      -160.77362953
  PAW double counting   =      1556.87409037    -1303.87145537
  entropy T*S    EENTRO =         0.00000000
  eigenvalues    EBANDS =      -548.68151274
  atomic energy  EATOM  =      2893.74546681
  Solvation  Ediel_sol  =         0.00000000
  ---------------------------------------------------
  free energy    TOTEN  =       -77.56845052 eV

  energy without entropy =      -77.56845052  energy(sigma->0) =      -77.56845052


--------------------------------------------------------------------------------------------------------




--------------------------------------- Iteration      1(   7)  ---------------------------------------


    POTLOK:  cpu time   51.8360: real time   52.3281
    SETDIJ:  cpu time    0.0520: real time    0.0539
     EDDAV:  cpu time   26.1000: real time   26.5730
 BZINTS: Fermi energy: -2.819028; 62.000000 electrons
         Band energy:-443.758440;  BLOECHL correction: -0.032012
       DOS:  cpu time    0.0040: real time    0.0065
    CHARGE:  cpu time    2.0760: real time    2.0758
    MIXING:  cpu time    0.0400: real time    0.0418
    --------------------------------------------
      LOOP:  cpu time   80.1080: real time   81.0791

 eigenvalue-minimisations  :  1120
 total energy-change (2. order) : 0.3839971E+02  (-0.4591973E+01)
 number of electron      62.0000012 magnetization      11.0376470
 augmentation part        3.2196942 magnetization      11.0528434

 Broyden mixing:
  rms(total) = 0.24711E+01    rms(broyden)= 0.24710E+01
  rms(prec ) = 0.26530E+01
  weight for this iteration     100.00

 eigenvalues of (default mixing * dielectric matrix)
  average eigenvalue GAMMA=   0.4177
  0.4177  0.4177

 Free energy of the ion-electron system (eV)
  ---------------------------------------------------
  alpha Z        PSCENC =        15.28173641
  Ewald energy   TEWEN  =      7519.48427785
  -Hartree energ DENC   =    -10105.85488088
  -exchange      EXHF   =         0.00000000
  -V(xc)+E(xc)   XCENC  =      -162.14649512
  PAW double counting   =      1660.61307579    -1416.53348156
  entropy T*S    EENTRO =         0.00000000
  eigenvalues    EBANDS =      -443.75843955
  atomic energy  EATOM  =      2893.74546681
  Solvation  Ediel_sol  =         0.00000000
  ---------------------------------------------------
  free energy    TOTEN  =       -39.16874025 eV

  energy without entropy =      -39.16874025  energy(sigma->0) =      -39.16874025


--------------------------------------------------------------------------------------------------------




--------------------------------------- Iteration      1(   8)  ---------------------------------------


    POTLOK:  cpu time   51.7640: real time   52.3747
    SETDIJ:  cpu time    0.0520: real time    0.0534
     EDDAV:  cpu time   33.3600: real time   34.0367
 BZINTS: Fermi energy: -2.204670; 62.000000 electrons
         Band energy:-429.215228;  BLOECHL correction: -0.008143
       DOS:  cpu time    0.0120: real time    0.0165
    CHARGE:  cpu time    2.0800: real time    2.1086
    MIXING:  cpu time    0.0440: real time    0.0417
    --------------------------------------------
      LOOP:  cpu time   87.3120: real time   88.6317

 eigenvalue-minimisations  :  1472
 total energy-change (2. order) : 0.1973853E+01  (-0.7685319E+00)
 number of electron      62.0000009 magnetization      10.9071241
 augmentation part        0.6845566 magnetization       8.6352068

 Broyden mixing:
  rms(total) = 0.51996E+00    rms(broyden)= 0.51905E+00
  rms(prec ) = 0.54938E+00
  weight for this iteration     100.00

 eigenvalues of (default mixing * dielectric matrix)
  average eigenvalue GAMMA=   0.4053
  0.4735  0.3712  0.3712

 Free energy of the ion-electron system (eV)
  ---------------------------------------------------
  alpha Z        PSCENC =        15.28173641
  Ewald energy   TEWEN  =      7519.48427785
  -Hartree energ DENC   =    -10117.83353679
  -exchange      EXHF   =         0.00000000
  -V(xc)+E(xc)   XCENC  =      -162.33366419
  PAW double counting   =      1686.91375897    -1443.23769814
  entropy T*S    EENTRO =         0.00000000
  eigenvalues    EBANDS =      -429.21522813
  atomic energy  EATOM  =      2893.74546681
  Solvation  Ediel_sol  =         0.00000000
  ---------------------------------------------------
  free energy    TOTEN  =       -37.19488722 eV

  energy without entropy =      -37.19488722  energy(sigma->0) =      -37.19488722


--------------------------------------------------------------------------------------------------------




--------------------------------------- Iteration      1(   9)  ---------------------------------------


    POTLOK:  cpu time   52.0080: real time   52.2314
    SETDIJ:  cpu time    0.0520: real time    0.0525
     EDDAV:  cpu time   29.8280: real time   30.6089
 BZINTS: Fermi energy: -2.282652; 62.000000 electrons
         Band energy:-432.449373;  BLOECHL correction: -0.009557
       DOS:  cpu time    0.0040: real time    0.0071
    CHARGE:  cpu time    2.1120: real time    2.1122
    MIXING:  cpu time    0.0440: real time    0.0427
    --------------------------------------------
      LOOP:  cpu time   84.0480: real time   85.0549

 eigenvalue-minimisations  :  1312
 total energy-change (2. order) :-0.6490452E+00  (-0.1074147E+00)
 number of electron      62.0000009 magnetization      10.5043166
 augmentation part        0.8541570 magnetization       8.2828035

 Broyden mixing:
  rms(total) = 0.61182E+00    rms(broyden)= 0.61168E+00
  rms(prec ) = 0.65756E+00
  weight for this iteration     100.00

 eigenvalues of (default mixing * dielectric matrix)
  average eigenvalue GAMMA=   0.5552
  0.6773  0.6773  0.4331  0.4331

 Free energy of the ion-electron system (eV)
  ---------------------------------------------------
  alpha Z        PSCENC =        15.28173641
  Ewald energy   TEWEN  =      7519.48427785
  -Hartree energ DENC   =    -10115.04961648
  -exchange      EXHF   =         0.00000000
  -V(xc)+E(xc)   XCENC  =      -161.72564508
  PAW double counting   =      1685.66062366    -1442.79140275
  entropy T*S    EENTRO =         0.00000000
  eigenvalues    EBANDS =      -432.44937284
  atomic energy  EATOM  =      2893.74546681
  Solvation  Ediel_sol  =         0.00000000
  ---------------------------------------------------
  free energy    TOTEN  =       -37.84393241 eV

  energy without entropy =      -37.84393241  energy(sigma->0) =      -37.84393241


--------------------------------------------------------------------------------------------------------




--------------------------------------- Iteration      1(  10)  ---------------------------------------


    POTLOK:  cpu time   52.1400: real time   52.4478
    SETDIJ:  cpu time    0.0480: real time    0.0504
     EDDAV:  cpu time   31.7000: real time   32.3578
 BZINTS: Fermi energy: -2.284660; 62.000000 electrons
         Band energy:-433.010578;  BLOECHL correction: -0.009813
       DOS:  cpu time    0.0080: real time    0.0069
    CHARGE:  cpu time    2.0760: real time    2.1017
    MIXING:  cpu time    0.0480: real time    0.0444
    --------------------------------------------
      LOOP:  cpu time   86.0200: real time   87.0090

 eigenvalue-minimisations  :  1392
 total energy-change (2. order) :-0.2333282E+00  (-0.5618278E-01)
 number of electron      62.0000009 magnetization       9.7695054
 augmentation part        0.9633086 magnetization       7.6453749

 Broyden mixing:
  rms(total) = 0.72765E+00    rms(broyden)= 0.72761E+00
  rms(prec ) = 0.77148E+00
  weight for this iteration     100.00

 eigenvalues of (default mixing * dielectric matrix)
  average eigenvalue GAMMA=   0.7048
  0.4156  0.4156  0.6832  1.0048  1.0048

 Free energy of the ion-electron system (eV)
  ---------------------------------------------------
  alpha Z        PSCENC =        15.28173641
  Ewald energy   TEWEN  =      7519.48427785
  -Hartree energ DENC   =    -10114.60883851
  -exchange      EXHF   =         0.00000000
  -V(xc)+E(xc)   XCENC  =      -161.09768876
  PAW double counting   =      1692.50475448    -1450.37639043
  entropy T*S    EENTRO =         0.00000000
  eigenvalues    EBANDS =      -433.01057847
  atomic energy  EATOM  =      2893.74546681
  Solvation  Ediel_sol  =         0.00000000
  ---------------------------------------------------
  free energy    TOTEN  =       -38.07726062 eV

  energy without entropy =      -38.07726062  energy(sigma->0) =      -38.07726062


--------------------------------------------------------------------------------------------------------




--------------------------------------- Iteration      1(  11)  ---------------------------------------


    POTLOK:  cpu time   51.4800: real time   52.0388
    SETDIJ:  cpu time    0.0480: real time    0.0488
     EDDAV:  cpu time   31.5360: real time   31.9382
 BZINTS: Fermi energy: -2.105520; 62.000000 electrons
         Band energy:-429.768930;  BLOECHL correction: -0.009064
       DOS:  cpu time    0.0040: real time    0.0069
    CHARGE:  cpu time    2.0800: real time    2.0819
    MIXING:  cpu time    0.0440: real time    0.0439
    --------------------------------------------
      LOOP:  cpu time   85.1920: real time   86.1586

 eigenvalue-minimisations  :  1376
 total energy-change (2. order) : 0.8651985E-01  (-0.3664896E-01)
 number of electron      62.0000008 magnetization       9.2642227
 augmentation part        0.7219461 magnetization       7.2134485

 Broyden mixing:
  rms(total) = 0.60711E+00    rms(broyden)= 0.60710E+00
  rms(prec ) = 0.62847E+00
  weight for this iteration     100.00

 eigenvalues of (default mixing * dielectric matrix)
  average eigenvalue GAMMA=   0.8988
  2.0912  0.4174  0.4174  0.9167  0.9167  0.6336

 Free energy of the ion-electron system (eV)
  ---------------------------------------------------
  alpha Z        PSCENC =        15.28173641
  Ewald energy   TEWEN  =      7519.48427785
  -Hartree energ DENC   =    -10117.53362977
  -exchange      EXHF   =         0.00000000
  -V(xc)+E(xc)   XCENC  =      -160.55145474
  PAW double counting   =      1706.61659944    -1465.26480655
  entropy T*S    EENTRO =         0.00000000
  eigenvalues    EBANDS =      -429.76893021
  atomic energy  EATOM  =      2893.74546681
  Solvation  Ediel_sol  =         0.00000000
  ---------------------------------------------------
  free energy    TOTEN  =       -37.99074076 eV

  energy without entropy =      -37.99074076  energy(sigma->0) =      -37.99074076


--------------------------------------------------------------------------------------------------------




--------------------------------------- Iteration      1(  12)  ---------------------------------------


    POTLOK:  cpu time   52.1800: real time   52.2826
    SETDIJ:  cpu time    0.0520: real time    0.0513
     EDDAV:  cpu time   28.0240: real time   28.4516
 BZINTS: Fermi energy: -2.115290; 62.000000 electrons
         Band energy:-429.833619;  BLOECHL correction: -0.007926
       DOS:  cpu time    0.0080: real time    0.0067
    CHARGE:  cpu time    2.0880: real time    2.0927
    MIXING:  cpu time    0.0440: real time    0.0449
    --------------------------------------------
      LOOP:  cpu time   82.3960: real time   82.9297

 eigenvalue-minimisations  :  1200
 total energy-change (2. order) :-0.9104411E-01  (-0.8394931E-02)
 number of electron      62.0000008 magnetization       8.7549703
 augmentation part        0.7631313 magnetization       6.7923559

 Broyden mixing:
  rms(total) = 0.62231E+00    rms(broyden)= 0.62230E+00
  rms(prec ) = 0.64667E+00
  weight for this iteration     100.00

 eigenvalues of (default mixing * dielectric matrix)
  average eigenvalue GAMMA=   0.9708
  2.7194  0.9690  0.9690  0.4155  0.4155  0.6537  0.6537

 Free energy of the ion-electron system (eV)
  ---------------------------------------------------
  alpha Z        PSCENC =        15.28173641
  Ewald energy   TEWEN  =      7519.48427785
  -Hartree energ DENC   =    -10117.55160369
  -exchange      EXHF   =         0.00000000
  -V(xc)+E(xc)   XCENC  =      -160.52288430
  PAW double counting   =      1710.11628158    -1468.80144063
  entropy T*S    EENTRO =         0.00000000
  eigenvalues    EBANDS =      -429.83361891
  atomic energy  EATOM  =      2893.74546681
  Solvation  Ediel_sol  =         0.00000000
  ---------------------------------------------------
  free energy    TOTEN  =       -38.08178487 eV

  energy without entropy =      -38.08178487  energy(sigma->0) =      -38.08178487


--------------------------------------------------------------------------------------------------------




--------------------------------------- Iteration      1(  13)  ---------------------------------------


    POTLOK:  cpu time   52.2080: real time   52.3901
    SETDIJ:  cpu time    0.0480: real time    0.0505
     EDDAV:  cpu time   26.0080: real time   26.2434
 BZINTS: Fermi energy: -2.091928; 62.000000 electrons
         Band energy:-428.143826;  BLOECHL correction: -0.007702
       DOS:  cpu time    0.0040: real time    0.0063
    CHARGE:  cpu time    2.1040: real time    2.1224
    MIXING:  cpu time    0.0440: real time    0.0468
    --------------------------------------------
      LOOP:  cpu time   80.4160: real time   80.8595

 eigenvalue-minimisations  :  1104
 total energy-change (2. order) :-0.1293673E-01  (-0.6104708E-02)
 number of electron      62.0000008 magnetization       8.2546066
 augmentation part        0.6796041 magnetization       6.3067915

 Broyden mixing:
  rms(total) = 0.52795E+00    rms(broyden)= 0.52795E+00
  rms(prec ) = 0.54805E+00
  weight for this iteration     100.00

 eigenvalues of (default mixing * dielectric matrix)
  average eigenvalue GAMMA=   1.0713
  3.0918  1.1994  1.1994  0.4156  0.4156  0.8108  0.8108  0.6272

 Free energy of the ion-electron system (eV)
  ---------------------------------------------------
  alpha Z        PSCENC =        15.28173641
  Ewald energy   TEWEN  =      7519.48427785
  -Hartree energ DENC   =    -10119.12783513
  -exchange      EXHF   =         0.00000000
  -V(xc)+E(xc)   XCENC  =      -160.67904256
  PAW double counting   =      1713.28151787    -1471.93701697
  entropy T*S    EENTRO =         0.00000000
  eigenvalues    EBANDS =      -428.14382588
  atomic energy  EATOM  =      2893.74546681
  Solvation  Ediel_sol  =         0.00000000
  ---------------------------------------------------
  free energy    TOTEN  =       -38.09472160 eV

  energy without entropy =      -38.09472160  energy(sigma->0) =      -38.09472160


--------------------------------------------------------------------------------------------------------




--------------------------------------- Iteration      1(  14)  ---------------------------------------


    POTLOK:  cpu time   52.4040: real time   52.4905
    SETDIJ:  cpu time    0.0440: real time    0.0456
     EDDAV:  cpu time   30.7760: real time   31.6271
 BZINTS: Fermi energy: -2.053931; 62.000000 electrons
         Band energy:-426.667801;  BLOECHL correction: -0.007175
       DOS:  cpu time    0.0040: real time    0.0073
    CHARGE:  cpu time    2.1320: real time    2.1330
    MIXING:  cpu time    0.0480: real time    0.0481
    --------------------------------------------
      LOOP:  cpu time   85.4080: real time   86.3516

 eigenvalue-minimisations  :  1360
 total energy-change (2. order) :-0.5615940E-01  (-0.4426289E-02)
 number of electron      62.0000008 magnetization       6.9632400
 augmentation part        0.5673043 magnetization       5.0182876

 Broyden mixing:
  rms(total) = 0.39252E+00    rms(broyden)= 0.39252E+00
  rms(prec ) = 0.40801E+00
  weight for this iteration     100.00

 eigenvalues of (default mixing * dielectric matrix)
  average eigenvalue GAMMA=   1.2165
  3.8441  1.5359  1.5359  0.4158  0.4158  0.9188  0.9188  0.6147  0.7490

 Free energy of the ion-electron system (eV)
  ---------------------------------------------------
  alpha Z        PSCENC =        15.28173641
  Ewald energy   TEWEN  =      7519.48427785
  -Hartree energ DENC   =    -10120.51582611
  -exchange      EXHF   =         0.00000000
  -V(xc)+E(xc)   XCENC  =      -160.97327592
  PAW double counting   =      1714.44573870    -1472.95119749
  entropy T*S    EENTRO =         0.00000000
  eigenvalues    EBANDS =      -426.66780124
  atomic energy  EATOM  =      2893.74546681
  Solvation  Ediel_sol  =         0.00000000
  ---------------------------------------------------
  free energy    TOTEN  =       -38.15088100 eV

  energy without entropy =      -38.15088100  energy(sigma->0) =      -38.15088100


--------------------------------------------------------------------------------------------------------




--------------------------------------- Iteration      1(  15)  ---------------------------------------


    POTLOK:  cpu time   51.4160: real time   52.6866
    SETDIJ:  cpu time    0.0800: real time    0.0776
     EDDAV:  cpu time   28.5120: real time   28.6239
 BZINTS: Fermi energy: -2.025521; 62.000000 electrons
         Band energy:-423.797209;  BLOECHL correction: -0.009395
       DOS:  cpu time    0.0040: real time    0.0063
    CHARGE:  cpu time    2.0840: real time    2.1294
    MIXING:  cpu time    0.0480: real time    0.0493
    --------------------------------------------
      LOOP:  cpu time   82.1440: real time   83.5731

 eigenvalue-minimisations  :  1216
 total energy-change (2. order) :-0.1022545E+00  (-0.1041538E-01)
 number of electron      62.0000008 magnetization       6.0447243
 augmentation part        0.3735358 magnetization       4.1804079

 Broyden mixing:
  rms(total) = 0.18060E+00    rms(broyden)= 0.18058E+00
  rms(prec ) = 0.18703E+00
  weight for this iteration     100.00

 eigenvalues of (default mixing * dielectric matrix)
  average eigenvalue GAMMA=   1.6884
  8.1559  2.4325  1.4373  0.4157  0.4157  1.0012  1.0012  0.6114  0.7067  0.7067

 Free energy of the ion-electron system (eV)
  ---------------------------------------------------
  alpha Z        PSCENC =        15.28173641
  Ewald energy   TEWEN  =      7519.48427785
  -Hartree energ DENC   =    -10123.23359279
  -exchange      EXHF   =         0.00000000
  -V(xc)+E(xc)   XCENC  =      -161.39140202
  PAW double counting   =      1715.09426296    -1473.43667590
  entropy T*S    EENTRO =         0.00000000
  eigenvalues    EBANDS =      -423.79720885
  atomic energy  EATOM  =      2893.74546681
  Solvation  Ediel_sol  =         0.00000000
  ---------------------------------------------------
  free energy    TOTEN  =       -38.25313553 eV

  energy without entropy =      -38.25313553  energy(sigma->0) =      -38.25313553


--------------------------------------------------------------------------------------------------------




--------------------------------------- Iteration      1(  16)  ---------------------------------------


    POTLOK:  cpu time   51.9760: real time   52.2209
    SETDIJ:  cpu time    0.0560: real time    0.0529
     EDDAV:  cpu time   29.0960: real time   29.4837
 BZINTS: Fermi energy: -1.988267; 62.000000 electrons
         Band energy:-421.269867;  BLOECHL correction: -0.015082
       DOS:  cpu time    0.0080: real time    0.0071
    CHARGE:  cpu time    2.0880: real time    2.1189
    MIXING:  cpu time    0.0520: real time    0.0501
    --------------------------------------------
      LOOP:  cpu time   83.2760: real time   83.9336

 eigenvalue-minimisations  :  1264
 total energy-change (2. order) :-0.3534527E-01  (-0.9516969E-02)
 number of electron      62.0000008 magnetization       5.5467277
 augmentation part        0.1529829 magnetization       3.8161419

 Broyden mixing:
  rms(total) = 0.58907E-01    rms(broyden)= 0.58809E-01
  rms(prec ) = 0.63245E-01
  weight for this iteration     100.00

 eigenvalues of (default mixing * dielectric matrix)
  average eigenvalue GAMMA=   1.9602
 11.5084  2.7224  1.4907  1.0798  1.0798  0.4157  0.4157  0.8078  0.8078  0.6169
  0.6169

 Free energy of the ion-electron system (eV)
  ---------------------------------------------------
  alpha Z        PSCENC =        15.28173641
  Ewald energy   TEWEN  =      7519.48427785
  -Hartree energ DENC   =    -10125.59112499
  -exchange      EXHF   =         0.00000000
  -V(xc)+E(xc)   XCENC  =      -161.69085079
  PAW double counting   =      1716.74846429    -1474.99658327
  entropy T*S    EENTRO =         0.00000000
  eigenvalues    EBANDS =      -421.26986711
  atomic energy  EATOM  =      2893.74546681
  Solvation  Ediel_sol  =         0.00000000
  ---------------------------------------------------
  free energy    TOTEN  =       -38.28848080 eV

  energy without entropy =      -38.28848080  energy(sigma->0) =      -38.28848080


--------------------------------------------------------------------------------------------------------




--------------------------------------- Iteration      1(  17)  ---------------------------------------


    POTLOK:  cpu time   52.1440: real time   52.4364
    SETDIJ:  cpu time    0.0480: real time    0.0488
     EDDAV:  cpu time   28.7480: real time   29.5896
 BZINTS: Fermi energy: -1.973857; 62.000000 electrons
         Band energy:-420.718891;  BLOECHL correction: -0.018568
       DOS:  cpu time    0.0040: real time    0.0057
    CHARGE:  cpu time    2.1320: real time    2.1507
    MIXING:  cpu time    0.0520: real time    0.0522
    --------------------------------------------
      LOOP:  cpu time   83.1280: real time   84.2833

 eigenvalue-minimisations  :  1264
 total energy-change (2. order) :-0.8276223E-02  (-0.2139671E-02)
 number of electron      62.0000008 magnetization       5.4612971
 augmentation part        0.1512235 magnetization       3.8338091

 Broyden mixing:
  rms(total) = 0.59812E-01    rms(broyden)= 0.59786E-01
  rms(prec ) = 0.63093E-01
  weight for this iteration     100.00

 eigenvalues of (default mixing * dielectric matrix)
  average eigenvalue GAMMA=   1.9783
 12.6772  2.4927  1.9736  1.0843  1.0843  0.4157  0.4157  0.8372  0.8372  0.6552
  0.6552  0.6114

 Free energy of the ion-electron system (eV)
  ---------------------------------------------------
  alpha Z        PSCENC =        15.28173641
  Ewald energy   TEWEN  =      7519.48427785
  -Hartree energ DENC   =    -10126.01838927
  -exchange      EXHF   =         0.00000000
  -V(xc)+E(xc)   XCENC  =      -161.89100927
  PAW double counting   =      1716.59735315    -1474.77730158
  entropy T*S    EENTRO =         0.00000000
  eigenvalues    EBANDS =      -420.71889112
  atomic energy  EATOM  =      2893.74546681
  Solvation  Ediel_sol  =         0.00000000
  ---------------------------------------------------
  free energy    TOTEN  =       -38.29675702 eV

  energy without entropy =      -38.29675702  energy(sigma->0) =      -38.29675702


--------------------------------------------------------------------------------------------------------




--------------------------------------- Iteration      1(  18)  ---------------------------------------


    POTLOK:  cpu time   52.0040: real time   52.6284
    SETDIJ:  cpu time    0.0520: real time    0.0508
     EDDAV:  cpu time   25.2320: real time   25.4973
 BZINTS: Fermi energy: -1.971656; 62.000000 electrons
         Band energy:-420.547494;  BLOECHL correction: -0.018682
       DOS:  cpu time    0.0040: real time    0.0071
    CHARGE:  cpu time    2.0240: real time    2.1590
    MIXING:  cpu time    0.0520: real time    0.0545
    --------------------------------------------
      LOOP:  cpu time   79.3680: real time   80.3970

 eigenvalue-minimisations  :  1072
 total energy-change (2. order) :-0.1699344E-02  (-0.1873980E-03)
 number of electron      62.0000008 magnetization       5.4829593
 augmentation part        0.1617612 magnetization       3.8577263

 Broyden mixing:
  rms(total) = 0.55767E-01    rms(broyden)= 0.55766E-01
  rms(prec ) = 0.58280E-01
  weight for this iteration     100.00

 eigenvalues of (default mixing * dielectric matrix)
  average eigenvalue GAMMA=   1.9772
 13.0038  2.5849  2.1177  1.5037  1.0717  1.0717  0.4157  0.4157  0.8117  0.8117
  0.6410  0.6410  0.6139

 Free energy of the ion-electron system (eV)
  ---------------------------------------------------
  alpha Z        PSCENC =        15.28173641
  Ewald energy   TEWEN  =      7519.48427785
  -Hartree energ DENC   =    -10126.14492589
  -exchange      EXHF   =         0.00000000
  -V(xc)+E(xc)   XCENC  =      -161.91204113
  PAW double counting   =      1716.96729074    -1475.17276739
  entropy T*S    EENTRO =         0.00000000
  eigenvalues    EBANDS =      -420.54749377
  atomic energy  EATOM  =      2893.74546681
  Solvation  Ediel_sol  =         0.00000000
  ---------------------------------------------------
  free energy    TOTEN  =       -38.29845637 eV

  energy without entropy =      -38.29845637  energy(sigma->0) =      -38.29845637


--------------------------------------------------------------------------------------------------------




--------------------------------------- Iteration      1(  19)  ---------------------------------------


    POTLOK:  cpu time   51.2760: real time   52.5125
    SETDIJ:  cpu time    0.0520: real time    0.0510
     EDDAV:  cpu time   24.0760: real time   25.0763
 BZINTS: Fermi energy: -1.973672; 62.000000 electrons
         Band energy:-420.557855;  BLOECHL correction: -0.018359
       DOS:  cpu time    0.0040: real time    0.0069
    CHARGE:  cpu time    1.9360: real time    2.1018
    MIXING:  cpu time    0.0440: real time    0.0524
    --------------------------------------------
      LOOP:  cpu time   77.3880: real time   79.8008

 eigenvalue-minimisations  :  1040
 total energy-change (2. order) :-0.3749378E-03  (-0.7196530E-04)
 number of electron      62.0000008 magnetization       5.5361292
 augmentation part        0.1791412 magnetization       3.9042156

 Broyden mixing:
  rms(total) = 0.42185E-01    rms(broyden)= 0.42185E-01
  rms(prec ) = 0.43655E-01
  weight for this iteration     100.00

 eigenvalues of (default mixing * dielectric matrix)
  average eigenvalue GAMMA=   1.9481
 12.9429  2.6101  2.6101  1.6440  1.0854  1.0854  0.4157  0.4157  0.8758  0.8758
  0.7833  0.6263  0.6263  0.6770

 Free energy of the ion-electron system (eV)
  ---------------------------------------------------
  alpha Z        PSCENC =        15.28173641
  Ewald energy   TEWEN  =      7519.48427785
  -Hartree energ DENC   =    -10126.12300960
  -exchange      EXHF   =         0.00000000
  -V(xc)+E(xc)   XCENC  =      -161.90757776
  PAW double counting   =      1716.73970513    -1474.96157516
  entropy T*S    EENTRO =         0.00000000
  eigenvalues    EBANDS =      -420.55785499
  atomic energy  EATOM  =      2893.74546681
  Solvation  Ediel_sol  =         0.00000000
  ---------------------------------------------------
  free energy    TOTEN  =       -38.29883130 eV

  energy without entropy =      -38.29883130  energy(sigma->0) =      -38.29883130


--------------------------------------------------------------------------------------------------------




--------------------------------------- Iteration      1(  20)  ---------------------------------------


    POTLOK:  cpu time   51.8960: real time   52.7647
    SETDIJ:  cpu time    0.0520: real time    0.0499
     EDDAV:  cpu time   27.7160: real time   28.1498
 BZINTS: Fermi energy: -1.978219; 62.000000 electrons
         Band energy:-420.659558;  BLOECHL correction: -0.017562
       DOS:  cpu time    0.0040: real time    0.0071
    CHARGE:  cpu time    2.0760: real time    2.1023
    MIXING:  cpu time    0.0560: real time    0.0567
    --------------------------------------------
      LOOP:  cpu time   81.8000: real time   83.1306

 eigenvalue-minimisations  :  1200
 total energy-change (2. order) :-0.6417548E-04  (-0.1248922E-03)
 number of electron      62.0000008 magnetization       5.5740203
 augmentation part        0.1967704 magnetization       3.9205721

 Broyden mixing:
  rms(total) = 0.26101E-01    rms(broyden)= 0.26099E-01
  rms(prec ) = 0.26757E-01
  weight for this iteration     100.00

 eigenvalues of (default mixing * dielectric matrix)
  average eigenvalue GAMMA=   1.8925
 12.7224  2.7123  2.7123  1.9093  1.1133  1.1133  0.4157  0.4157  0.9623  0.9623
  0.7780  0.7780  0.6122  0.6122  0.5678

 Free energy of the ion-electron system (eV)
  ---------------------------------------------------
  alpha Z        PSCENC =        15.28173641
  Ewald energy   TEWEN  =      7519.48427785
  -Hartree energ DENC   =    -10126.03384769
  -exchange      EXHF   =         0.00000000
  -V(xc)+E(xc)   XCENC  =      -161.86881386
  PAW double counting   =      1716.50203096    -1474.75018768
  entropy T*S    EENTRO =         0.00000000
  eigenvalues    EBANDS =      -420.65955827
  atomic energy  EATOM  =      2893.74546681
  Solvation  Ediel_sol  =         0.00000000
  ---------------------------------------------------
  free energy    TOTEN  =       -38.29889548 eV

  energy without entropy =      -38.29889548  energy(sigma->0) =      -38.29889548


--------------------------------------------------------------------------------------------------------




--------------------------------------- Iteration      1(  21)  ---------------------------------------


    POTLOK:  cpu time   50.6480: real time   52.1628
    SETDIJ:  cpu time    0.0240: real time    0.0598
     EDDAV:  cpu time   27.2120: real time   27.9064
 BZINTS: Fermi energy: -1.980561; 62.000000 electrons
         Band energy:-420.733113;  BLOECHL correction: -0.017081
       DOS:  cpu time    0.0080: real time    0.0070
    CHARGE:  cpu time    2.1000: real time    2.1186
    MIXING:  cpu time    0.0520: real time    0.0554
    --------------------------------------------
      LOOP:  cpu time   80.0440: real time   82.3099

 eigenvalue-minimisations  :  1168
 total energy-change (2. order) : 0.2378302E-03  (-0.3545402E-04)
 number of electron      62.0000008 magnetization       5.6032914
 augmentation part        0.2051343 magnetization       3.9372505

 Broyden mixing:
  rms(total) = 0.17681E-01    rms(broyden)= 0.17680E-01
  rms(prec ) = 0.18042E-01
  weight for this iteration     100.00

 eigenvalues of (default mixing * dielectric matrix)
  average eigenvalue GAMMA=   1.8263
 12.5316  2.7648  2.5414  1.9967  1.1938  1.1938  0.4157  0.4157  1.0312  1.0312
  0.7758  0.7758  0.6147  0.6147  0.6617  0.6617

 Free energy of the ion-electron system (eV)
  ---------------------------------------------------
  alpha Z        PSCENC =        15.28173641
  Ewald energy   TEWEN  =      7519.48427785
  -Hartree energ DENC   =    -10125.97071235
  -exchange      EXHF   =         0.00000000
  -V(xc)+E(xc)   XCENC  =      -161.84543778
  PAW double counting   =      1716.28241217    -1474.54328765
  entropy T*S    EENTRO =         0.00000000
  eigenvalues    EBANDS =      -420.73311311
  atomic energy  EATOM  =      2893.74546681
  Solvation  Ediel_sol  =         0.00000000
  ---------------------------------------------------
  free energy    TOTEN  =       -38.29865765 eV

  energy without entropy =      -38.29865765  energy(sigma->0) =      -38.29865765


--------------------------------------------------------------------------------------------------------




--------------------------------------- Iteration      1(  22)  ---------------------------------------


    POTLOK:  cpu time   52.1080: real time   52.4070
    SETDIJ:  cpu time    0.0480: real time    0.0478
     EDDAV:  cpu time   18.9840: real time   19.0103
 BZINTS: Fermi energy: -1.981909; 62.000000 electrons
         Band energy:-420.784592;  BLOECHL correction: -0.016736
       DOS:  cpu time    0.0040: real time    0.0064
    CHARGE:  cpu time    2.1040: real time    2.1039
    MIXING:  cpu time    0.0520: real time    0.0555
    --------------------------------------------
      LOOP:  cpu time   73.3000: real time   73.6309

 eigenvalue-minimisations  :   720
 total energy-change (2. order) : 0.2099386E-03  (-0.7366175E-05)
 number of electron      62.0000008 magnetization       5.6398019
 augmentation part        0.2075642 magnetization       3.9644303

 Broyden mixing:
  rms(total) = 0.12898E-01    rms(broyden)= 0.12898E-01
  rms(prec ) = 0.13217E-01
  weight for this iteration     100.00

 eigenvalues of (default mixing * dielectric matrix)
  average eigenvalue GAMMA=   1.8325
 12.2303  3.1560  2.4096  1.9226  1.9226  1.4888  1.0782  1.0782  0.4157  0.4157
  0.8513  0.8513  0.7533  0.7533  0.6218  0.6218  0.5820

 Free energy of the ion-electron system (eV)
  ---------------------------------------------------
  alpha Z        PSCENC =        15.28173641
  Ewald energy   TEWEN  =      7519.48427785
  -Hartree energ DENC   =    -10125.92869969
  -exchange      EXHF   =         0.00000000
  -V(xc)+E(xc)   XCENC  =      -161.82767510
  PAW double counting   =      1716.15360462    -1474.42256701
  entropy T*S    EENTRO =         0.00000000
  eigenvalues    EBANDS =      -420.78459161
  atomic energy  EATOM  =      2893.74546681
  Solvation  Ediel_sol  =         0.00000000
  ---------------------------------------------------
  free energy    TOTEN  =       -38.29844771 eV

  energy without entropy =      -38.29844771  energy(sigma->0) =      -38.29844771


--------------------------------------------------------------------------------------------------------




--------------------------------------- Iteration      1(  23)  ---------------------------------------


    POTLOK:  cpu time   52.2040: real time   52.4989
    SETDIJ:  cpu time    0.0880: real time    0.0859
     EDDAV:  cpu time   18.8400: real time   19.1668
 BZINTS: Fermi energy: -1.983622; 62.000000 electrons
         Band energy:-420.841329;  BLOECHL correction: -0.016281
       DOS:  cpu time    0.0040: real time    0.0068
    CHARGE:  cpu time    2.0960: real time    2.0958
    MIXING:  cpu time    0.0760: real time    0.0782
    --------------------------------------------
      LOOP:  cpu time   73.3080: real time   73.9325

 eigenvalue-minimisations  :   736
 total energy-change (2. order) : 0.1297330E-03  (-0.1471960E-04)
 number of electron      62.0000008 magnetization       5.6804569
 augmentation part        0.2126599 magnetization       3.9934721

 Broyden mixing:
  rms(total) = 0.58936E-02    rms(broyden)= 0.58927E-02
  rms(prec ) = 0.61109E-02
  weight for this iteration     100.00

 eigenvalues of (default mixing * dielectric matrix)
  average eigenvalue GAMMA=   1.8630
 12.0338  3.3718  2.6039  2.6039  2.5485  1.3818  1.0913  1.0913  0.4157  0.4157
  0.8568  0.8568  0.8937  0.8937  0.6356  0.6356  0.6017  0.6017

 Free energy of the ion-electron system (eV)
  ---------------------------------------------------
  alpha Z        PSCENC =        15.28173641
  Ewald energy   TEWEN  =      7519.48427785
  -Hartree energ DENC   =    -10125.88426304
  -exchange      EXHF   =         0.00000000
  -V(xc)+E(xc)   XCENC  =      -161.80578712
  PAW double counting   =      1715.99771315    -1474.27613286
  entropy T*S    EENTRO =         0.00000000
  eigenvalues    EBANDS =      -420.84132917
  atomic energy  EATOM  =      2893.74546681
  Solvation  Ediel_sol  =         0.00000000
  ---------------------------------------------------
  free energy    TOTEN  =       -38.29831798 eV

  energy without entropy =      -38.29831798  energy(sigma->0) =      -38.29831798


--------------------------------------------------------------------------------------------------------




--------------------------------------- Iteration      1(  24)  ---------------------------------------


    POTLOK:  cpu time   50.8640: real time   52.4199
    SETDIJ:  cpu time    0.0520: real time    0.0483
     EDDAV:  cpu time   21.0360: real time   22.0571
 BZINTS: Fermi energy: -1.983884; 62.000000 electrons
         Band energy:-420.823139;  BLOECHL correction: -0.015790
       DOS:  cpu time    0.0040: real time    0.0068
    CHARGE:  cpu time    2.1400: real time    2.1378
    MIXING:  cpu time    0.0720: real time    0.0735
    --------------------------------------------
      LOOP:  cpu time   74.1680: real time   76.7434

 eigenvalue-minimisations  :   880
 total energy-change (2. order) : 0.3579366E-03  (-0.1958014E-04)
 number of electron      62.0000008 magnetization       5.6897328
 augmentation part        0.2155522 magnetization       3.9909432

 Broyden mixing:
  rms(total) = 0.11176E-02    rms(broyden)= 0.11131E-02
  rms(prec ) = 0.17174E-02
  weight for this iteration     100.00

 eigenvalues of (default mixing * dielectric matrix)
  average eigenvalue GAMMA=   1.8409
[...]
     34      -0.1729      0.00000
     35       0.0586      0.00000
     36       0.1280      0.00000
     37       0.2084      0.00000
     38       0.8907      0.00000
     39       0.9841      0.00000
     40       1.5025      0.00000
     41       1.5301      0.00000
     42       1.8921      0.00000
     43       2.7652      0.00000
     44       3.0784      0.00000
     45       3.0982      0.00000
     46       3.5659      0.00000
     47       3.6121      0.00000
     48       3.7275      0.00000

 k-point     5 :      -0.4000    0.2000    0.0000
  band No.  band energies     occupation 
      1     -15.5787      1.00000
      2     -13.6556      1.00000
      3     -13.5461      1.00000
      4     -13.2681      1.00000
      5     -12.7070      1.00000
      6     -12.5971      1.00000
      7     -11.2795      1.00000
      8      -9.7352      1.00000
      9      -7.0358      1.00000
     10      -6.6600      1.00000
     11      -6.5321      1.00000
     12      -5.9111      1.00000
     13      -5.5443      1.00000
     14      -5.0798      1.00000
     15      -4.7554      1.00000
     16      -4.5236      1.00000
     17      -4.3902      1.00000
     18      -4.2917      1.00000
     19      -4.1877      1.00000
     20      -3.8369      1.00000
     21      -3.6847      1.00000
     22      -3.5636      1.00000
     23      -2.9227      1.00000
     24      -2.7123      1.00000
     25      -2.4212      1.00000
     26      -2.3993      1.00000
     27      -1.8933      1.00000
     28      -1.8467      1.00000
     29      -1.6055      1.00000
     30      -1.5575      1.00000
     31      -1.5233      1.00000
     32      -1.0917      0.00000
     33      -0.4488      0.00000
     34      -0.3465      0.00000
     35       0.0157      0.00000
     36       0.2869      0.00000
     37       0.3536      0.00000
     38       0.3722      0.00000
     39       1.0761      0.00000
     40       1.1441      0.00000
     41       1.6328      0.00000
     42       1.7784      0.00000
     43       3.2087      0.00000
     44       3.3003      0.00000
     45       3.3544      0.00000
     46       3.3703      0.00000
     47       3.4940      0.00000
     48       3.9261      0.00000


--------------------------------------------------------------------------------------------------------


 soft charge-density along one line, spin component           1
         0         1         2         3         4         5         6         7         8         9
 total charge-density along one line

 soft charge-density along one line, spin component           2
         0         1         2         3         4         5         6         7         8         9
 total charge-density along one line

 pseudopotential strength for first ion, spin component:           1
 -9.077  -0.054  -0.000   0.000  -0.000   0.350   0.016   0.000
 -0.054  -9.120   0.000  -0.000   0.000   0.016   0.363  -0.000
 -0.000   0.000  -9.003   0.000  -0.000   0.000  -0.000   0.328
  0.000  -0.000   0.000  -9.120   0.054  -0.000   0.000  -0.000
 -0.000   0.000  -0.000   0.054  -9.077   0.000  -0.000  -0.000
  0.350   0.016   0.000  -0.000   0.000   0.636  -0.006  -0.000
  0.016   0.363  -0.000   0.000  -0.000  -0.006   0.631   0.000
  0.000  -0.000   0.328  -0.000  -0.000  -0.000   0.000   0.643
 -0.000   0.000  -0.000   0.363  -0.016   0.000  -0.000   0.000
  0.000  -0.000  -0.000  -0.016   0.350  -0.000   0.000   0.000
  0.000  -0.000  -0.002  -0.000   0.000  -0.000  -0.000   0.001
 -0.000   0.000   0.000   0.000  -0.000   0.000  -0.000  -0.000
  0.000   0.000   0.000  -0.000   0.003  -0.000  -0.000  -0.000
 -0.000  -0.000   0.000  -0.000   0.000  -0.000   0.000  -0.000
  0.003  -0.000   0.000   0.000  -0.000  -0.000  -0.000  -0.000
 -0.000  -0.000  -0.000   0.000  -0.003   0.000   0.000   0.000
  0.000   0.000  -0.000   0.000  -0.000  -0.000  -0.000   0.000
 -0.003   0.000  -0.000  -0.000   0.000   0.001  -0.000   0.000
 pseudopotential strength for first ion, spin component:           2
 -9.077  -0.054  -0.000   0.000  -0.000   0.350   0.016   0.000
 -0.054  -9.120   0.000  -0.000   0.000   0.016   0.363  -0.000
 -0.000   0.000  -9.003   0.000  -0.000   0.000  -0.000   0.328
  0.000  -0.000   0.000  -9.120   0.054  -0.000   0.000  -0.000
 -0.000   0.000  -0.000   0.054  -9.077   0.000  -0.000  -0.000
  0.350   0.016   0.000  -0.000   0.000   0.636  -0.006  -0.000
  0.016   0.363  -0.000   0.000  -0.000  -0.006   0.631   0.000
  0.000  -0.000   0.328  -0.000  -0.000  -0.000   0.000   0.643
 -0.000   0.000  -0.000   0.363  -0.016   0.000  -0.000   0.000
  0.000  -0.000  -0.000  -0.016   0.350  -0.000   0.000   0.000
  0.000  -0.000  -0.002  -0.000   0.000  -0.000  -0.000   0.001
 -0.000   0.000   0.000   0.000  -0.000   0.000  -0.000  -0.000
  0.000   0.000   0.000  -0.000   0.003  -0.000  -0.000  -0.000
 -0.000  -0.000   0.000  -0.000   0.000  -0.000   0.000  -0.000
  0.003  -0.000   0.000   0.000  -0.000  -0.000  -0.000  -0.000
 -0.000  -0.000  -0.000   0.000  -0.003   0.000   0.000   0.000
  0.000   0.000  -0.000   0.000  -0.000  -0.000  -0.000   0.000
 -0.003   0.000  -0.000  -0.000   0.000   0.001  -0.000   0.000
 total augmentation occupancy for first ion, spin component:           1
  1.516  -0.299   0.000   0.001  -0.000   0.178   0.124   0.000  -0.000   0.000  -0.000  -0.000   0.000   0.000   0.029  -0.000
 -0.299   1.218  -0.000  -0.000   0.001   0.126   0.298   0.000   0.000  -0.000  -0.000  -0.000   0.000  -0.000   0.003   0.000
  0.000  -0.000   1.832  -0.000  -0.000   0.000   0.000   0.048   0.000  -0.000  -0.006  -0.002  -0.000   0.000   0.000  -0.000
  0.001  -0.000  -0.000   1.218   0.299  -0.000  -0.000   0.000   0.298  -0.126   0.000   0.000  -0.003   0.000   0.000   0.000
 -0.000   0.001  -0.000   0.299   1.516  -0.000  -0.000  -0.000  -0.124   0.178   0.000   0.000   0.029  -0.000  -0.000   0.001
  0.178   0.126   0.000  -0.000  -0.000   0.104   0.068   0.000  -0.000  -0.000   0.000  -0.000  -0.000   0.000   0.010   0.000
  0.124   0.298   0.000  -0.000  -0.000   0.068   0.159   0.000  -0.000  -0.000   0.000   0.000   0.000   0.000  -0.001  -0.000
  0.000   0.000   0.048   0.000  -0.000   0.000   0.000   0.069   0.000  -0.000   0.006  -0.003  -0.000   0.001   0.000   0.000
 -0.000   0.000   0.000   0.298  -0.124  -0.000  -0.000   0.000   0.159  -0.068  -0.000   0.000   0.001  -0.000   0.000  -0.000
  0.000  -0.000  -0.000  -0.126   0.178  -0.000  -0.000  -0.000  -0.068   0.104  -0.000   0.000   0.010  -0.000   0.000  -0.002
 -0.000  -0.000  -0.006  -0.000   0.000   0.000   0.000   0.006   0.000  -0.000   1.059  -0.273   0.000   0.000  -0.000  -0.000
 -0.000  -0.000  -0.002   0.000   0.000  -0.000  -0.000  -0.003  -0.000   0.000  -0.273   0.116  -0.000  -0.000  -0.000   0.000
  0.000   0.000  -0.000  -0.003   0.029  -0.000   0.000  -0.000   0.001   0.010   0.000   0.000   0.180  -0.000  -0.000  -0.011
  0.000   0.000   0.000   0.000  -0.000   0.000   0.000   0.001  -0.000  -0.000   0.000  -0.000  -0.000   0.176   0.000   0.000
  0.029   0.003   0.000   0.000  -0.000   0.010  -0.001   0.000   0.000   0.000   0.000  -0.000  -0.000   0.000   0.180  -0.000
 -0.000   0.000  -0.000   0.000   0.001   0.000  -0.000   0.000  -0.000  -0.002  -0.000   0.000  -0.011  -0.000  -0.000   0.001
  0.000   0.000   0.000  -0.000  -0.000  -0.000   0.000  -0.000   0.000   0.000  -0.000   0.000   0.000  -0.012  -0.000  -0.000
  0.001  -0.000   0.000   0.000   0.000  -0.002   0.000  -0.000  -0.000  -0.000   0.000  -0.000   0.000  -0.000  -0.011  -0.000
 total augmentation occupancy for first ion, spin component:           2
 -0.000  -0.000  -0.000   0.000  -0.000   0.000  -0.000   0.000  -0.000   0.000  -0.000  -0.000   0.000   0.000  -0.000  -0.000
 -0.000  -0.000  -0.000   0.000   0.000  -0.000   0.000  -0.000  -0.000   0.000  -0.000   0.000  -0.000   0.000   0.000   0.000
 -0.000  -0.000  -0.000  -0.000   0.000   0.000  -0.000   0.000  -0.000  -0.000  -0.000  -0.000   0.000   0.000  -0.000   0.000
  0.000   0.000  -0.000  -0.000   0.000   0.000   0.000  -0.000   0.000   0.000   0.000   0.000  -0.000  -0.000  -0.000  -0.000
  0.000   0.000   0.000   0.000  -0.000  -0.000  -0.000  -0.000   0.000   0.000   0.000   0.000  -0.000  -0.000  -0.000  -0.000
  0.000  -0.000   0.000   0.000  -0.000   0.000   0.000   0.000  -0.000  -0.000   0.000   0.000   0.000   0.000  -0.000  -0.000
 -0.000   0.000  -0.000   0.000  -0.000   0.000   0.000   0.000  -0.000  -0.000   0.000  -0.000  -0.000   0.000   0.000  -0.000
  0.000  -0.000   0.000  -0.000  -0.000   0.000   0.000   0.000   0.000  -0.000   0.000   0.000   0.000   0.000  -0.000  -0.000
 -0.000  -0.000  -0.000   0.000   0.000  -0.000  -0.000   0.000   0.000  -0.000   0.000   0.000  -0.000  -0.000  -0.000  -0.000
  0.000   0.000  -0.000   0.000   0.000   0.000  -0.000  -0.000  -0.000   0.000  -0.000  -0.000  -0.000  -0.000  -0.000   0.000
 -0.000  -0.000  -0.000   0.000   0.000   0.000  -0.000   0.000   0.000  -0.000  -0.000  -0.000   0.000  -0.000   0.000   0.000
 -0.000   0.000  -0.000   0.000   0.000   0.000  -0.000   0.000   0.000  -0.000  -0.000   0.000  -0.000   0.000   0.000   0.000
  0.000  -0.000   0.000  -0.000  -0.000   0.000  -0.000   0.000  -0.000  -0.000   0.000  -0.000  -0.000   0.000   0.000   0.000
  0.000   0.000   0.000  -0.000  -0.000   0.000  -0.000   0.000  -0.000  -0.000  -0.000   0.000   0.000   0.000   0.000  -0.000
 -0.000   0.000  -0.000  -0.000  -0.000  -0.000   0.000  -0.000  -0.000  -0.000   0.000   0.000   0.000   0.000  -0.000   0.000
 -0.000   0.000   0.000  -0.000  -0.000  -0.000  -0.000  -0.000  -0.000   0.000  -0.000   0.000   0.000   0.000   0.000  -0.000
 -0.000   0.000  -0.000   0.000   0.000  -0.000  -0.000  -0.000   0.000   0.000  -0.000   0.000   0.000   0.000   0.000  -0.000
 -0.000   0.000  -0.000   0.000   0.000   0.000   0.000   0.000  -0.000   0.000   0.000  -0.000  -0.000  -0.000   0.000   0.000


------------------------ aborting loop because EDIFF is reached ----------------------------------------





 total charge     

# of ion       s       p       d       tot
------------------------------------------
    1        0.364   0.435   6.476   7.276
    2        0.364   0.435   6.476   7.276
    3        1.064   1.410   0.000   2.473
    4        1.064   1.410   0.000   2.473
    5        1.402   1.910   0.056   3.369
    6        1.393   1.906   0.059   3.358
    7        1.401   1.907   0.057   3.365
    8        1.402   1.910   0.056   3.369
    9        1.393   1.906   0.059   3.358
   10        1.401   1.907   0.057   3.365
--------------------------------------------------
tot         11.248  15.137  13.296  39.680



 magnetization (x)

# of ion       s       p       d       tot
------------------------------------------
    1        0.000   0.000   0.000   0.000
    2        0.000   0.000   0.000   0.000
    3       -0.000   0.000   0.000   0.000
    4       -0.000   0.000   0.000   0.000
    5        0.000  -0.000  -0.000  -0.000
    6        0.000  -0.000  -0.000  -0.000
    7        0.000  -0.000  -0.000  -0.000
    8        0.000  -0.000  -0.000  -0.000
    9        0.000  -0.000  -0.000  -0.000
   10        0.000  -0.000  -0.000  -0.000
--------------------------------------------------
tot          0.000  -0.000   0.000   0.000

    CHARGE:  cpu time    2.0800: real time    2.0816
    FORLOC:  cpu time    0.0560: real time    0.0579
    FORNL :  cpu time    6.8800: real time    6.9133
    STRESS:  cpu time   20.5120: real time   20.6038
    FORCOR:  cpu time   52.1160: real time   52.6791
    FORHAR:  cpu time    0.3680: real time    0.3683
    MIXING:  cpu time    0.0440: real time    0.0442
    OFIELD:  cpu time    0.0000: real time    0.0000

  FORCE on cell =-STRESS in cart. coord.  units (eV):
  Direction    XX          YY          ZZ          XY          YZ          ZX
  --------------------------------------------------------------------------------------
  Alpha Z    18.34805    18.34805    18.34805
  Ewald    8556.33715  8556.33421-10416.92999    -0.00169    -0.00059    -0.00107
  Hartree  9034.02115  9034.02186 -8720.08857    -0.00009     0.00008     0.00014
  E(xc)    -256.95750  -256.95750  -257.17432     0.00004     0.00001     0.00002
  Local  -18511.14363-18511.14236 18175.97679     0.00146     0.00039     0.00072
  n-local   709.25996   708.61528   728.80969    -0.53890    -0.42845     0.01083
  augment  -102.50567  -102.50565  -111.84421     0.00017    -0.00014     0.00013
  Kinetic   555.66337   550.22510   582.95735    -3.17226     1.17264     1.19458
  Fock        0.00000     0.00000     0.00000     0.00000     0.00000     0.00000
  -------------------------------------------------------------------------------------
  Total      -0.01907    -0.01907     0.05479     0.00000    -0.00000    -0.00000
  in kB      -0.03786    -0.03786     0.10879     0.00000    -0.00000    -0.00000
  external pressure =        0.01 kB  Pullay stress =        0.00 kB


 VOLUME and BASIS-vectors are now :
 -----------------------------------------------------------------------------
  energy-cutoff  :      520.00
  volume of cell :      806.92
      direct lattice vectors                 reciprocal lattice vectors
     6.710471317 -0.000000032  0.000000000     0.149020829 -0.086037210  0.000000000
     3.355235230  5.811438282  0.000000000     0.000000001  0.172074442 -0.000000000
    -0.000000000  0.000000000 20.691694055    -0.000000000  0.000000000  0.048328571

  length of vectors
     6.710471317  6.710470800 20.691694055     0.172074428  0.172074442  0.048328571


 FORCES acting on ions
    electron-ion (+dipol)            ewald-force                    non-local-force                 convergence-correction
 -----------------------------------------------------------------------------------------------
   0.637E-04 0.333E-04 0.119E+01   0.574E-03 0.341E-03 -.120E+01   0.139E-16 0.158E-21 0.186E-01   0.199E-06 0.129E-06 0.462E-04
   -.637E-04 -.333E-04 -.119E+01   -.574E-03 -.341E-03 0.120E+01   0.105E-20 -.158E-21 -.186E-01   -.199E-06 -.129E-06 -.462E-04
   -.407E-04 -.254E-04 0.250E+03   -.184E-03 -.102E-03 -.251E+03   -.139E-16 -.104E-16 -.297E-01   0.121E-07 0.468E-08 0.155E-02
   0.407E-04 0.254E-04 -.250E+03   0.184E-03 0.102E-03 0.251E+03   0.694E-17 0.104E-16 0.297E-01   -.121E-07 -.468E-08 -.155E-02
   -.134E+02 0.115E+00 -.406E+03   0.929E+01 -.107E+00 0.411E+03   0.362E+01 -.173E-01 -.465E+01   0.266E-02 0.828E-05 0.736E-03
   0.678E+01 0.115E+02 -.406E+03   -.474E+01 -.800E+01 0.411E+03   -.182E+01 -.313E+01 -.465E+01   -.132E-02 -.230E-02 0.736E-03
   0.658E+01 -.116E+02 -.406E+03   -.455E+01 0.810E+01 0.411E+03   -.179E+01 0.314E+01 -.465E+01   -.133E-02 0.230E-02 0.736E-03
   0.134E+02 -.115E+00 0.406E+03   -.929E+01 0.107E+00 -.411E+03   -.362E+01 0.173E-01 0.465E+01   -.266E-02 -.828E-05 -.736E-03
   -.678E+01 -.115E+02 0.406E+03   0.474E+01 0.800E+01 -.411E+03   0.182E+01 0.313E+01 0.465E+01   0.132E-02 0.230E-02 -.736E-03
   -.658E+01 0.116E+02 0.406E+03   0.455E+01 -.810E+01 -.411E+03   0.179E+01 -.314E+01 0.465E+01   0.133E-02 -.230E-02 -.736E-03
 -----------------------------------------------------------------------------------------------
   -.189E-09 -.679E-09 -.385E-09   -.266E-14 -.178E-14 0.114E-12   0.000E+00 0.000E+00 0.000E+00   0.147E-13 -.223E-13 0.232E-10


 POSITION                                       TOTAL-FORCE (eV/Angst)
 -----------------------------------------------------------------------------------
      3.35523      1.93714     10.34359         0.000000      0.000000      0.000262
      6.71047      3.87429     10.34810         0.000000      0.000000     -0.000262
     -0.00000      0.00000      9.27435         0.000000      0.000000     -0.242035
     -0.00000      0.00000     11.41735         0.000000      0.000000      0.242035
      4.20456      0.00244     11.87190        -0.441414     -0.008763     -0.048673
      1.25507      2.16897     11.87190         0.213118      0.386658     -0.048673
      4.60608      3.64004     11.87190         0.228296     -0.377894     -0.048673
      5.86115      5.80900      8.81979         0.441414      0.008763      0.048673
      8.81063      3.64247      8.81979        -0.213118     -0.386658      0.048673
      5.45962      2.17140      8.81979        -0.228296      0.377894      0.048673
 -----------------------------------------------------------------------------------
    total drift:                               -0.000000     -0.000000     -0.000000


--------------------------------------------------------------------------------------------------------



  FREE ENERGIE OF THE ION-ELECTRON SYSTEM (eV)
  ---------------------------------------------------
  free  energy   TOTEN  =       -39.62855867 eV

  energy  without entropy=      -39.62855867  energy(sigma->0) =      -39.62855867

 d Force =-0.1669894E-07[ 0.109E-07,-0.443E-07]  d Energy = 0.5203066E-03-0.520E-03
 d Force =-0.5032664E-04[-0.503E-04,-0.504E-04]  d Ewald  = 0.1693911E+02-0.169E+02


--------------------------------------------------------------------------------------------------------


    POTLOK:  cpu time   52.6000: real time   52.7971


--------------------------------------------------------------------------------------------------------




--------------------------------------------------------------------------------------------------------


  
 reached required accuracy - stopping structural energy minimisation
     LOOP+:  cpu time  612.5280: real time  619.2209
    4ORBIT:  cpu time    0.0000: real time    0.0000



 total charge     

# of ion       s       p       d       tot
------------------------------------------
    1        0.364   0.435   6.476   7.276
    2        0.364   0.435   6.476   7.276
    3        1.064   1.410   0.000   2.473
    4        1.064   1.410   0.000   2.473
    5        1.402   1.910   0.056   3.369
    6        1.393   1.906   0.059   3.358
    7        1.401   1.907   0.057   3.365
    8        1.402   1.910   0.056   3.369
    9        1.393   1.906   0.059   3.358
   10        1.401   1.907   0.057   3.365
--------------------------------------------------
tot         11.248  15.137  13.296  39.680



 magnetization (x)

# of ion       s       p       d       tot
------------------------------------------
    1        0.000   0.000   0.000   0.000
    2        0.000   0.000   0.000   0.000
    3       -0.000   0.000   0.000   0.000
    4       -0.000   0.000   0.000   0.000
    5        0.000  -0.000  -0.000  -0.000
    6        0.000  -0.000  -0.000  -0.000
    7        0.000  -0.000  -0.000  -0.000
    8        0.000  -0.000  -0.000  -0.000
    9        0.000  -0.000  -0.000  -0.000
   10        0.000  -0.000  -0.000  -0.000
--------------------------------------------------
tot          0.000  -0.000   0.000   0.000

 BZINTS: Fermi energy: -1.378004; 62.000000 electrons
         Band energy:-382.262049;  BLOECHL correction:  0.000000

 total amount of memory used by VASP MPI-rank0   130430. kBytes
=======================================================================

   base      :      30000. kBytes
   nonlr-proj:      10120. kBytes
   fftplans  :      11247. kBytes
   grid      :      66142. kBytes
   one-center:        311. kBytes
   wavefun   :      12610. kBytes

  
  
 General timing and accounting informations for this job:
 ========================================================
  
                  Total CPU time used (sec):    20762.340
                            User time (sec):    20088.060
                          System time (sec):      674.280
                         Elapsed time (sec):    21031.740
  
                   Maximum memory used (kb):      390576.
                   Average memory used (kb):           0.
  
                          Minor page faults:     17489396
                          Major page faults:            7
                 Voluntary context switches:         1157
