       N       E                     dE             d eps       ncg     rms          rms(c)
DAV:   1     0.400131993794E+03    0.40013E+03   -0.17282E+04   960   0.850E+02
DAV:   2     0.348715186239E+01   -0.39664E+03   -0.38155E+03  1560   0.159E+02
DAV:   3    -0.475523762832E+02   -0.51040E+02   -0.49946E+02  1344   0.688E+01
DAV:   4    -0.493485381855E+02   -0.17962E+01   -0.17938E+01  1296   0.174E+01
DAV:   5    -0.494045673048E+02   -0.56029E-01   -0.56013E-01  1392   0.264E+00    0.244E+01
DAV:   6    -0.936174213417E+02   -0.44213E+02   -0.37910E+02  1392   0.715E+01    0.579E+01
DAV:   7    -0.417019541758E+02    0.51915E+02   -0.78338E+01  1128   0.839E+01    0.155E+01
DAV:   8    -0.434030020365E+02   -0.17010E+01   -0.64827E+00  1440   0.109E+01    0.823E+00
DAV:   9    -0.446273754482E+02   -0.12244E+01   -0.21472E+00  1560   0.825E+00    0.406E+00
DAV:  10    -0.452100531336E+02   -0.58268E+00   -0.67655E-01  1368   0.531E+00    0.293E+00
DAV:  11    -0.453705185614E+02   -0.16047E+00   -0.14436E-01  1368   0.217E+00    0.274E+00
DAV:  12    -0.179655653960E+03   -0.13429E+03   -0.13263E+03  1368   0.489E+00    0.315E+01
DAV:  13    -0.235567788057E+03   -0.55912E+02   -0.50674E+03  1440   0.615E+01    0.248E+01
DAV:  14    -0.444425102472E+02    0.19113E+03   -0.18931E+03  1008   0.509E+01    0.385E+00
DAV:  15    -0.263883235727E+03   -0.21944E+03   -0.21632E+03  1416   0.303E+00    0.252E+01
DAV:  16    -0.598990851467E+03   -0.33511E+03   -0.71612E+03  1224   0.516E+01    0.299E+01
DAV:  17    -0.443814289135E+02    0.55461E+03   -0.29830E+03  1104   0.821E+01    0.396E+00
DAV:  18    -0.455857566954E+02   -0.12043E+01   -0.22883E-01  1080   0.141E+00    0.838E-01
DAV:  19    -0.457510074658E+02   -0.16525E+00   -0.20179E-02  1128   0.623E-01    0.202E-01
DAV:  20    -0.457715154388E+02   -0.20508E-01   -0.29197E-03  1248   0.285E-01    0.941E-02
DAV:  21    -0.457757133555E+02   -0.41979E-02   -0.61036E-04   960   0.140E-01    0.398E-02
DAV:  22    -0.457762318426E+02   -0.51849E-03   -0.16481E-04  1056   0.646E-02    0.345E-02
DAV:  23    -0.457764743767E+02   -0.24253E-03   -0.10032E-04   912   0.480E-02    0.323E-02
DAV:  24    -0.457767345577E+02   -0.26018E-03   -0.15149E-04   984   0.445E-02    0.322E-02
DAV:  25    -0.457769187241E+02   -0.18417E-03   -0.12742E-04   912   0.428E-02    0.317E-02
DAV:  26    -0.457770180673E+02   -0.99343E-04   -0.57465E-05   888   0.288E-02
   1 F= -.45777018E+02 E0= -.45777018E+02  d E =-.457770E+02  mag=     5.9889
       N       E                     dE             d eps       ncg     rms          rms(c)
DAV:   1    -0.609722942552E+02   -0.15195E+02   -0.38062E+02  1272   0.106E+02    0.210E+01
DAV:   2    -0.535357258682E+02    0.74366E+01   -0.49076E+01  1416   0.410E+01    0.147E+01
DAV:   3    -0.537595841735E+02   -0.22386E+00   -0.64949E+01  1464   0.708E+01    0.185E+01
DAV:   4    -0.479228580199E+02    0.58367E+01   -0.31202E+01  1440   0.252E+01    0.611E+00
DAV:   5    -0.483069769588E+02   -0.38412E+00   -0.77127E-01  1344   0.365E+00    0.355E+00
DAV:   6    -0.484424231892E+02   -0.13545E+00   -0.70275E-01  1416   0.468E+00    0.787E-01
DAV:   7    -0.484415636587E+02    0.85953E-03   -0.87912E-02  1104   0.164E+00    0.367E-01
DAV:   8    -0.484421702947E+02   -0.60664E-03   -0.21495E-02  1008   0.755E-01    0.298E-01
DAV:   9    -0.484412625463E+02    0.90775E-03   -0.52257E-03  1080   0.324E-01    0.146E-01
DAV:  10    -0.484420596949E+02   -0.79715E-03   -0.34320E-03  1032   0.219E-01    0.117E-01
DAV:  11    -0.484418180463E+02    0.24165E-03   -0.20930E-03  1056   0.176E-01    0.749E-02
DAV:  12    -0.484404107976E+02    0.14072E-02   -0.47588E-03  1008   0.187E-01    0.601E-02
DAV:  13    -0.484378057153E+02    0.26051E-02   -0.21103E-03  1056   0.140E-01    0.685E-02
DAV:  14    -0.484362279345E+02    0.15778E-02   -0.26243E-04   984   0.726E-02    0.416E-02
DAV:  15    -0.484342506243E+02    0.19773E-02   -0.15082E-04   936   0.571E-02    0.366E-02
DAV:  16    -0.484323795692E+02    0.18711E-02   -0.87019E-05   888   0.392E-02    0.343E-02
DAV:  17    -0.484302353900E+02    0.21442E-02   -0.49346E-04   936   0.740E-02    0.252E-02
DAV:  18    -0.484299818791E+02    0.25351E-03   -0.41314E-04   960   0.639E-02    0.144E-02
DAV:  19    -0.484303692777E+02   -0.38740E-03   -0.26005E-04   960   0.635E-02    0.878E-03
DAV:  20    -0.484308414054E+02   -0.47213E-03   -0.62430E-05   840   0.373E-02    0.565E-03
DAV:  21    -0.484312279366E+02   -0.38653E-03   -0.42676E-05   888   0.204E-02    0.305E-03
DAV:  22    -0.484313681979E+02   -0.14026E-03   -0.20599E-05   888   0.143E-02    0.162E-03
DAV:  23    -0.484314439365E+02   -0.75739E-04   -0.84478E-06   744   0.824E-03
   2 F= -.48431444E+02 E0= -.48431444E+02  d E =-.265443E+01  mag=     5.8254
       N       E                     dE             d eps       ncg     rms          rms(c)
DAV:   1    -0.486444216621E+02   -0.21305E+00   -0.47142E+00  1248   0.119E+01    0.221E+00
DAV:   2    -0.485615048365E+02    0.82917E-01   -0.50894E-01  1272   0.556E+00    0.165E+00
DAV:   3    -0.485260790595E+02    0.35426E-01   -0.40958E-01  1320   0.480E+00    0.127E+00
DAV:   4    -0.484959942755E+02    0.30085E-01   -0.16703E-01  1344   0.318E+00    0.291E-01
DAV:   5    -0.484937813869E+02    0.22129E-02   -0.94813E-03  1272   0.709E-01    0.696E-02
DAV:   6    -0.484934799810E+02    0.30141E-03   -0.55932E-04  1008   0.966E-02    0.496E-02
DAV:   7    -0.484933643156E+02    0.11567E-03   -0.15991E-04   816   0.563E-02    0.185E-02
DAV:   8    -0.484933208789E+02    0.43437E-04   -0.79386E-05   816   0.595E-02
   3 F= -.48493321E+02 E0= -.48493321E+02  d E =-.271630E+01  mag=     5.8429
       N       E                     dE             d eps       ncg     rms          rms(c)
DAV:   1    -0.484997999020E+02   -0.64356E-02   -0.46264E-01   960   0.207E+00    0.144E-01
DAV:   2    -0.485020429995E+02   -0.22431E-02   -0.24487E-02  1008   0.640E-01    0.107E-01
DAV:   3    -0.485017649038E+02    0.27810E-03   -0.20319E-03  1296   0.331E-01    0.877E-02
DAV:   4    -0.485017684226E+02   -0.35188E-05   -0.38219E-04   792   0.161E-01
   4 F= -.48501768E+02 E0= -.48501768E+02  d E =-.844754E-02  mag=     5.8440
       N       E                     dE             d eps       ncg     rms          rms(c)
DAV:   1    -0.485013122156E+02    0.45269E-03   -0.14285E-01   960   0.115E+00    0.820E-02
DAV:   2    -0.485019772876E+02   -0.66507E-03   -0.73139E-03   960   0.333E-01    0.505E-02
DAV:   3    -0.485019273987E+02    0.49889E-04   -0.49097E-04  1176   0.157E-01
   5 F= -.48501927E+02 E0= -.48501927E+02  d E =-.860652E-02  mag=     5.8440
