 vasp.5.4.4.18Apr17-6-g9f103f2a35 (build May  1 2020 15:48:39) complex           
 executed on             LinuxGNU date 2020.06.16  08:05:08
 running on   24 total cores
 distrk:  each k-point on   24 cores,    1 groups
 distr:  one band on NCORES_PER_BAND=   1 cores,   24 groups


--------------------------------------------------------------------------------------------------------


 INCAR:
 POTCAR:   PAW_PBE Cr 06Sep2000                   
 POTCAR:    PAW_PBE P 17Jan2003                   
 POTCAR:   PAW_PBE Se 06Sep2000                   

 ----------------------------------------------------------------------------- 
|                                                                             |
|           W    W    AA    RRRRR   N    N  II  N    N   GGGG   !!!           |
|           W    W   A  A   R    R  NN   N  II  NN   N  G    G  !!!           |
|           W    W  A    A  R    R  N N  N  II  N N  N  G       !!!           |
|           W WW W  AAAAAA  RRRRR   N  N N  II  N  N N  G  GGG   !            |
|           WW  WW  A    A  R   R   N   NN  II  N   NN  G    G                |
|           W    W  A    A  R    R  N    N  II  N    N   GGGG   !!!           |
|                                                                             |
|      For optimal performance we recommend to set                            |
|        NCORE= 4 - approx SQRT( number of cores)                             |
|      NCORE specifies how many cores store one orbital (NPAR=cpu/NCORE).     |
|      This setting can  greatly improve the performance of VASP for DFT.     |
|      The default,   NCORE=1            might be grossly inefficient         |
|      on modern multi-core architectures or massively parallel machines.     |
|      Do your own testing !!!!                                               |
|      Unfortunately you need to use the default for GW and RPA calculations. |
|      (for HF NCORE is supported but not extensively tested yet)             |
|                                                                             |
 ----------------------------------------------------------------------------- 


 ----------------------------------------------------------------------------- 
|                                                                             |
|  ADVICE TO THIS USER RUNNING 'VASP/VAMP'   (HEAR YOUR MASTER'S VOICE ...):  |
|                                                                             |
|      You have switched on vdW-DFT.                                          |
|      This routine was written and supplied by Jiri Klimes.                  |
|      We recommed that you carefully read and cite the following             |
|      publication                                                            |
|      J. Klimes, D.R. Bowler, A. Michelides                                  |
|        J. Phys.: Cond Matt. 22 022201 (2010)                                |
|      J. Klimes, D.R. Bowler, A. Michelides                                  |
|        Phys. Rev. B. 83, 195131 (2011)                                      |
|      and references therein.                                                |
|                                                                             |
 ----------------------------------------------------------------------------- 

 POTCAR:   PAW_PBE Cr 06Sep2000                   
   VRHFIN =Cr : d5 s1                                                           
   LEXCH  = PE                                                                  
   EATOM  =   276.9744 eV,   20.3570 Ry                                         
                                                                                
   TITEL  = PAW_PBE Cr 06Sep2000                                                
   LULTRA =        F    use ultrasoft PP ?                                      
   IUNSCR =        1    unscreen: 0-lin 1-nonlin 2-no                           
   RPACOR =    2.080    partial core radius                                     
   POMASS =   51.996; ZVAL   =    6.000    mass and valenz                      
   RCORE  =    2.500    outmost cutoff radius                                   
   RWIGS  =    2.500; RWIGS  =    1.323    wigner-seitz radius (au A)           
   ENMAX  =  227.082; ENMIN  =  170.311 eV                                      
   RCLOC  =    1.721    cutoff for local pot                                    
   LCOR   =        T    correct aug charges                                     
   LPAW   =        T    paw PP                                                  
   EAUG   =  402.108                                                            
   DEXC   =    -.035                                                            
   RMAX   =    3.060    core radius for proj-oper                               
   RAUG   =    1.300    factor for augmentation sphere                          
   RDEP   =    2.609    radius for radial grids                                 
   QCUT   =   -4.085; QGAM   =    8.171    optimization parameters              
                                                                                
   Description                                                                  
     l     E      TYP  RCUT    TYP  RCUT                                        
     2   .000     23  2.500                                                     
     2   .000     23  2.500                                                     
     0   .000     23  2.500                                                     
     0   .000     23  2.500                                                     
     1  -.400     23  2.500                                                     
     1  2.000     23  2.500                                                     
     3   .000      7   .000                                                     
  local pseudopotential read in
  partial core-charges read in
  atomic valenz-charges read in
  non local Contribution for L=           2  read in
    real space projection operators read in
  non local Contribution for L=           2  read in
    real space projection operators read in
  non local Contribution for L=           0  read in
    real space projection operators read in
  non local Contribution for L=           0  read in
    real space projection operators read in
  non local Contribution for L=           1  read in
    real space projection operators read in
  non local Contribution for L=           1  read in
    real space projection operators read in
    PAW grid and wavefunctions read in

   number of l-projection  operators is LMAX  =           6
   number of lm-projection operators is LMMAX =          18

 POTCAR:    PAW_PBE P 17Jan2003                   
   VRHFIN =P : s2p3                                                             
   LEXCH  = PE                                                                  
   EATOM  =   176.0430 eV,   12.9388 Ry                                         
                                                                                
   TITEL  = PAW_PBE P 17Jan2003                                                 
   LULTRA =        F    use ultrasoft PP ?                                      
   IUNSCR =        1    unscreen: 0-lin 1-nonlin 2-no                           
   RPACOR =    1.500    partial core radius                                     
   POMASS =   30.974; ZVAL   =    5.000    mass and valenz                      
   RCORE  =    1.900    outmost cutoff radius                                   
   RWIGS  =    2.330; RWIGS  =    1.233    wigner-seitz radius (au A)           
   ENMAX  =  270.000; ENMIN  =  191.280 eV                                      
   ICORE  =        2    local potential                                         
   LCOR   =        T    correct aug charges                                     
   LPAW   =        T    paw PP                                                  
   EAUG   =  342.924                                                            
   DEXC   =    -.002                                                            
   RMAX   =    2.887    core radius for proj-oper                               
   RAUG   =    1.300    factor for augmentation sphere                          
   RDEP   =    1.931    radius for radial grids                                 
   QCUT   =   -4.330; QGAM   =    8.659    optimization parameters              
                                                                                
   Description                                                                  
     l     E      TYP  RCUT    TYP  RCUT                                        
     0   .000     23  1.900                                                     
     0   .000     23  1.900                                                     
     1   .000     23  1.900                                                     
     1   .000     23  1.900                                                     
     2   .000     23  1.900                                                     
  local pseudopotential read in
  partial core-charges read in
  atomic valenz-charges read in
  non local Contribution for L=           0  read in
    real space projection operators read in
  non local Contribution for L=           0  read in
    real space projection operators read in
  non local Contribution for L=           1  read in
    real space projection operators read in
  non local Contribution for L=           1  read in
    real space projection operators read in
    PAW grid and wavefunctions read in

   number of l-projection  operators is LMAX  =           4
   number of lm-projection operators is LMMAX =           8

 POTCAR:   PAW_PBE Se 06Sep2000                   
   VRHFIN =Se: s2p4                                                             
   LEXCH  = PE                                                                  
   EATOM  =   256.9644 eV,   18.8864 Ry                                         
                                                                                
   TITEL  = PAW_PBE Se 06Sep2000                                                
   LULTRA =        F    use ultrasoft PP ?                                      
   IUNSCR =        1    unscreen: 0-lin 1-nonlin 2-no                           
   RPACOR =    1.900    partial core radius                                     
   POMASS =   78.960; ZVAL   =    6.000    mass and valenz                      
   RCORE  =    2.100    outmost cutoff radius                                   
   RWIGS  =    2.200; RWIGS  =    1.164    wigner-seitz radius (au A)           
   ENMAX  =  211.534; ENMIN  =  158.651 eV                                      
   ICORE  =        3    local potential                                         
   LCOR   =        T    correct aug charges                                     
   LPAW   =        T    paw PP                                                  
   EAUG   =  446.842                                                            
   DEXC   =    -.031                                                            
   RMAX   =    3.170    core radius for proj-oper                               
   RAUG   =    1.300    factor for augmentation sphere                          
   RDEP   =    2.177    radius for radial grids                                 
   QCUT   =   -3.943; QGAM   =    7.886    optimization parameters              
                                                                                
   Description                                                                  
     l     E      TYP  RCUT    TYP  RCUT                                        
     0   .000     23  2.100                                                     
     0   .000     23  2.100                                                     
     1   .000     23  2.100                                                     
     1   .000     23  2.100                                                     
     2   .000     23  2.100                                                     
     3  -.100      7  2.100                                                     
  local pseudopotential read in
  partial core-charges read in
  atomic valenz-charges read in
  non local Contribution for L=           0  read in
    real space projection operators read in
  non local Contribution for L=           0  read in
    real space projection operators read in
  non local Contribution for L=           1  read in
    real space projection operators read in
  non local Contribution for L=           1  read in
    real space projection operators read in
  non local Contribution for L=           2  read in
    real space projection operators read in
    PAW grid and wavefunctions read in

   number of l-projection  operators is LMAX  =           5
   number of lm-projection operators is LMMAX =          13

 Optimization of the real space projectors (new method)

 maximal supplied QI-value         = 15.12
 optimisation between [QCUT,QGAM] = [ 11.64, 23.28] = [ 37.95,151.78] Ry 
 Optimized for a Real-space Cutoff    1.49 Angstroem

   l    n(q)    QCUT    max X(q) W(low)/X(q) W(high)/X(q)  e(spline) 
   2      9    11.641     4.777    0.25E-04    0.21E-05    0.63E-07
   2      9    11.641    31.132    0.13E-03    0.22E-03    0.64E-06
   0     10    11.641    20.416    0.11E-04    0.74E-05    0.19E-07
   0     10    11.641    45.408    0.10E-03    0.85E-04    0.30E-06
   1     10    11.641     7.848    0.22E-04    0.23E-04    0.56E-07
   1     10    11.641     9.895    0.85E-04    0.54E-04    0.16E-06
 Optimization of the real space projectors (new method)

 maximal supplied QI-value         = 19.84
 optimisation between [QCUT,QGAM] = [ 11.51, 23.22] = [ 37.09,150.92] Ry 
 Optimized for a Real-space Cutoff    1.21 Angstroem

   l    n(q)    QCUT    max X(q) W(low)/X(q) W(high)/X(q)  e(spline) 
   0      8    11.508     6.651    0.19E-04    0.31E-05    0.49E-08
   0      8    11.508    90.285    0.95E-04    0.17E-03    0.51E-07
   1      8    11.508     4.328    0.14E-04    0.32E-04    0.22E-07
   1      8    11.508    54.583    0.16E-03    0.71E-04    0.89E-07
 Optimization of the real space projectors (new method)

 maximal supplied QI-value         = 17.95
 optimisation between [QCUT,QGAM] = [ 11.67, 23.34] = [ 38.13,152.52] Ry 
 Optimized for a Real-space Cutoff    1.25 Angstroem

   l    n(q)    QCUT    max X(q) W(low)/X(q) W(high)/X(q)  e(spline) 
   0      9    11.669     6.499    0.13E-04    0.81E-05    0.11E-07
   0      9    11.669    52.623    0.18E-03    0.46E-04    0.72E-07
   1      8    11.669     4.229    0.40E-04    0.45E-04    0.31E-07
   1      8    11.669    29.991    0.22E-03    0.36E-03    0.10E-06
   2      8    11.669     3.719    0.19E-03    0.46E-04    0.50E-07

 ----------------------------------------------------------------------------- 
|                                                                             |
|  ADVICE TO THIS USER RUNNING 'VASP/VAMP'   (HEAR YOUR MASTER'S VOICE ...):  |
|                                                                             |
|      You enforced a specific xc-type in the INCAR file,                     |
|      a different type was found on the POTCAR file                          |
|          I HOPE YOU KNOW, WHAT YOU ARE  DOING                               |
|                                                                             |
 ----------------------------------------------------------------------------- 

 PAW_PBE Cr 06Sep2000                   :
 energy of atom  1       EATOM= -276.9744
 kinetic energy error for atom=    0.0010 (will be added to EATOM!!)
  PAW_PBE P 17Jan2003                   :
 energy of atom  2       EATOM= -176.0430
 kinetic energy error for atom=    0.0011 (will be added to EATOM!!)
 PAW_PBE Se 06Sep2000                   :
 energy of atom  3       EATOM= -256.9644
 kinetic energy error for atom=    0.0007 (will be added to EATOM!!)


 POSCAR: Cr2 P2 Se6                              
  positions in direct lattice
  velocities in cartesian coordinates
  No initial velocities read in
 exchange correlation table for  LEXCH =       42
   RHO(1)=    0.500       N(1)  =     2000
   RHO(2)=  100.500       N(2)  =     4000



--------------------------------------------------------------------------------------------------------


 ion  position               nearest neighbor table
   1  0.333  0.333  0.500-   6 2.78   5 2.78   7 2.78   8 2.78  10 2.78   9 2.78
   2  0.667  0.667  0.500-   9 2.78   8 2.78  10 2.78   5 2.78   7 2.78   6 2.78
   3  0.000  0.000  0.448-   4 2.43   8 2.63  10 2.63   9 2.63
   4  0.000  0.000  0.552-   3 2.43   5 2.63   7 2.63   6 2.63
   5  0.626  0.000  0.574-   4 2.63   1 2.78   2 2.78
   6  0.000  0.373  0.574-   4 2.63   1 2.78   2 2.78
   7  0.373  0.626  0.574-   4 2.63   1 2.78   2 2.78
   8  0.374  1.000  0.426-   3 2.63   2 2.78   1 2.78
   9  1.000  0.627  0.426-   3 2.63   2 2.78   1 2.78
  10  0.627  0.374  0.426-   3 2.63   2 2.78   1 2.78

  LATTYP: Found a hexagonal cell.
 ALAT       =     6.9077769333
 C/A-ratio  =     3.3939410937
  
  Lattice vectors:
  
 A1 = (   3.4538890000,  -5.9823100000,   0.0000000000)
 A2 = (  -6.9077770000,   0.0000000000,   0.0000000000)
 A3 = (   0.0000000000,   0.0000000000, -23.4445880000)


Analysis of symmetry for initial positions (statically):
=====================================================================
 Subroutine PRICEL returns:
 Original cell was already a primitive cell.
 

 Routine SETGRP: Setting up the symmetry group for a 
 hexagonal supercell.


 Subroutine GETGRP returns: Found  6 space group operations
 (whereof  6 operations were pure point group operations)
 out of a pool of 24 trial point group operations.


The static configuration has the point symmetry S_6 .


Analysis of symmetry for dynamics (positions and initial velocities):
=====================================================================
 Subroutine PRICEL returns:
 Original cell was already a primitive cell.
 

 Routine SETGRP: Setting up the symmetry group for a 
 hexagonal supercell.


 Subroutine GETGRP returns: Found  6 space group operations
 (whereof  6 operations were pure point group operations)
 out of a pool of 24 trial point group operations.


The dynamic configuration has the point symmetry S_6 .


Analysis of constrained symmetry for selective dynamics:
=====================================================================
 Subroutine PRICEL returns:
 Original cell was already a primitive cell.
 

 Routine SETGRP: Setting up the symmetry group for a 
 hexagonal supercell.


 Subroutine GETGRP returns: Found  6 space group operations
 (whereof  6 operations were pure point group operations)
 out of a pool of 24 trial point group operations.


The constrained configuration has the point symmetry S_6 .


Analysis of structural, dynamic, and magnetic symmetry:
=====================================================================
 Subroutine PRICEL returns:
 Original cell was already a primitive cell.
 

 Routine SETGRP: Setting up the symmetry group for a 
 hexagonal supercell.


 Subroutine GETGRP returns: Found  6 space group operations
 (whereof  6 operations were pure point group operations)
 out of a pool of 24 trial point group operations.


The magnetic configuration has the point symmetry S_6 .


 Subroutine INISYM returns: Found  6 space group operations
 (whereof  6 operations are pure point group operations),
 and found     1 'primitive' translations



 KPOINTS: Kpoints from vasprun.xml                

Automatic generation of k-mesh.
Space group operators:
 irot       det(A)        alpha          n_x          n_y          n_z        tau_x        tau_y        tau_z
    1     1.000000     0.000000     1.000000     0.000000     0.000000     0.000000     0.000000     0.000000
    2    -1.000000     0.000000     1.000000     0.000000     0.000000     0.000000     0.000000     0.000000
    3     1.000000   120.000000     0.000000     0.000000     1.000000     0.000000     0.000000     0.000000
    4    -1.000000   120.000000     0.000000     0.000000     1.000000     0.000000     0.000000     0.000000
    5     1.000000   120.000000     0.000000     0.000000    -1.000000     0.000000     0.000000     0.000000
    6    -1.000000   120.000000     0.000000     0.000000    -1.000000     0.000000     0.000000     0.000000
 
 Subroutine IBZKPT returns following result:
 ===========================================
 
 Found      5 irreducible k-points:
 
 Following reciprocal coordinates:
            Coordinates               Weight
  0.000000  0.000000  0.000000      1.000000
  0.200000  0.000000  0.000000      6.000000
  0.400000  0.000000  0.000000      6.000000
  0.400000  0.200000  0.000000      6.000000
 -0.400000  0.200000  0.000000      6.000000
 
 Following cartesian coordinates:
            Coordinates               Weight
  0.000000  0.000000  0.000000      1.000000
  0.028953 -0.016716  0.000000      6.000000
  0.057906 -0.033432  0.000000      6.000000
  0.057906  0.000000  0.000000      6.000000
 -0.057906  0.066864  0.000000      6.000000
 
 TETIRR: Found     15 inequivalent tetrahedra from      150


--------------------------------------------------------------------------------------------------------




 Dimension of arrays:
   k-points           NKPTS =      5   k-points in BZ     NKDIM =      5   number of bands    NBANDS=     48
   number of dos      NEDOS =    301   number of ions     NIONS =     10
   non local maximal  LDIM  =      6   non local SUM 2l+1 LMDIM =     18
   total plane-waves  NPLWV = 524880
   max r-space proj   IRMAX =   7543   max aug-charges    IRDMAX=  27873
   dimension x,y,z NGX =    54 NGY =   54 NGZ =  180
   dimension x,y,z NGXF=   108 NGYF=  108 NGZF=  360
   support grid    NGXF=   108 NGYF=  108 NGZF=  360
   ions per type =               2   2   6
   NGX,Y,Z   is equivalent  to a cutoff of  13.00, 13.00, 12.76 a.u.
   NGXF,Y,Z  is equivalent  to a cutoff of  25.99, 25.99, 25.53 a.u.

 SYSTEM =  unknown system                          
 POSCAR =  Cr2 P2 Se6                              

 Startparameter for this run:
   NWRITE =      2    write-flag & timer
   PREC   = accura    normal or accurate (medium, high low for compatibility)
   ISTART =      0    job   : 0-new  1-cont  2-samecut
   ICHARG =      2    charge: 1-file 2-atom 10-const
   ISPIN  =      2    spin polarized calculation?
   LNONCOLLINEAR =      F non collinear calculations
   LSORBIT =      F    spin-orbit coupling
   INIWAV =      1    electr: 0-lowe 1-rand  2-diag
   LASPH  =      F    aspherical Exc in radial PAW
   METAGGA=      F    non-selfconsistent MetaGGA calc.

 Electronic Relaxation 1
   ENCUT  =  520.0 eV  38.22 Ry    6.18 a.u.  12.84 12.84 43.59*2*pi/ulx,y,z
   ENINI  =  520.0     initial cutoff
   ENAUG  =  446.8 eV  augmentation charge cutoff
   NELM   =    400;   NELMIN=  2; NELMDL=  0     # of ELM steps 
   EDIFF  = 0.1E-03   stopping-criterion for ELM
   LREAL  =      T    real-space projection
   NLSPLINE    = F    spline interpolate recip. space projectors
   LCOMPAT=      F    compatible to vasp.4.4
   GGA_COMPAT  = T    GGA compatible to vasp.4.4-vasp.4.6
   LMAXPAW     = -100 max onsite density
   LMAXMIX     =    2 max onsite mixed and CHGCAR
   VOSKOWN=      0    Vosko Wilk Nusair interpolation
   ROPT   =   -0.00025  -0.00025  -0.00025
 Ionic relaxation
   EDIFFG = 0.1E-02   stopping-criterion for IOM
   NSW    =     99    number of steps for IOM
   NBLOCK =      1;   KBLOCK =     99    inner block; outer block 
   IBRION =      2    ionic relax: 0-MD 1-quasi-New 2-CG
   NFREE  =      1    steps in history (QN), initial steepest desc. (CG)
   ISIF   =      3    stress and relaxation
   IWAVPR =     11    prediction:  0-non 1-charg 2-wave 3-comb
   ISYM   =      2    0-nonsym 1-usesym 2-fastsym
   LCORR  =      T    Harris-Foulkes like correction to forces

   POTIM  = 0.5000    time-step for ionic-motion
   TEIN   =    0.0    initial temperature
   TEBEG  =    0.0;   TEEND  =   0.0 temperature during run
   SMASS  =  -3.00    Nose mass-parameter (am)
   estimated Nose-frequenzy (Omega)   =  0.10E-29 period in steps =****** mass=  -0.109E-26a.u.
   SCALEE = 1.0000    scale energy and forces
   NPACO  =    256;   APACO  = 16.0  distance and # of slots for P.C.
   PSTRESS=    0.0 pullay stress

  Mass of Ions in am
   POMASS =  52.00 30.97 78.96
  Ionic Valenz
   ZVAL   =   6.00  5.00  6.00
  Atomic Wigner-Seitz radii
   RWIGS  =  -1.00 -1.00 -1.00
  virtual crystal weights 
   VCA    =   1.00  1.00  1.00
   NELECT =      58.0000    total number of electrons
   NUPDOWN=      -1.0000    fix difference up-down

 DOS related values:
   EMIN   =  10.00;   EMAX   =-10.00  energy-range for DOS
   EFERMI =   0.00
   ISMEAR =    -5;   SIGMA  =   0.05  broadening in eV -4-tet -1-fermi 0-gaus

 Electronic relaxation 2 (details)
   IALGO  =     38    algorithm
   LDIAG  =      T    sub-space diagonalisation (order eigenvalues)
   LSUBROT=      F    optimize rotation matrix (better conditioning)
   TURBO    =      0    0=normal 1=particle mesh
   IRESTART =      0    0=no restart 2=restart with 2 vectors
   NREBOOT  =      0    no. of reboots
   NMIN     =      0    reboot dimension
   EREF     =   0.00    reference energy to select bands
   IMIX   =      4    mixing-type and parameters
     AMIX     =   0.40;   BMIX     =  1.00
     AMIX_MAG =   1.60;   BMIX_MAG =  1.00
     AMIN     =   0.01
     WC   =   100.;   INIMIX=   1;  MIXPRE=   1;  MAXMIX= -45

 Intra band minimization:
   WEIMIN = 0.0010     energy-eigenvalue tresh-hold
   EBREAK =  0.52E-06  absolut break condition
   DEPER  =   0.30     relativ break condition  

   TIME   =   0.40     timestep for ELM

  volume/ion in A,a.u.               =      96.88       653.80
  Fermi-wavevector in a.u.,A,eV,Ry     =   0.640424  1.210226  5.580332  0.410143
  Thomas-Fermi vector in A             =   1.706427

 Write flags
   LWAVE        =      F    write WAVECAR
   LDOWNSAMPLE  =      F    k-point downsampling of WAVECAR
   LCHARG       =      T    write CHGCAR
   LVTOT        =      F    write LOCPOT, total local potential
   LVHAR        =      F    write LOCPOT, Hartree potential only
   LELF         =      F    write electronic localiz. function (ELF)
   LORBIT       =     11    0 simple, 1 ext, 2 COOP (PROOUT), +10 PAW based schemes


 Dipole corrections
   LMONO  =      F    monopole corrections only (constant potential shift)
   LDIPOL =      F    correct potential (dipole corrections)
   IDIPOL =      0    1-x, 2-y, 3-z, 4-all directions 
   EPSILON=  1.0000000 bulk dielectric constant

 Exchange correlation treatment:
   GGA     =    BO    GGA type
   LEXCH   =    42    internal setting for exchange type
   VOSKOWN=      0    Vosko Wilk Nusair interpolation
   LHFCALC =     F    Hartree Fock is set to
   LHFONE  =     F    Hartree Fock one center treatment
   AEXX    =    0.0000 exact exchange contribution

 vdW DFT:
   LUSE_VDW   =     T    switch on vdW DFT
   Zab_VDW    =-.8491    correlation parameter
   PARAM1     =0.1833
   PARAM2     =0.2200
   PARAM3     =0.0000
   -- rVV10 --
   BPARAM     = 6.3000
   CPARAM     = 0.0093

 Linear response parameters
   LEPSILON=     F    determine dielectric tensor
   LRPA    =     F    only Hartree local field effects (RPA)
   LNABLA  =     F    use nabla operator in PAW spheres
   LVEL    =     F    velocity operator in full k-point grid
   LINTERFAST=   F  fast interpolation
   KINTER  =     0    interpolate to denser k-point grid
   CSHIFT  =0.1000    complex shift for real part using Kramers Kronig
   OMEGAMAX=  -1.0    maximum frequency
   DEG_THRESHOLD= 0.2000000E-02 threshold for treating states as degnerate
   RTIME   =   -0.100 relaxation time in fs
  (WPLASMAI=    0.000 imaginary part of plasma frequency in eV, 0.658/RTIME)
   DFIELD  = 0.0000000 0.0000000 0.0000000 field for delta impulse in time

 Orbital magnetization related:
   ORBITALMAG=     F  switch on orbital magnetization
   LCHIMAG   =     F  perturbation theory with respect to B field
   DQ        =  0.001000  dq finite difference perturbation B field
   LLRAUG    =     F  two centre corrections for induced B field



--------------------------------------------------------------------------------------------------------


 conjugate gradient relaxation of ions
   using selective dynamics as specified on POSCAR
 charge density and potential will be updated during run
 spin polarized calculation
 Variant of blocked Davidson
 Davidson routine will perform the subspace rotation
 perform sub-space diagonalisation
    after iterative eigenvector-optimisation
 modified Broyden-mixing scheme, WC =      100.0
 initial mixing is a Kerker type mixing with AMIX =  0.4000 and BMIX =      1.0000
 Hartree-type preconditioning will be used
 using additional bands           19
 real space projection scheme for non local part
 use partial core corrections
 calculate Harris-corrections to forces   (improved forces if not selfconsistent)
 use gradient corrections 
 use of overlap-Matrix (Vanderbilt PP)
 Fermi weights with tetrahedron method with Bloechl corrections


--------------------------------------------------------------------------------------------------------


  energy-cutoff  :      520.00
  volume of cell :      968.84
      direct lattice vectors                 reciprocal lattice vectors
     6.907777000 -0.000000000  0.000000000     0.144764372 -0.083579742  0.000000000
     3.453888000  5.982310000  0.000000000     0.000000000  0.167159509 -0.000000000
     0.000000000  0.000000000 23.444588000    -0.000000000  0.000000000  0.042653767

  length of vectors
     6.907777000  6.907776433 23.444588000     0.167159495  0.167159509  0.042653767



 k-points in units of 2pi/SCALE and weight: Kpoints from vasprun.xml                
   0.00000000  0.00000000  0.00000000       0.040
   0.02895287 -0.01671595  0.00000000       0.240
   0.05790575 -0.03343190  0.00000000       0.240
   0.05790575  0.00000000  0.00000000       0.240
  -0.05790575  0.06686380  0.00000000       0.240

 k-points in reciprocal lattice and weights: Kpoints from vasprun.xml                
   0.00000000  0.00000000  0.00000000       0.040
   0.20000000  0.00000000  0.00000000       0.240
   0.40000000  0.00000000  0.00000000       0.240
   0.40000000  0.20000000  0.00000000       0.240
  -0.40000000  0.20000000  0.00000000       0.240

 position of ions in fractional coordinates (direct lattice) 
   0.33333300  0.33333300  0.49992500
   0.66666700  0.66666700  0.50007500
   0.00000000  0.00000000  0.44821600
   0.00000000  0.00000000  0.55178400
   0.62635700  0.00042000  0.57375200
   0.00042000  0.37322400  0.57375200
   0.37322400  0.62635700  0.57375200
   0.37364300  0.99958000  0.42624800
   0.99958000  0.62677600  0.42624800
   0.62677600  0.37364300  0.42624800

 position of ions in cartesian coordinates  (Angst):
   3.45388488  1.99410134 11.72053566
   6.90778012  3.98820866 11.72405234
   0.00000000  0.00000000 10.50823946
   0.00000000  0.00000000 12.93634854
   4.32818511  0.00251257 13.45137925
   1.29197516  2.23274167 13.45137925
   4.74151509  3.74706174 13.45137925
   6.03347989  5.97979743  9.99320875
   9.06968984  3.74956833  9.99320875
   5.62014991  2.23524826  9.99320875



--------------------------------------------------------------------------------------------------------


 k-point  1 :   0.0000 0.0000 0.0000  plane waves:   26073
 k-point  2 :   0.2000 0.0000 0.0000  plane waves:   26070
 k-point  3 :   0.4000 0.0000 0.0000  plane waves:   26086
 k-point  4 :   0.4000 0.2000 0.0000  plane waves:   26085
 k-point  5 :  -0.4000 0.2000 0.0000  plane waves:   26115

 maximum and minimum number of plane-waves per node :     26115    26070

 maximum number of plane-waves:     26115
 maximum index in each direction: 
   IXMAX=   13   IYMAX=   12   IZMAX=   43
   IXMIN=  -13   IYMIN=  -13   IZMIN=  -43


 serial   3D FFT for wavefunctions
 parallel 3D FFT for charge:
    minimum data exchange during FFTs selected (reduces bandwidth)


 total amount of memory used by VASP MPI-rank0   113598. kBytes
=======================================================================

   base      :      30000. kBytes
   nonlr-proj:       7052. kBytes
   fftplans  :       8558. kBytes
   grid      :      59268. kBytes
   one-center:        311. kBytes
   wavefun   :       8409. kBytes

     INWAV:  cpu time    0.0000: real time    0.0001
 Broyden mixing: mesh for mixing (old mesh)
   NGX = 25   NGY = 25   NGZ = 87
  (NGX  =108   NGY  =108   NGZ  =360)
  gives a total of  54375 points

 initial charge density was supplied:
 charge density of overlapping atoms calculated
 number of electron      58.0000000 magnetization      14.8000000
 keeping initial charge density in first step


--------------------------------------------------------------------------------------------------------


 Maximum index for non-local projection operator         7247
 Maximum index for augmentation-charges         1427 (set IRDMAX)


--------------------------------------------------------------------------------------------------------


 First call to EWALD:  gamma=   0.179
 Maximum number of real-space cells 4x 4x 1
 Maximum number of reciprocal cells 2x 2x 6

    FEWALD:  cpu time    0.0040: real time    0.0040


--------------------------------------- Iteration      1(   1)  ---------------------------------------


vdW kernel read from vdw_kernel.bindat
  0.0000  0.2424  0.5071  0.7962  1.1119  1.4567  1.8333  2.2446  2.6937  3.1842
  3.7199  4.3049  4.9438  5.6415  6.4036  7.2358  8.1446  9.1372 10.2212 11.4050
 12.6979 14.1099 15.6519 17.3360 19.1751 21.1837 23.3773 25.7729 28.3892 31.2465
 34.3669 37.7748 41.4965 45.5611 50.0000

    POTLOK:  cpu time   39.3240: real time   59.9643
    SETDIJ:  cpu time    0.0800: real time    0.0782
     EDDAV:  cpu time   21.3200: real time   31.3757
 BZINTS: Fermi energy:  5.266782; 58.000000 electrons
         Band energy: -35.355785;  BLOECHL correction: -0.052769
       DOS:  cpu time    0.0040: real time    0.0048
    --------------------------------------------
      LOOP:  cpu time   60.7280: real time   91.4230

 eigenvalue-minimisations  :   960
 total energy-change (2. order) : 0.4001320E+03  (-0.1728164E+04)
 number of electron      58.0000000 magnetization      14.8000000
 augmentation part       58.0000000 magnetization      14.8000000

 Free energy of the ion-electron system (eV)
  ---------------------------------------------------
  alpha Z        PSCENC =        31.50926878
  Ewald energy   TEWEN  =      6462.22987265
  -Hartree energ DENC   =     -8622.78498877
  -exchange      EXHF   =         0.00000000
  -V(xc)+E(xc)   XCENC  =       -40.88542240
  PAW double counting   =      1179.33972540    -1033.58944254
  entropy T*S    EENTRO =         0.00000000
  eigenvalues    EBANDS =       -35.35578506
  atomic energy  EATOM  =      2459.66876574
  Solvation  Ediel_sol  =         0.00000000
  ---------------------------------------------------
  free energy    TOTEN  =       400.13199379 eV

  energy without entropy =      400.13199379  energy(sigma->0) =      400.13199379


--------------------------------------------------------------------------------------------------------




--------------------------------------- Iteration      1(   2)  ---------------------------------------


     EDDAV:  cpu time   28.9000: real time   44.4361
 BZINTS: Fermi energy: -1.824831; 58.000000 electrons
         Band energy:-432.000627;  BLOECHL correction: -0.053132
       DOS:  cpu time    0.0080: real time    0.0135
    --------------------------------------------
      LOOP:  cpu time   28.9080: real time   44.4495

 eigenvalue-minimisations  :  1560
 total energy-change (2. order) :-0.3966448E+03  (-0.3815469E+03)
 number of electron      58.0000000 magnetization      14.8000000
 augmentation part       58.0000000 magnetization      14.8000000

 Free energy of the ion-electron system (eV)
  ---------------------------------------------------
  alpha Z        PSCENC =        31.50926878
  Ewald energy   TEWEN  =      6462.22987265
  -Hartree energ DENC   =     -8622.78498877
  -exchange      EXHF   =         0.00000000
  -V(xc)+E(xc)   XCENC  =       -40.88542240
  PAW double counting   =      1179.33972540    -1033.58944254
  entropy T*S    EENTRO =         0.00000000
  eigenvalues    EBANDS =      -432.00062699
  atomic energy  EATOM  =      2459.66876574
  Solvation  Ediel_sol  =         0.00000000
  ---------------------------------------------------
  free energy    TOTEN  =         3.48715186 eV

  energy without entropy =        3.48715186  energy(sigma->0) =        3.48715186


--------------------------------------------------------------------------------------------------------




--------------------------------------- Iteration      1(   3)  ---------------------------------------


     EDDAV:  cpu time   26.0480: real time   39.5411
 BZINTS: Fermi energy: -2.800781; 58.000000 electrons
         Band energy:-483.040155;  BLOECHL correction: -0.000651
       DOS:  cpu time    0.0160: real time    0.0143
    --------------------------------------------
      LOOP:  cpu time   26.0640: real time   39.5554

 eigenvalue-minimisations  :  1344
 total energy-change (2. order) :-0.5103953E+02  (-0.4994601E+02)
 number of electron      58.0000000 magnetization      14.8000000
 augmentation part       58.0000000 magnetization      14.8000000

 Free energy of the ion-electron system (eV)
  ---------------------------------------------------
  alpha Z        PSCENC =        31.50926878
  Ewald energy   TEWEN  =      6462.22987265
  -Hartree energ DENC   =     -8622.78498877
  -exchange      EXHF   =         0.00000000
  -V(xc)+E(xc)   XCENC  =       -40.88542240
  PAW double counting   =      1179.33972540    -1033.58944254
  entropy T*S    EENTRO =         0.00000000
  eigenvalues    EBANDS =      -483.04015514
  atomic energy  EATOM  =      2459.66876574
  Solvation  Ediel_sol  =         0.00000000
  ---------------------------------------------------
  free energy    TOTEN  =       -47.55237628 eV

  energy without entropy =      -47.55237628  energy(sigma->0) =      -47.55237628


--------------------------------------------------------------------------------------------------------




--------------------------------------- Iteration      1(   4)  ---------------------------------------


     EDDAV:  cpu time   25.1280: real time   37.8491
 BZINTS: Fermi energy: -2.808066; 58.000000 electrons
         Band energy:-484.836317;  BLOECHL correction:  0.000000
       DOS:  cpu time    0.0040: real time    0.0051
    --------------------------------------------
      LOOP:  cpu time   25.1320: real time   37.8543

 eigenvalue-minimisations  :  1296
 total energy-change (2. order) :-0.1796162E+01  (-0.1793833E+01)
 number of electron      58.0000000 magnetization      14.8000000
 augmentation part       58.0000000 magnetization      14.8000000

 Free energy of the ion-electron system (eV)
  ---------------------------------------------------
  alpha Z        PSCENC =        31.50926878
  Ewald energy   TEWEN  =      6462.22987265
  -Hartree energ DENC   =     -8622.78498877
  -exchange      EXHF   =         0.00000000
  -V(xc)+E(xc)   XCENC  =       -40.88542240
  PAW double counting   =      1179.33972540    -1033.58944254
  entropy T*S    EENTRO =         0.00000000
  eigenvalues    EBANDS =      -484.83631704
  atomic energy  EATOM  =      2459.66876574
  Solvation  Ediel_sol  =         0.00000000
  ---------------------------------------------------
  free energy    TOTEN  =       -49.34853819 eV

  energy without entropy =      -49.34853819  energy(sigma->0) =      -49.34853819


--------------------------------------------------------------------------------------------------------




--------------------------------------- Iteration      1(   5)  ---------------------------------------


     EDDAV:  cpu time   27.6040: real time   40.3957
 BZINTS: Fermi energy: -2.806586; 58.000000 electrons
         Band energy:-484.892346;  BLOECHL correction:  0.000000
       DOS:  cpu time    0.0040: real time    0.0041
    CHARGE:  cpu time    1.5160: real time    2.3471
    MIXING:  cpu time    0.0200: real time    0.0452
    --------------------------------------------
      LOOP:  cpu time   29.1440: real time   42.7922

 eigenvalue-minimisations  :  1392
 total energy-change (2. order) :-0.5602912E-01  (-0.5601320E-01)
 number of electron      57.9999993 magnetization      13.6420376
 augmentation part       -5.7030554 magnetization      12.1386367

 Broyden mixing:
  rms(total) = 0.24404E+01    rms(broyden)= 0.24403E+01
  rms(prec ) = 0.26309E+01
  weight for this iteration     100.00

 Free energy of the ion-electron system (eV)
  ---------------------------------------------------
  alpha Z        PSCENC =        31.50926878
  Ewald energy   TEWEN  =      6462.22987265
  -Hartree energ DENC   =     -8622.78498877
  -exchange      EXHF   =         0.00000000
  -V(xc)+E(xc)   XCENC  =       -40.88542240
  PAW double counting   =      1179.33972540    -1033.58944254
  entropy T*S    EENTRO =         0.00000000
  eigenvalues    EBANDS =      -484.89234616
  atomic energy  EATOM  =      2459.66876574
  Solvation  Ediel_sol  =         0.00000000
  ---------------------------------------------------
  free energy    TOTEN  =       -49.40456730 eV

  energy without entropy =      -49.40456730  energy(sigma->0) =      -49.40456730


--------------------------------------------------------------------------------------------------------




--------------------------------------- Iteration      1(   6)  ---------------------------------------


    POTLOK:  cpu time   37.9040: real time   59.2197
    SETDIJ:  cpu time    0.0640: real time    0.0649
     EDDAV:  cpu time   26.3600: real time   40.4247
 BZINTS: Fermi energy: -4.935557; 58.000000 electrons
         Band energy:-573.496392;  BLOECHL correction: -0.027303
       DOS:  cpu time    0.0080: real time    0.0236
    CHARGE:  cpu time    1.5400: real time    2.2765
    MIXING:  cpu time    0.0640: real time    0.0624
    --------------------------------------------
      LOOP:  cpu time   65.9400: real time  102.0718

 eigenvalue-minimisations  :  1392
 total energy-change (2. order) :-0.4421285E+02  (-0.3790955E+02)
 number of electron      57.9999991 magnetization      13.3446918
 augmentation part        7.0628410 magnetization      10.4395442

 Broyden mixing:
  rms(total) = 0.57920E+01    rms(broyden)= 0.57920E+01
  rms(prec ) = 0.65134E+01
  weight for this iteration     100.00

 eigenvalues of (default mixing * dielectric matrix)
  average eigenvalue GAMMA=   0.2895
  0.2895

 Free energy of the ion-electron system (eV)
  ---------------------------------------------------
  alpha Z        PSCENC =        31.50926878
  Ewald energy   TEWEN  =      6462.22987265
  -Hartree energ DENC   =     -8584.96269767
  -exchange      EXHF   =         0.00000000
  -V(xc)+E(xc)   XCENC  =       -42.63497645
  PAW double counting   =      1131.57689045     -977.50815332
  entropy T*S    EENTRO =         0.00000000
  eigenvalues    EBANDS =      -573.49639152
  atomic energy  EATOM  =      2459.66876574
  Solvation  Ediel_sol  =         0.00000000
  ---------------------------------------------------
  free energy    TOTEN  =       -93.61742134 eV

  energy without entropy =      -93.61742134  energy(sigma->0) =      -93.61742134


--------------------------------------------------------------------------------------------------------




--------------------------------------- Iteration      1(   7)  ---------------------------------------


    POTLOK:  cpu time   38.7480: real time   59.4289
    SETDIJ:  cpu time    0.0360: real time    0.0672
     EDDAV:  cpu time   23.0360: real time   34.1821
 BZINTS: Fermi energy: -3.314551; 58.000000 electrons
         Band energy:-479.862676;  BLOECHL correction: -0.016382
       DOS:  cpu time    0.0040: real time    0.0067
    CHARGE:  cpu time    1.5920: real time    2.3399
    MIXING:  cpu time    0.0280: real time    0.0492
    --------------------------------------------
      LOOP:  cpu time   63.4440: real time   96.0738

 eigenvalue-minimisations  :  1128
 total energy-change (2. order) : 0.5191547E+02  (-0.7833770E+01)
 number of electron      57.9999992 magnetization      12.8843280
 augmentation part       -3.7188364 magnetization      10.1263266

 Broyden mixing:
  rms(total) = 0.15456E+01    rms(broyden)= 0.15455E+01
  rms(prec ) = 0.15851E+01
  weight for this iteration     100.00

 eigenvalues of (default mixing * dielectric matrix)
  average eigenvalue GAMMA=   0.3944
  0.5707  0.2180

 Free energy of the ion-electron system (eV)
  ---------------------------------------------------
  alpha Z        PSCENC =        31.50926878
  Ewald energy   TEWEN  =      6462.22987265
  -Hartree energ DENC   =     -8617.90890790
  -exchange      EXHF   =         0.00000000
  -V(xc)+E(xc)   XCENC  =       -43.39263763
  PAW double counting   =      1195.47634756    -1049.42198730
  entropy T*S    EENTRO =         0.00000000
  eigenvalues    EBANDS =      -479.86267607
  atomic energy  EATOM  =      2459.66876574
  Solvation  Ediel_sol  =         0.00000000
  ---------------------------------------------------
  free energy    TOTEN  =       -41.70195418 eV

  energy without entropy =      -41.70195418  energy(sigma->0) =      -41.70195418


--------------------------------------------------------------------------------------------------------




--------------------------------------- Iteration      1(   8)  ---------------------------------------


    POTLOK:  cpu time   37.7280: real time   58.7228
    SETDIJ:  cpu time    0.0640: real time    0.0633
     EDDAV:  cpu time   27.9080: real time   41.7823
 BZINTS: Fermi energy: -3.371495; 58.000000 electrons
         Band energy:-484.970358;  BLOECHL correction: -0.016810
       DOS:  cpu time    0.0120: real time    0.0286
    CHARGE:  cpu time    1.2800: real time    2.3026
    MIXING:  cpu time    0.0600: real time    0.0626
    --------------------------------------------
      LOOP:  cpu time   67.0520: real time  102.9621

 eigenvalue-minimisations  :  1440
 total energy-change (2. order) :-0.1701048E+01  (-0.6482747E+00)
 number of electron      57.9999992 magnetization      11.8104788
 augmentation part       -3.1677654 magnetization       9.4053192

 Broyden mixing:
  rms(total) = 0.82322E+00    rms(broyden)= 0.82321E+00
  rms(prec ) = 0.84015E+00
  weight for this iteration     100.00

 eigenvalues of (default mixing * dielectric matrix)
  average eigenvalue GAMMA=   0.6119
  0.2309  0.8024  0.8024

 Free energy of the ion-electron system (eV)
  ---------------------------------------------------
  alpha Z        PSCENC =        31.50926878
  Ewald energy   TEWEN  =      6462.22987265
  -Hartree energ DENC   =     -8614.65747275
  -exchange      EXHF   =         0.00000000
  -V(xc)+E(xc)   XCENC  =       -43.48883316
  PAW double counting   =      1191.13537508    -1044.82962046
  entropy T*S    EENTRO =         0.00000000
  eigenvalues    EBANDS =      -484.97035791
  atomic energy  EATOM  =      2459.66876574
  Solvation  Ediel_sol  =         0.00000000
  ---------------------------------------------------
  free energy    TOTEN  =       -43.40300204 eV

  energy without entropy =      -43.40300204  energy(sigma->0) =      -43.40300204


--------------------------------------------------------------------------------------------------------




--------------------------------------- Iteration      1(   9)  ---------------------------------------


    POTLOK:  cpu time   38.7680: real time   58.9547
    SETDIJ:  cpu time    0.0240: real time    0.0600
     EDDAV:  cpu time   29.5320: real time   44.7485
 BZINTS: Fermi energy: -3.413509; 58.000000 electrons
         Band energy:-485.502059;  BLOECHL correction: -0.017341
       DOS:  cpu time    0.0040: real time    0.0069
    CHARGE:  cpu time    1.4520: real time    2.2817
    MIXING:  cpu time    0.0280: real time    0.0579
    --------------------------------------------
      LOOP:  cpu time   69.8080: real time  106.1098

 eigenvalue-minimisations  :  1560
 total energy-change (2. order) :-0.1224373E+01  (-0.2147160E+00)
 number of electron      57.9999992 magnetization      10.5346052
 augmentation part       -2.7718845 magnetization       8.7862101

 Broyden mixing:
  rms(total) = 0.40575E+00    rms(broyden)= 0.40575E+00
  rms(prec ) = 0.40939E+00
  weight for this iteration     100.00

 eigenvalues of (default mixing * dielectric matrix)
  average eigenvalue GAMMA=   0.8107
  0.2289  1.1782  1.1782  0.6574

 Free energy of the ion-electron system (eV)
  ---------------------------------------------------
  alpha Z        PSCENC =        31.50926878
  Ewald energy   TEWEN  =      6462.22987265
  -Hartree energ DENC   =     -8616.77180949
  -exchange      EXHF   =         0.00000000
  -V(xc)+E(xc)   XCENC  =       -42.03402768
  PAW double counting   =      1200.81629418    -1054.54368069
  entropy T*S    EENTRO =         0.00000000
  eigenvalues    EBANDS =      -485.50205894
  atomic energy  EATOM  =      2459.66876574
  Solvation  Ediel_sol  =         0.00000000
  ---------------------------------------------------
  free energy    TOTEN  =       -44.62737545 eV

  energy without entropy =      -44.62737545  energy(sigma->0) =      -44.62737545


--------------------------------------------------------------------------------------------------------




--------------------------------------- Iteration      1(  10)  ---------------------------------------


    POTLOK:  cpu time   38.5520: real time   58.4205
    SETDIJ:  cpu time    0.0240: real time    0.0681
     EDDAV:  cpu time   26.2400: real time   39.4108
 BZINTS: Fermi energy: -3.478243; 58.000000 electrons
         Band energy:-485.523390;  BLOECHL correction: -0.018153
       DOS:  cpu time    0.0040: real time    0.0050
    CHARGE:  cpu time    1.5200: real time    2.3014
    MIXING:  cpu time    0.0240: real time    0.0517
    --------------------------------------------
      LOOP:  cpu time   66.3640: real time  100.2575

 eigenvalue-minimisations  :  1368
 total energy-change (2. order) :-0.5826777E+00  (-0.6765462E-01)
 number of electron      57.9999992 magnetization       9.5319413
 augmentation part       -2.4497921 magnetization       8.1570600

 Broyden mixing:
  rms(total) = 0.29345E+00    rms(broyden)= 0.29345E+00
  rms(prec ) = 0.29795E+00
  weight for this iteration     100.00

 eigenvalues of (default mixing * dielectric matrix)
  average eigenvalue GAMMA=   1.0232
  2.4153  0.2290  0.9126  0.9126  0.6463

 Free energy of the ion-electron system (eV)
  ---------------------------------------------------
  alpha Z        PSCENC =        31.50926878
  Ewald energy   TEWEN  =      6462.22987265
  -Hartree energ DENC   =     -8618.14991488
  -exchange      EXHF   =         0.00000000
  -V(xc)+E(xc)   XCENC  =       -40.59738711
  PAW double counting   =      1202.15935357    -1056.50662146
  entropy T*S    EENTRO =         0.00000000
  eigenvalues    EBANDS =      -485.52339042
  atomic energy  EATOM  =      2459.66876574
  Solvation  Ediel_sol  =         0.00000000
  ---------------------------------------------------
  free energy    TOTEN  =       -45.21005313 eV

  energy without entropy =      -45.21005313  energy(sigma->0) =      -45.21005313


--------------------------------------------------------------------------------------------------------




--------------------------------------- Iteration      1(  11)  ---------------------------------------


    POTLOK:  cpu time   39.3800: real time   60.0033
    SETDIJ:  cpu time    0.0720: real time    0.0746
     EDDAV:  cpu time   26.4520: real time   39.6995
 BZINTS: Fermi energy: -3.493954; 58.000000 electrons
         Band energy:-485.499113;  BLOECHL correction: -0.018267
       DOS:  cpu time    0.0160: real time    0.0168
    CHARGE:  cpu time    1.4840: real time    2.2638
    MIXING:  cpu time    0.0320: real time    0.0539
    --------------------------------------------
      LOOP:  cpu time   67.4360: real time  102.1119

 eigenvalue-minimisations  :  1368
 total energy-change (2. order) :-0.1604654E+00  (-0.1443608E-01)
 number of electron      57.9999992 magnetization       8.1190653
 augmentation part       -2.4648278 magnetization       6.8572407

 Broyden mixing:
  rms(total) = 0.27366E+00    rms(broyden)= 0.27366E+00
  rms(prec ) = 0.27752E+00
  weight for this iteration     100.00

 eigenvalues of (default mixing * dielectric matrix)
  average eigenvalue GAMMA=   1.1768
  3.1392  0.2290  1.1595  1.1595  0.6868  0.6868

 Free energy of the ion-electron system (eV)
  ---------------------------------------------------
  alpha Z        PSCENC =        31.50926878
  Ewald energy   TEWEN  =      6462.22987265
  -Hartree energ DENC   =     -8618.66500610
  -exchange      EXHF   =         0.00000000
  -V(xc)+E(xc)   XCENC  =       -40.21985531
  PAW double counting   =      1202.85325797    -1057.24770903
  entropy T*S    EENTRO =         0.00000000
  eigenvalues    EBANDS =      -485.49911326
  atomic energy  EATOM  =      2459.66876574
  Solvation  Ediel_sol  =         0.00000000
  ---------------------------------------------------
  free energy    TOTEN  =       -45.37051856 eV

  energy without entropy =      -45.37051856  energy(sigma->0) =      -45.37051856


--------------------------------------------------------------------------------------------------------




--------------------------------------- Iteration      1(  12)  ---------------------------------------


    POTLOK:  cpu time   38.7400: real time   59.1840
    SETDIJ:  cpu time    0.0280: real time    0.0661
     EDDAV:  cpu time   26.9680: real time   40.2633
 BZINTS: Fermi energy: -3.652720; 58.000000 electrons
         Band energy:-618.934496;  BLOECHL correction: -0.085726
       DOS:  cpu time    0.0080: real time    0.0250
    CHARGE:  cpu time    1.7360: real time    2.2631
    MIXING:  cpu time    0.0280: real time    0.0569
    --------------------------------------------
      LOOP:  cpu time   67.5080: real time  101.8584

 eigenvalue-minimisations  :  1368
 total energy-change (2. order) :-0.1342851E+03  (-0.1326349E+03)
 number of electron      57.9999992 magnetization       8.1189313
 augmentation part       -2.4390801 magnetization       7.1388631

 Broyden mixing:
  rms(total) = 0.31485E+01    rms(broyden)= 0.30724E+01
  rms(prec ) = 0.31206E+01
  weight for this iteration     100.00

 eigenvalues of (default mixing * dielectric matrix)
  average eigenvalue GAMMA=   1.0088
  3.1396  1.1595  1.1595  0.2290  0.6868  0.6868  0.0003

 Free energy of the ion-electron system (eV)
  ---------------------------------------------------
  alpha Z        PSCENC =        31.50926878
  Ewald energy   TEWEN  =      6462.22987265
  -Hartree energ DENC   =     -8618.72434957
  -exchange      EXHF   =         0.00000000
  -V(xc)+E(xc)   XCENC  =       -40.72473073
  PAW double counting   =      1200.33059809    -1055.01058305
  entropy T*S    EENTRO =         0.00000000
  eigenvalues    EBANDS =      -618.93449588
  atomic energy  EATOM  =      2459.66876574
  Solvation  Ediel_sol  =         0.00000000
  ---------------------------------------------------
  free energy    TOTEN  =      -179.65565396 eV

  energy without entropy =     -179.65565396  energy(sigma->0) =     -179.65565396


--------------------------------------------------------------------------------------------------------




--------------------------------------- Iteration      1(  13)  ---------------------------------------


    POTLOK:  cpu time   39.7120: real time   58.9921
    SETDIJ:  cpu time    0.0280: real time    0.0696
     EDDAV:  cpu time   26.3680: real time   41.4344
 BZINTS: Fermi energy: -3.867663; 57.966663 electrons
         Band energy:-676.264907;  BLOECHL correction: -0.021279
       DOS:  cpu time    0.0040: real time    0.0065
    CHARGE:  cpu time    1.5120: real time    2.3668
    MIXING:  cpu time    0.0680: real time    0.0714
    --------------------------------------------
      LOOP:  cpu time   67.6920: real time  102.9408

 eigenvalue-minimisations  :  1440
 total energy-change (2. order) :-0.5591213E+02  (-0.5067418E+03)
 number of electron      57.9666627 magnetization       8.1175996
 augmentation part       -2.4503935 magnetization       8.6733933

 Broyden mixing:
  rms(total) = 0.24796E+01    rms(broyden)= 0.23841E+01
  rms(prec ) = 0.24423E+01
  weight for this iteration     100.00

 eigenvalues of (default mixing * dielectric matrix)
  average eigenvalue GAMMA=   0.8827
  3.1396  1.1595  1.1595  0.2290  0.6868  0.6868  0.0002  0.0000

 Free energy of the ion-electron system (eV)
  ---------------------------------------------------
  alpha Z        PSCENC =        31.50926878
  Ewald energy   TEWEN  =      6462.22987265
  -Hartree energ DENC   =     -8618.78805878
  -exchange      EXHF   =         0.00000000
  -V(xc)+E(xc)   XCENC  =       -39.23569205
  PAW double counting   =      1200.33131448    -1055.01835187
  entropy T*S    EENTRO =         0.00000000
  eigenvalues    EBANDS =      -676.26490701
  atomic energy  EATOM  =      2459.66876574
  Solvation  Ediel_sol  =         0.00000000
  ---------------------------------------------------
  free energy    TOTEN  =      -235.56778806 eV

  energy without entropy =     -235.56778806  energy(sigma->0) =     -235.56778806


--------------------------------------------------------------------------------------------------------




--------------------------------------- Iteration      1(  14)  ---------------------------------------


    POTLOK:  cpu time   39.1400: real time   58.5157
    SETDIJ:  cpu time    0.0600: real time    0.0632
     EDDAV:  cpu time   22.0520: real time   31.3982
 BZINTS: Fermi energy: -3.515849; 58.000000 electrons
         Band energy:-484.616197;  BLOECHL correction: -0.018459
       DOS:  cpu time    0.0200: real time    0.0181
    CHARGE:  cpu time    1.7920: real time    2.3760
    MIXING:  cpu time    0.0320: real time    0.0618
    --------------------------------------------
      LOOP:  cpu time   63.0960: real time   92.4330

 eigenvalue-minimisations  :  1008
 total energy-change (2. order) : 0.1911253E+03  (-0.1893139E+03)
 number of electron      57.9999992 magnetization       7.0115054
 augmentation part       -2.5409133 magnetization       5.6361750

 Broyden mixing:
  rms(total) = 0.38463E+00    rms(broyden)= 0.18218E+00
  rms(prec ) = 0.18464E+00
  weight for this iteration     100.00
  WARNING: grid for Broyden might be to small

 eigenvalues of (default mixing * dielectric matrix)
  average eigenvalue GAMMA=   1.1628
  5.0313  1.4928  1.4928  0.2290  0.7951  0.7951  0.6282  0.0008  0.0002

 Free energy of the ion-electron system (eV)
  ---------------------------------------------------
  alpha Z        PSCENC =        31.50926878
  Ewald energy   TEWEN  =      6462.22987265
  -Hartree energ DENC   =     -8618.72457627
  -exchange      EXHF   =         0.00000000
  -V(xc)+E(xc)   XCENC  =       -39.83736669
  PAW double counting   =      1200.30042679    -1054.97270448
  entropy T*S    EENTRO =         0.00000000
  eigenvalues    EBANDS =      -484.61619675
  atomic energy  EATOM  =      2459.66876574
  Solvation  Ediel_sol  =         0.00000000
  ---------------------------------------------------
  free energy    TOTEN  =       -44.44251025 eV

  energy without entropy =      -44.44251025  energy(sigma->0) =      -44.44251025


--------------------------------------------------------------------------------------------------------




--------------------------------------- Iteration      1(  15)  ---------------------------------------


    POTLOK:  cpu time   39.2360: real time   59.5787
    SETDIJ:  cpu time    0.0320: real time    0.0671
     EDDAV:  cpu time   26.5960: real time   41.1661
 BZINTS: Fermi energy: -3.674038; 58.000000 electrons
         Band energy:-702.534260;  BLOECHL correction: -0.026832
       DOS:  cpu time    0.0120: real time    0.0268
    CHARGE:  cpu time    1.6920: real time    2.3943
    MIXING:  cpu time    0.0360: real time    0.0560
    --------------------------------------------
      LOOP:  cpu time   67.6040: real time  103.2889

 eigenvalue-minimisations  :  1416
 total energy-change (2. order) :-0.2194407E+03  (-0.2163231E+03)
 number of electron      57.9999992 magnetization       7.0110567
 augmentation part       -2.5034380 magnetization       6.8977506

 Broyden mixing:
  rms(total) = 0.25215E+01    rms(broyden)= 0.24792E+01
  rms(prec ) = 0.25519E+01
  weight for this iteration     100.00

 eigenvalues of (default mixing * dielectric matrix)
  average eigenvalue GAMMA=   1.0466
  5.0314  1.4928  1.4928  0.2290  0.7951  0.7951  0.6282  0.0008  0.0002  0.0002

 Free energy of the ion-electron system (eV)
  ---------------------------------------------------
  alpha Z        PSCENC =        31.50926878
  Ewald energy   TEWEN  =      6462.22987265
  -Hartree energ DENC   =     -8618.96236140
  -exchange      EXHF   =         0.00000000
  -V(xc)+E(xc)   XCENC  =       -41.25031228
  PAW double counting   =      1199.67791713    -1054.22212620
  entropy T*S    EENTRO =         0.00000000
  eigenvalues    EBANDS =      -702.53426015
  atomic energy  EATOM  =      2459.66876574
  Solvation  Ediel_sol  =         0.00000000
  ---------------------------------------------------
  free energy    TOTEN  =      -263.88323573 eV

  energy without entropy =     -263.88323573  energy(sigma->0) =     -263.88323573


--------------------------------------------------------------------------------------------------------




--------------------------------------- Iteration      1(  16)  ---------------------------------------


    POTLOK:  cpu time   38.3680: real time   58.7008
    SETDIJ:  cpu time    0.0320: real time    0.0714
     EDDAV:  cpu time   23.3600: real time   36.4581
 BZINTS: Fermi energy: -4.362371; 58.000000 electrons
         Band energy:***********;  BLOECHL correction: -0.067880
       DOS:  cpu time    0.0240: real time    0.0583
    CHARGE:  cpu time    1.5440: real time    2.1646
    MIXING:  cpu time    0.0320: real time    0.0610
    --------------------------------------------
      LOOP:  cpu time   63.3600: real time   97.5142

 eigenvalue-minimisations  :  1224
 total energy-change (2. order) :-0.3351076E+03  (-0.7161225E+03)
 number of electron      57.9999993 magnetization       7.0091253
 augmentation part       -2.9058953 magnetization      10.0494117

 Broyden mixing:
  rms(total) = 0.29939E+01    rms(broyden)= 0.29325E+01
  rms(prec ) = 0.31962E+01
  weight for this iteration     100.00

 eigenvalues of (default mixing * dielectric matrix)
  average eigenvalue GAMMA=   0.9515
  5.0317  1.4929  1.4929  0.2290  0.7951  0.7951  0.6282  0.0008  0.0003  0.0003
  0.0002

 Free energy of the ion-electron system (eV)
  ---------------------------------------------------
  alpha Z        PSCENC =        31.50926878
  Ewald energy   TEWEN  =      6462.22987265
  -Hartree energ DENC   =     -8618.97594300
  -exchange      EXHF   =         0.00000000
  -V(xc)+E(xc)   XCENC  =       -40.42097520
  PAW double counting   =      1199.66231581    -1054.20076655
  entropy T*S    EENTRO =         0.00000000
  eigenvalues    EBANDS =     -1038.46338969
  atomic energy  EATOM  =      2459.66876574
  Solvation  Ediel_sol  =         0.00000000
  ---------------------------------------------------
  free energy    TOTEN  =      -598.99085147 eV

  energy without entropy =     -598.99085147  energy(sigma->0) =     -598.99085147


--------------------------------------------------------------------------------------------------------




--------------------------------------- Iteration      1(  17)  ---------------------------------------


    POTLOK:  cpu time   39.5320: real time   58.4953
    SETDIJ:  cpu time    0.0360: real time    0.0987
     EDDAV:  cpu time   22.2720: real time   33.5328
 BZINTS: Fermi energy: -3.521540; 58.000000 electrons
         Band energy:-484.217278;  BLOECHL correction: -0.018677
       DOS:  cpu time    0.0160: real time    0.0233
    CHARGE:  cpu time    1.5840: real time    2.3182
    MIXING:  cpu time    0.0440: real time    0.0611
    --------------------------------------------
      LOOP:  cpu time   63.4840: real time   94.5295

 eigenvalue-minimisations  :  1104
 total energy-change (2. order) : 0.5546094E+03  (-0.2982957E+03)
 number of electron      57.9999992 magnetization       6.3893482
 augmentation part       -2.6098774 magnetization       4.9203949

 Broyden mixing:
  rms(total) = 0.39620E+00    rms(broyden)= 0.69556E-01
  rms(prec ) = 0.70565E-01
  weight for this iteration     100.00
  WARNING: grid for Broyden might be to small

 eigenvalues of (default mixing * dielectric matrix)
  average eigenvalue GAMMA=   1.1428
  7.3150  1.6002  1.4779  0.2290  0.9419  0.8195  0.7192  0.6082  0.0002  0.0007
  0.0007  0.0008

 Free energy of the ion-electron system (eV)
  ---------------------------------------------------
  alpha Z        PSCENC =        31.50926878
  Ewald energy   TEWEN  =      6462.22987265
  -Hartree energ DENC   =     -8618.91803165
  -exchange      EXHF   =         0.00000000
  -V(xc)+E(xc)   XCENC  =       -40.10582505
  PAW double counting   =      1199.61845436    -1054.16665570
  entropy T*S    EENTRO =         0.00000000
  eigenvalues    EBANDS =      -484.21727805
  atomic energy  EATOM  =      2459.66876574
  Solvation  Ediel_sol  =         0.00000000
  ---------------------------------------------------
  free energy    TOTEN  =       -44.38142891 eV

  energy without entropy =      -44.38142891  energy(sigma->0) =      -44.38142891


--------------------------------------------------------------------------------------------------------




--------------------------------------- Iteration      1(  18)  ---------------------------------------


    POTLOK:  cpu time   38.9880: real time   59.6845
    SETDIJ:  cpu time    0.0280: real time    0.0702
     EDDAV:  cpu time   21.2160: real time   32.9423
 BZINTS: Fermi energy: -3.535747; 58.000000 electrons
         Band energy:-484.173963;  BLOECHL correction: -0.018759
       DOS:  cpu time    0.0120: real time    0.0420
    CHARGE:  cpu time    1.5480: real time    2.2133
    MIXING:  cpu time    0.0320: real time    0.0650
    --------------------------------------------
      LOOP:  cpu time   61.8240: real time   95.0173

 eigenvalue-minimisations  :  1080
 total energy-change (2. order) :-0.1204328E+01  (-0.2288330E-01)
 number of electron      57.9999992 magnetization       6.0595787
 augmentation part       -2.6176259 magnetization       4.5562317

 Broyden mixing:
  rms(total) = 0.83780E-01    rms(broyden)= 0.30487E-01
  rms(prec ) = 0.31404E-01
  weight for this iteration     100.00
  WARNING: grid for Broyden might be to small

 eigenvalues of (default mixing * dielectric matrix)
  average eigenvalue GAMMA=   1.2553
  8.5424  1.7718  1.5363  0.2290  1.2487  0.8337  0.8337  0.6982  0.6224  0.0002
  0.0007  0.0007  0.0008

 Free energy of the ion-electron system (eV)
  ---------------------------------------------------
  alpha Z        PSCENC =        31.50926878
  Ewald energy   TEWEN  =      6462.22987265
  -Hartree energ DENC   =     -8618.89820811
  -exchange      EXHF   =         0.00000000
  -V(xc)+E(xc)   XCENC  =       -41.43902900
  PAW double counting   =      1198.89121519    -1053.37367914
  entropy T*S    EENTRO =         0.00000000
  eigenvalues    EBANDS =      -484.17396280
  atomic energy  EATOM  =      2459.66876574
  Solvation  Ediel_sol  =         0.00000000
  ---------------------------------------------------
  free energy    TOTEN  =       -45.58575670 eV

  energy without entropy =      -45.58575670  energy(sigma->0) =      -45.58575670


--------------------------------------------------------------------------------------------------------




--------------------------------------- Iteration      1(  19)  ---------------------------------------


    POTLOK:  cpu time   39.3320: real time   60.0581
    SETDIJ:  cpu time    0.0800: real time    0.0829
     EDDAV:  cpu time   21.7240: real time   33.7610
 BZINTS: Fermi energy: -3.541631; 58.000000 electrons
         Band energy:-484.068579;  BLOECHL correction: -0.019117
       DOS:  cpu time    0.0080: real time    0.0256
    CHARGE:  cpu time    1.4600: real time    2.4255
    MIXING:  cpu time    0.0760: real time    0.0753
    --------------------------------------------
      LOOP:  cpu time   62.6800: real time   96.4284

 eigenvalue-minimisations  :  1128
 total energy-change (2. order) :-0.1652508E+00  (-0.2017871E-02)
 number of electron      57.9999992 magnetization       5.9815270
 augmentation part       -2.6195342 magnetization       4.4791574

 Broyden mixing:
  rms(total) = 0.20234E-01    rms(broyden)= 0.12867E-01
  rms(prec ) = 0.13279E-01
  weight for this iteration     100.00
  WARNING: grid for Broyden might be to small

 eigenvalues of (default mixing * dielectric matrix)
  average eigenvalue GAMMA=   1.3210
  9.2567  2.4017  1.4427  1.4427  0.2290  0.8475  0.8475  0.7020  0.7020  0.6190
  0.0002  0.0007  0.0007  0.0008

 Free energy of the ion-electron system (eV)
  ---------------------------------------------------
  alpha Z        PSCENC =        31.50926878
  Ewald energy   TEWEN  =      6462.22987265
  -Hartree energ DENC   =     -8619.04033602
  -exchange      EXHF   =         0.00000000
  -V(xc)+E(xc)   XCENC  =       -41.64311313
  PAW double counting   =      1199.04525697    -1053.45214309
  entropy T*S    EENTRO =         0.00000000
  eigenvalues    EBANDS =      -484.06857937
  atomic energy  EATOM  =      2459.66876574
  Solvation  Ediel_sol  =         0.00000000
  ---------------------------------------------------
  free energy    TOTEN  =       -45.75100747 eV

  energy without entropy =      -45.75100747  energy(sigma->0) =      -45.75100747


--------------------------------------------------------------------------------------------------------




--------------------------------------- Iteration      1(  20)  ---------------------------------------


    POTLOK:  cpu time   38.6880: real time   58.3781
    SETDIJ:  cpu time    0.0400: real time    0.0588
     EDDAV:  cpu time   24.9640: real time   37.0000
 BZINTS: Fermi energy: -3.543442; 58.000000 electrons
         Band energy:-484.091745;  BLOECHL correction: -0.019164
       DOS:  cpu time    0.0240: real time    0.0461
    CHARGE:  cpu time    1.5520: real time    2.2912
    MIXING:  cpu time    0.0320: real time    0.0639
    --------------------------------------------
      LOOP:  cpu time   65.3000: real time   97.8381

 eigenvalue-minimisations  :  1248
 total energy-change (2. order) :-0.2050797E-01  (-0.2919726E-03)
 number of electron      57.9999992 magnetization       5.9918872
 augmentation part       -2.6222497 magnetization       4.4863115

 Broyden mixing:
  rms(total) = 0.94075E-02    rms(broyden)= 0.88738E-02
  rms(prec ) = 0.91105E-02
  weight for this iteration     100.00

 eigenvalues of (default mixing * dielectric matrix)
  average eigenvalue GAMMA=   1.3219
  9.3172  2.4708  1.5175  1.5175  0.2290  0.9608  0.9608  0.7909  0.7909  0.6178
  0.6532  0.0002  0.0007  0.0007  0.0008

 Free energy of the ion-electron system (eV)
  ---------------------------------------------------
  alpha Z        PSCENC =        31.50926878
  Ewald energy   TEWEN  =      6462.22987265
  -Hartree energ DENC   =     -8619.00479047
  -exchange      EXHF   =         0.00000000
  -V(xc)+E(xc)   XCENC  =       -41.69143616
  PAW double counting   =      1199.02897966    -1053.42043039
  entropy T*S    EENTRO =         0.00000000
  eigenvalues    EBANDS =      -484.09174525
  atomic energy  EATOM  =      2459.66876574
  Solvation  Ediel_sol  =         0.00000000
  ---------------------------------------------------
  free energy    TOTEN  =       -45.77151544 eV

  energy without entropy =      -45.77151544  energy(sigma->0) =      -45.77151544


--------------------------------------------------------------------------------------------------------




--------------------------------------- Iteration      1(  21)  ---------------------------------------


    POTLOK:  cpu time   39.6040: real time   58.1684
    SETDIJ:  cpu time    0.0600: real time    0.0575
     EDDAV:  cpu time   19.8160: real time   30.1411
 BZINTS: Fermi energy: -3.545471; 58.000000 electrons
         Band energy:-484.186620;  BLOECHL correction: -0.019178
       DOS:  cpu time    0.0080: real time    0.0250
    CHARGE:  cpu time    1.6200: real time    2.1876
    MIXING:  cpu time    0.0840: real time    0.0821
    --------------------------------------------
      LOOP:  cpu time   61.1920: real time   90.6618

 eigenvalue-minimisations  :   960
 total energy-change (2. order) :-0.4197917E-02  (-0.6103574E-04)
 number of electron      57.9999992 magnetization       5.9946894
 augmentation part       -2.6206323 magnetization       4.4946679

 Broyden mixing:
  rms(total) = 0.39800E-02    rms(broyden)= 0.39305E-02
  rms(prec ) = 0.42257E-02
  weight for this iteration     100.00

 eigenvalues of (default mixing * dielectric matrix)
  average eigenvalue GAMMA=   1.3302
  9.3277  2.5636  1.8184  1.3809  1.3809  0.2290  0.9005  0.9005  0.7580  0.7580
  0.6263  0.6363  0.0002  0.0007  0.0007  0.0008

 Free energy of the ion-electron system (eV)
  ---------------------------------------------------
  alpha Z        PSCENC =        31.50926878
  Ewald energy   TEWEN  =      6462.22987265
  -Hartree energ DENC   =     -8618.93894716
  -exchange      EXHF   =         0.00000000
  -V(xc)+E(xc)   XCENC  =       -41.66502909
  PAW double counting   =      1199.16380575    -1053.55683049
  entropy T*S    EENTRO =         0.00000000
  eigenvalues    EBANDS =      -484.18661954
  atomic energy  EATOM  =      2459.66876574
  Solvation  Ediel_sol  =         0.00000000
  ---------------------------------------------------
  free energy    TOTEN  =       -45.77571336 eV

  energy without entropy =      -45.77571336  energy(sigma->0) =      -45.77571336


--------------------------------------------------------------------------------------------------------




--------------------------------------- Iteration      1(  22)  ---------------------------------------


    POTLOK:  cpu time   39.0200: real time   58.3986
    SETDIJ:  cpu time    0.0280: real time    0.0568
     EDDAV:  cpu time   21.4560: real time   32.7519
 BZINTS: Fermi energy: -3.546760; 58.000000 electrons
         Band energy:-484.261043;  BLOECHL correction: -0.019176
       DOS:  cpu time    0.0040: real time    0.0047
    CHARGE:  cpu time    1.9720: real time    2.2944
    MIXING:  cpu time    0.0760: real time    0.0776
    --------------------------------------------
      LOOP:  cpu time   62.5560: real time   93.5840

 eigenvalue-minimisations  :  1056
 total energy-change (2. order) :-0.5184871E-03  (-0.1648120E-04)
 number of electron      57.9999992 magnetization       5.9925727
 augmentation part       -2.6198372 magnetization       4.4934662

 Broyden mixing:
  rms(total) = 0.34467E-02    rms(broyden)= 0.34445E-02
  rms(prec ) = 0.37273E-02
  weight for this iteration     100.00

 eigenvalues of (default mixing * dielectric matrix)
  average eigenvalue GAMMA=   1.3435
  9.3385  2.7334  2.1474  1.4627  1.4627  0.2290  0.9542  0.9542  0.7928  0.7928
  0.6995  0.6206  0.6488  0.0002  0.0007  0.0007  0.0008

 Free energy of the ion-electron system (eV)
  ---------------------------------------------------
  alpha Z        PSCENC =        31.50926878
  Ewald energy   TEWEN  =      6462.22987265
  -Hartree energ DENC   =     -8618.86669614
  -exchange      EXHF   =         0.00000000
  -V(xc)+E(xc)   XCENC  =       -41.66295376
  PAW double counting   =      1199.24534711    -1053.63879307
  entropy T*S    EENTRO =         0.00000000
  eigenvalues    EBANDS =      -484.26104314
  atomic energy  EATOM  =      2459.66876574
  Solvation  Ediel_sol  =         0.00000000
  ---------------------------------------------------
  free energy    TOTEN  =       -45.77623184 eV

  energy without entropy =      -45.77623184  energy(sigma->0) =      -45.77623184


--------------------------------------------------------------------------------------------------------




--------------------------------------- Iteration      1(  23)  ---------------------------------------


    POTLOK:  cpu time   40.4720: real time   60.2768
    SETDIJ:  cpu time    0.0680: real time    0.0704
     EDDAV:  cpu time   20.0040: real time   29.4020
 BZINTS: Fermi energy: -3.547500; 58.000000 electrons
         Band energy:-484.300926;  BLOECHL correction: -0.019175
       DOS:  cpu time    0.0040: real time    0.0041
    CHARGE:  cpu time    1.5160: real time    2.2303
    MIXING:  cpu time    0.0480: real time    0.0807
    --------------------------------------------
      LOOP:  cpu time   62.1120: real time   92.0642

 eigenvalue-minimisations  :   912
 total energy-change (2. order) :-0.2425341E-03  (-0.1003227E-04)
 number of electron      57.9999992 magnetization       5.9902354
 augmentation part       -2.6197155 magnetization       4.4906682

 Broyden mixing:
  rms(total) = 0.32309E-02    rms(broyden)= 0.32308E-02
  rms(prec ) = 0.35283E-02
  weight for this iteration     100.00

 eigenvalues of (default mixing * dielectric matrix)
  average eigenvalue GAMMA=   1.3330
  9.3425  2.7792  2.2395  1.4927  1.4927  0.2290  1.0057  1.0057  0.8235  0.8235
  0.7947  0.7098  0.6188  0.6348  0.0002  0.0007  0.0007  0.0008

 Free energy of the ion-electron system (eV)
  ---------------------------------------------------
  alpha Z        PSCENC =        31.50926878
  Ewald energy   TEWEN  =      6462.22987265
  -Hartree energ DENC   =     -8618.82111124
  -exchange      EXHF   =         0.00000000
  -V(xc)+E(xc)   XCENC  =       -41.66845359
  PAW double counting   =      1199.26230372    -1053.65619416
  entropy T*S    EENTRO =         0.00000000
  eigenvalues    EBANDS =      -484.30092627
  atomic energy  EATOM  =      2459.66876574
  Solvation  Ediel_sol  =         0.00000000
  ---------------------------------------------------
  free energy    TOTEN  =       -45.77647438 eV

  energy without entropy =      -45.77647438  energy(sigma->0) =      -45.77647438


--------------------------------------------------------------------------------------------------------




--------------------------------------- Iteration      1(  24)  ---------------------------------------


    POTLOK:  cpu time   39.5240: real time   59.5589
    SETDIJ:  cpu time    0.0280: real time    0.0670
     EDDAV:  cpu time   20.9480: real time   31.0479
 BZINTS: Fermi energy: -3.547994; 58.000000 electrons
         Band energy:-484.327913;  BLOECHL correction: -0.019174
       DOS:  cpu time    0.0040: real time    0.0156
    CHARGE:  cpu time    1.5320: real time    2.2058
    MIXING:  cpu time    0.0800: real time    0.0804
    --------------------------------------------
      LOOP:  cpu time   62.1160: real time   92.9757

 eigenvalue-minimisations  :   984
 total energy-change (2. order) :-0.2601811E-03  (-0.1514885E-04)
 number of electron      57.9999992 magnetization       5.9893713
 augmentation part       -2.6196856 magnetization       4.4896991

 Broyden mixing:
  rms(total) = 0.32151E-02    rms(broyden)= 0.32151E-02
[...]
     34      -0.5155      0.00000
     35      -0.4404      0.00000
     36      -0.0413      0.00000
     37       0.0642      0.00000
     38       0.1689      0.00000
     39       0.3805      0.00000
     40       0.6358      0.00000
     41       0.9032      0.00000
     42       1.1656      0.00000
     43       2.0041      0.00000
     44       2.2196      0.00000
     45       2.9677      0.00000
     46       3.0728      0.00000
     47       3.3905      0.00000
     48       3.4412      0.00000

 k-point     5 :      -0.4000    0.2000    0.0000
  band No.  band energies     occupation 
      1     -17.2021      1.00000
      2     -16.2214      1.00000
      3     -16.1973      1.00000
      4     -15.9157      1.00000
      5     -15.6880      1.00000
      6     -15.5746      1.00000
      7     -13.2191      1.00000
      8     -11.4663      1.00000
      9      -8.1488      1.00000
     10      -7.7514      1.00000
     11      -7.7281      1.00000
     12      -7.3000      1.00000
     13      -6.9496      1.00000
     14      -6.3540      1.00000
     15      -5.9280      1.00000
     16      -5.7644      1.00000
     17      -5.6932      1.00000
     18      -5.6213      1.00000
     19      -5.5782      1.00000
     20      -5.2031      1.00000
     21      -4.8888      1.00000
     22      -4.5210      1.00000
     23      -4.3266      1.00000
     24      -4.1701      1.00000
     25      -4.1108      1.00000
     26      -3.1301      1.00000
     27      -2.3538      0.94109
     28      -1.7892      0.00000
     29      -1.6441      0.00000
     30      -1.0082      0.00000
     31      -0.9796      0.00000
     32      -0.9418      0.00000
     33      -0.8051      0.00000
     34      -0.5561      0.00000
     35      -0.3646      0.00000
     36      -0.0019      0.00000
     37       0.0270      0.00000
     38       0.1527      0.00000
     39       0.4854      0.00000
     40       0.6216      0.00000
     41       0.9561      0.00000
     42       0.9616      0.00000
     43       2.5780      0.00000
     44       2.7812      0.00000
     45       2.8536      0.00000
     46       2.8759      0.00000
     47       3.1148      0.00000
     48       3.4849      0.00000


--------------------------------------------------------------------------------------------------------


 soft charge-density along one line, spin component           1
         0         1         2         3         4         5         6         7         8         9
 total charge-density along one line

 soft charge-density along one line, spin component           2
         0         1         2         3         4         5         6         7         8         9
 total charge-density along one line

 pseudopotential strength for first ion, spin component:           1
 -8.802   0.075  -0.000  -0.000  -0.000   0.686  -0.020   0.000
  0.075  -8.711   0.000  -0.000  -0.000  -0.020   0.662  -0.000
 -0.000   0.000  -8.875   0.000   0.000   0.000  -0.000   0.707
 -0.000  -0.000   0.000  -8.711  -0.075   0.000   0.000  -0.000
 -0.000  -0.000   0.000  -0.075  -8.802   0.000   0.000  -0.000
  0.686  -0.020   0.000   0.000   0.000   0.363   0.005  -0.000
 -0.020   0.662  -0.000   0.000   0.000   0.005   0.369   0.000
  0.000  -0.000   0.707  -0.000  -0.000  -0.000   0.000   0.358
  0.000   0.000  -0.000   0.662   0.020  -0.000  -0.000   0.000
  0.000   0.000  -0.000   0.020   0.686  -0.000  -0.000   0.000
  0.000  -0.000  -0.001  -0.000   0.000  -0.000   0.000   0.000
 -0.000   0.000   0.000   0.000  -0.000   0.000  -0.000  -0.000
 -0.000  -0.000   0.000  -0.000   0.001   0.000   0.000  -0.000
 -0.000  -0.000   0.000  -0.000  -0.000   0.000   0.000  -0.000
  0.001  -0.000   0.000  -0.000   0.000  -0.000   0.000  -0.000
  0.000   0.000  -0.000   0.000  -0.001  -0.000  -0.000   0.000
  0.000   0.000  -0.000   0.000   0.000  -0.000  -0.000   0.000
 -0.001   0.000  -0.000   0.000  -0.000   0.000  -0.000   0.000
 pseudopotential strength for first ion, spin component:           2
 -7.247  -0.149  -0.000   0.000  -0.000   0.247   0.039   0.000
 -0.149  -7.410   0.000  -0.000   0.000   0.039   0.290  -0.000
 -0.000   0.000  -7.097   0.000   0.000   0.000  -0.000   0.208
  0.000  -0.000   0.000  -7.410   0.149  -0.000   0.000  -0.000
 -0.000   0.000   0.000   0.149  -7.247   0.000  -0.000  -0.000
  0.247   0.039   0.000  -0.000   0.000   0.483  -0.010  -0.000
  0.039   0.290  -0.000   0.000  -0.000  -0.010   0.472   0.000
  0.000  -0.000   0.208  -0.000  -0.000  -0.000   0.000   0.493
 -0.000   0.000  -0.000   0.290  -0.039   0.000  -0.000   0.000
  0.000  -0.000  -0.000  -0.039   0.247  -0.000   0.000   0.000
 -0.000  -0.000   0.002  -0.000   0.000  -0.000   0.000   0.000
  0.000   0.000  -0.000   0.000  -0.000  -0.000  -0.000   0.000
  0.000  -0.000   0.000  -0.000   0.001  -0.000   0.000  -0.000
 -0.000  -0.000  -0.000  -0.000   0.000   0.000   0.000   0.000
  0.001  -0.000   0.000  -0.000  -0.000  -0.000   0.000  -0.000
 -0.000   0.000  -0.000   0.000  -0.001   0.000  -0.000   0.000
  0.000   0.000   0.000   0.000  -0.000  -0.000  -0.000  -0.000
 -0.001   0.000  -0.000   0.000   0.000   0.000  -0.000   0.000
 total augmentation occupancy for first ion, spin component:           1
  0.989  -0.067   0.000   0.000  -0.000   0.080   0.210  -0.000  -0.000  -0.000  -0.000  -0.000  -0.000   0.000   0.016   0.000
 -0.067   0.962  -0.000  -0.000   0.000   0.209   0.299   0.000   0.000  -0.000   0.000   0.000  -0.000   0.000  -0.003  -0.000
  0.000  -0.000   1.037  -0.000  -0.000  -0.000   0.000  -0.096   0.000   0.000  -0.001  -0.012  -0.000   0.000   0.000  -0.000
  0.000  -0.000  -0.000   0.962   0.067  -0.000  -0.000   0.000   0.299  -0.209   0.000   0.000   0.003  -0.000  -0.000  -0.000
 -0.000   0.000  -0.000   0.067   0.989   0.000  -0.000   0.000  -0.210   0.080   0.000   0.000   0.016  -0.000   0.000   0.000
  0.080   0.209  -0.000  -0.000   0.000   0.190   0.104   0.000  -0.000  -0.000   0.000  -0.000  -0.000   0.000   0.021   0.000
  0.210   0.299   0.000  -0.000  -0.000   0.104   0.291   0.000  -0.000  -0.000  -0.000  -0.000   0.000  -0.000  -0.005   0.000
 -0.000   0.000  -0.096   0.000   0.000   0.000   0.000   0.167   0.000  -0.000   0.038  -0.008  -0.000   0.001   0.000   0.000
 -0.000   0.000   0.000   0.299  -0.210  -0.000  -0.000   0.000   0.291  -0.104   0.000   0.000   0.005   0.000   0.000  -0.000
 -0.000  -0.000   0.000  -0.209   0.080  -0.000  -0.000  -0.000  -0.104   0.190  -0.000   0.000   0.021  -0.000   0.000  -0.002
 -0.000   0.000  -0.001  -0.000   0.000   0.000  -0.000   0.038   0.000  -0.000   1.075  -0.186  -0.000   0.000   0.000  -0.000
 -0.000   0.000  -0.012   0.000   0.000  -0.000  -0.000  -0.008   0.000   0.000  -0.186   0.073   0.000  -0.000   0.000  -0.000
 -0.000  -0.000  -0.000   0.003   0.016  -0.000   0.000  -0.000   0.005   0.021  -0.000   0.000   0.230  -0.000  -0.000  -0.003
  0.000   0.000   0.000  -0.000  -0.000   0.000  -0.000   0.001   0.000  -0.000   0.000  -0.000  -0.000   0.245   0.000  -0.000
  0.016  -0.003   0.000  -0.000   0.000   0.021  -0.005   0.000   0.000   0.000   0.000   0.000  -0.000  -0.000   0.230   0.000
  0.000  -0.000  -0.000  -0.000   0.000   0.000   0.000   0.000  -0.000  -0.002   0.000  -0.000  -0.003  -0.000   0.000   0.000
 -0.000   0.000  -0.000   0.000   0.000  -0.000  -0.000  -0.000  -0.000   0.000  -0.000   0.000  -0.000  -0.004  -0.000   0.000
  0.000   0.000   0.000  -0.000  -0.000  -0.002   0.000  -0.000   0.000  -0.000   0.000   0.000  -0.000  -0.000  -0.003  -0.000
 total augmentation occupancy for first ion, spin component:           2
  0.674  -0.251   0.000   0.000  -0.000  -0.151   0.048  -0.000  -0.000  -0.000  -0.000  -0.000   0.000  -0.000  -0.001   0.000
 -0.251   0.392  -0.000  -0.000   0.000   0.051  -0.101   0.000  -0.000  -0.000   0.000   0.000  -0.000   0.000   0.009  -0.000
  0.000  -0.000   0.902  -0.000  -0.000  -0.000   0.000  -0.219   0.000   0.000  -0.019  -0.005   0.000  -0.000  -0.000  -0.000
  0.000  -0.000  -0.000   0.392   0.251  -0.000   0.000   0.000  -0.101  -0.051  -0.000  -0.000  -0.009  -0.000  -0.000   0.000
 -0.000   0.000  -0.000   0.251   0.674   0.000  -0.000   0.000  -0.048  -0.151   0.000   0.000  -0.001   0.000  -0.000   0.001
 -0.151   0.051  -0.000  -0.000   0.000  -0.006  -0.040   0.000   0.000  -0.000   0.000   0.000  -0.000   0.000  -0.006  -0.000
  0.048  -0.101   0.000   0.000  -0.000  -0.040  -0.047  -0.000   0.000   0.000  -0.000  -0.000   0.000  -0.000   0.001   0.000
 -0.000   0.000  -0.219   0.000   0.000   0.000  -0.000   0.049  -0.000  -0.000   0.011   0.003   0.000   0.000  -0.000   0.000
 -0.000  -0.000   0.000  -0.101  -0.048   0.000   0.000  -0.000  -0.047   0.040   0.000  -0.000  -0.001   0.000   0.000  -0.000
 -0.000  -0.000   0.000  -0.051  -0.151  -0.000   0.000  -0.000   0.040  -0.006  -0.000  -0.000  -0.006  -0.000   0.000  -0.000
 -0.000   0.000  -0.019   0.000   0.000   0.000  -0.000   0.011  -0.000  -0.000   0.155   0.062   0.000  -0.000   0.000   0.000
 -0.000   0.000  -0.005   0.000   0.000   0.000  -0.000   0.003   0.000  -0.000   0.062  -0.021  -0.000  -0.000   0.000  -0.000
  0.000  -0.000   0.000  -0.009  -0.001  -0.000   0.000   0.000  -0.001  -0.006   0.000  -0.000   0.026   0.000  -0.000   0.003
 -0.000   0.000  -0.000   0.000   0.000   0.000  -0.000   0.000  -0.000  -0.000  -0.000  -0.000   0.000   0.023   0.000  -0.000
 -0.001   0.009  -0.000  -0.000  -0.000  -0.006   0.001  -0.000   0.000   0.000   0.000   0.000  -0.000   0.000   0.026  -0.000
  0.000  -0.000  -0.000   0.000   0.001  -0.000   0.000   0.000  -0.000  -0.000  -0.000  -0.000   0.003  -0.000  -0.000  -0.000
 -0.000   0.000  -0.000   0.000   0.000   0.000  -0.000   0.000  -0.000  -0.000   0.000  -0.000  -0.000   0.003  -0.000  -0.000
  0.001  -0.000   0.000  -0.000  -0.000  -0.000   0.000  -0.000   0.000   0.000   0.000   0.000   0.000  -0.000   0.003   0.000


------------------------ aborting loop because EDIFF is reached ----------------------------------------





 total charge     

# of ion       s       p       d       tot
------------------------------------------
    1        0.352   0.477   4.296   5.125
    2        0.352   0.477   4.296   5.125
    3        1.108   1.277   0.000   2.385
    4        1.108   1.277   0.000   2.385
    5        1.494   2.305   0.042   3.841
    6        1.481   2.266   0.044   3.791
    7        1.491   2.293   0.043   3.827
    8        1.494   2.305   0.042   3.841
    9        1.481   2.266   0.044   3.791
   10        1.491   2.293   0.043   3.827
--------------------------------------------------
tot         11.852  17.235   8.850  37.937



 magnetization (x)

# of ion       s       p       d       tot
------------------------------------------
    1        0.035   0.042   2.805   2.883
    2        0.035   0.042   2.805   2.883
    3        0.004   0.024   0.000   0.028
    4        0.004   0.024   0.000   0.028
    5        0.003  -0.053   0.006  -0.044
    6        0.001  -0.053   0.006  -0.046
    7        0.002  -0.054   0.006  -0.047
    8        0.003  -0.053   0.006  -0.044
    9        0.001  -0.053   0.006  -0.046
   10        0.002  -0.054   0.006  -0.047
--------------------------------------------------
tot          0.092  -0.189   5.647   5.550

    CHARGE:  cpu time    1.3280: real time    2.4272
    FORLOC:  cpu time    0.0280: real time    0.0621
    FORNL :  cpu time    4.6840: real time    7.0196
    STRESS:  cpu time   13.4640: real time   20.8727
    FORCOR:  cpu time   38.9080: real time   59.4611
    FORHAR:  cpu time    0.1800: real time    0.2818
    MIXING:  cpu time    0.0480: real time    0.0462
    OFIELD:  cpu time    0.0000: real time    0.0001

  FORCE on cell =-STRESS in cart. coord.  units (eV):
  Direction    XX          YY          ZZ          XY          YZ          ZX
  --------------------------------------------------------------------------------------
  Alpha Z    39.98534    39.98534    39.98534
  Ewald    9083.05879  9083.05605-10762.74352    -0.00117    -0.00046    -0.00084
  Hartree  9430.98703  9430.98742 -9274.85560     0.00001     0.00005     0.00009
  E(xc)    -223.41194  -223.41197  -223.65125     0.00004     0.00000     0.00001
  Local  -19293.58377-19293.58277 19217.73837     0.00075     0.00021     0.00039
  n-local   341.00176   342.52434   350.55638     0.78024     0.41531     0.40093
  augment    12.58300    12.58299     8.92322     0.00008    -0.00013     0.00010
  Kinetic   613.59408   605.14441   643.81255    -5.61438    -0.69136    -0.79610
  Fock        0.00000     0.00000     0.00000     0.00000     0.00000     0.00000
  -------------------------------------------------------------------------------------
  Total       0.75005     0.75005    -0.23449    -0.00000    -0.00000    -0.00000
  in kB       1.57404     1.57404    -0.49209    -0.00000    -0.00000    -0.00000
  external pressure =        0.89 kB  Pullay stress =        0.00 kB


 VOLUME and BASIS-vectors are now :
 -----------------------------------------------------------------------------
  energy-cutoff  :      520.00
  volume of cell :      763.46
      direct lattice vectors                 reciprocal lattice vectors
     6.338543310  0.000000073 -0.000000000     0.157764956 -0.091085631  0.000000000
     3.169271216  5.489339291 -0.000000000    -0.000000002  0.182171288 -0.000000000
    -0.000000000  0.000000000 21.942079617     0.000000000 -0.000000000  0.045574532

  length of vectors
     6.338543310  6.338542884 21.942079617     0.182171275  0.182171288  0.045574532


 FORCES acting on ions
    electron-ion (+dipol)            ewald-force                    non-local-force                 convergence-correction
 -----------------------------------------------------------------------------------------------
   -.104E-03 -.607E-04 0.569E+00   0.394E-03 0.232E-03 -.572E+00   0.173E-17 -.347E-17 0.533E-02   -.150E-06 -.598E-07 0.153E-02
   0.104E-03 0.607E-04 -.569E+00   -.394E-03 -.232E-03 0.572E+00   -.867E-18 0.347E-17 -.533E-02   0.150E-06 0.598E-07 -.153E-02
   -.462E-04 -.280E-04 0.256E+03   -.219E-03 -.122E-03 -.259E+03   -.954E-17 -.688E-17 0.349E+01   -.168E-06 -.102E-06 -.271E-01
   0.462E-04 0.280E-04 -.256E+03   0.219E-03 0.122E-03 0.259E+03   -.433E-17 0.688E-17 -.349E+01   0.168E-06 0.102E-06 0.271E-01
   0.580E+01 0.354E-01 -.421E+03   -.738E+01 -.361E-01 0.423E+03   0.159E+01 -.385E-02 -.191E+01   0.107E-01 0.117E-02 0.853E-01
   -.287E+01 -.504E+01 -.421E+03   0.366E+01 0.641E+01 0.423E+03   -.799E+00 -.138E+01 -.191E+01   -.434E-02 -.985E-02 0.853E-01
   -.293E+01 0.500E+01 -.421E+03   0.372E+01 -.638E+01 0.423E+03   -.793E+00 0.138E+01 -.191E+01   -.636E-02 0.868E-02 0.853E-01
   -.580E+01 -.354E-01 0.421E+03   0.738E+01 0.361E-01 -.423E+03   -.159E+01 0.385E-02 0.191E+01   -.107E-01 -.117E-02 -.853E-01
   0.287E+01 0.504E+01 0.421E+03   -.366E+01 -.641E+01 -.423E+03   0.799E+00 0.138E+01 0.191E+01   0.434E-02 0.985E-02 -.853E-01
   0.293E+01 -.500E+01 0.421E+03   -.372E+01 0.638E+01 -.423E+03   0.793E+00 -.138E+01 0.191E+01   0.636E-02 -.868E-02 -.853E-01
 -----------------------------------------------------------------------------------------------
   0.320E-09 0.453E-09 0.919E-10   0.355E-14 0.355E-14 0.000E+00   0.111E-15 0.000E+00 0.444E-15   -.225E-12 -.218E-12 0.293E-10


 POSITION                                       TOTAL-FORCE (eV/Angst)
 -----------------------------------------------------------------------------------
      3.16927      1.82978     10.96939        -0.000000      0.000000      0.004424
      6.33855      3.65956     10.97269        -0.000000      0.000000     -0.004424
     -0.00000      0.00000      9.83018        -0.000000      0.000000      0.140671
     -0.00000      0.00000     12.11190        -0.000000      0.000000     -0.140671
      3.99049      0.00131     12.52818         0.020850     -0.002765     -0.027550
      1.17516      2.03282     12.52818        -0.012819     -0.016674     -0.027550
      4.34217      3.45521     12.52818        -0.008031      0.019439     -0.027550
      5.51732      5.48803      9.41390        -0.020850      0.002765      0.027550
      8.33265      3.45652      9.41390         0.012819      0.016674      0.027550
      5.16565      2.03413      9.41390         0.008031     -0.019439      0.027550
 -----------------------------------------------------------------------------------
    total drift:                                0.000000      0.000000      0.000000


--------------------------------------------------------------------------------------------------------



  FREE ENERGIE OF THE ION-ELECTRON SYSTEM (eV)
  ---------------------------------------------------
  free  energy   TOTEN  =       -48.50192740 eV

  energy  without entropy=      -48.50192740  energy(sigma->0) =      -48.50192740

 d Force =-0.7818331E-04[-0.181E-02, 0.166E-02]  d Energy = 0.1589761E-03-0.237E-03
 d Force =-0.2838036E+01[-0.283E+01,-0.285E+01]  d Ewald  = 0.1020603E+01-0.386E+01


--------------------------------------------------------------------------------------------------------


    POTLOK:  cpu time   39.7640: real time   60.1643


--------------------------------------------------------------------------------------------------------




--------------------------------------------------------------------------------------------------------


  
 reached required accuracy - stopping structural energy minimisation
     LOOP+:  cpu time  284.3120: real time  432.9150
    4ORBIT:  cpu time    0.0000: real time    0.0000



 total charge     

# of ion       s       p       d       tot
------------------------------------------
    1        0.352   0.477   4.296   5.125
    2        0.352   0.477   4.296   5.125
    3        1.108   1.277   0.000   2.385
    4        1.108   1.277   0.000   2.385
    5        1.494   2.305   0.042   3.841
    6        1.481   2.266   0.044   3.791
    7        1.491   2.293   0.043   3.827
    8        1.494   2.305   0.042   3.841
    9        1.481   2.266   0.044   3.791
   10        1.491   2.293   0.043   3.827
--------------------------------------------------
tot         11.852  17.235   8.850  37.937



 magnetization (x)

# of ion       s       p       d       tot
------------------------------------------
    1        0.035   0.042   2.805   2.883
    2        0.035   0.042   2.805   2.883
    3        0.004   0.024   0.000   0.028
    4        0.004   0.024   0.000   0.028
    5        0.003  -0.053   0.006  -0.044
    6        0.001  -0.053   0.006  -0.046
    7        0.002  -0.054   0.006  -0.047
    8        0.003  -0.053   0.006  -0.044
    9        0.001  -0.053   0.006  -0.046
   10        0.002  -0.054   0.006  -0.047
--------------------------------------------------
tot          0.092  -0.189   5.647   5.550

 BZINTS: Fermi energy: -2.202801; 58.000000 electrons
         Band energy:-474.324601;  BLOECHL correction: -0.033543

 total amount of memory used by VASP MPI-rank0   115838. kBytes
=======================================================================

   base      :      30000. kBytes
   nonlr-proj:       9292. kBytes
   fftplans  :       8558. kBytes
   grid      :      59268. kBytes
   one-center:        311. kBytes
   wavefun   :       8409. kBytes

  
  
 General timing and accounting informations for this job:
 ========================================================
  
                  Total CPU time used (sec):     4472.768
                            User time (sec):     4076.000
                          System time (sec):      396.768
                         Elapsed time (sec):     6757.525
  
                   Maximum memory used (kb):      326224.
                   Average memory used (kb):           0.
  
                          Minor page faults:      3447809
                          Major page faults:            9
                 Voluntary context switches:         1285
