PROCAR lm decomposed
# of k-points:    5         # of bands:   48         # of ions:   10

 k-point     1 :    0.00000000 0.00000000 0.00000000     weight = 0.04000000

band     1 # energy  -17.69503807 # occ.  1.00000000

ion      s     py     pz     px    dxy    dyz    dz2    dxz  x2-y2    tot
    1  0.013  0.000  0.000  0.000  0.000  0.000  0.000  0.000  0.000  0.013
    2  0.013  0.000  0.000  0.000  0.000  0.000  0.000  0.000  0.000  0.013
    3  0.091  0.000  0.001  0.000  0.000  0.000  0.000  0.000  0.000  0.093
    4  0.091  0.000  0.001  0.000  0.000  0.000  0.000  0.000  0.000  0.093
    5  0.068  0.000  0.001  0.001  0.000  0.000  0.000  0.000  0.000  0.070
    6  0.068  0.001  0.001  0.000  0.000  0.000  0.000  0.000  0.000  0.070
    7  0.068  0.001  0.001  0.000  0.000  0.000  0.000  0.000  0.000  0.070
    8  0.068  0.000  0.001  0.001  0.000  0.000  0.000  0.000  0.000  0.070
    9  0.068  0.001  0.001  0.000  0.000  0.000  0.000  0.000  0.000  0.070
   10  0.068  0.001  0.001  0.000  0.000  0.000  0.000  0.000  0.000  0.070
tot    0.617  0.003  0.007  0.003  0.000  0.000  0.000  0.000  0.000  0.631

band     2 # energy  -16.54656892 # occ.  1.00000000

ion      s     py     pz     px    dxy    dyz    dz2    dxz  x2-y2    tot
    1  0.000  0.000  0.007  0.000  0.000  0.000  0.000  0.000  0.000  0.007
    2  0.000  0.000  0.007  0.000  0.000  0.000  0.000  0.000  0.000  0.007
    3  0.049  0.000  0.002  0.000  0.000  0.000  0.000  0.000  0.000  0.051
    4  0.049  0.000  0.002  0.000  0.000  0.000  0.000  0.000  0.000  0.051
    5  0.094  0.000  0.000  0.001  0.000  0.000  0.000  0.000  0.000  0.096
    6  0.094  0.001  0.000  0.000  0.000  0.000  0.000  0.000  0.000  0.096
    7  0.094  0.001  0.000  0.000  0.000  0.000  0.000  0.000  0.000  0.096
    8  0.094  0.000  0.000  0.001  0.000  0.000  0.000  0.000  0.000  0.096
    9  0.094  0.001  0.000  0.000  0.000  0.000  0.000  0.000  0.000  0.096
   10  0.094  0.001  0.000  0.000  0.000  0.000  0.000  0.000  0.000  0.096
tot    0.665  0.003  0.018  0.003  0.000  0.000  0.001  0.000  0.000  0.691

band     3 # energy  -15.41779684 # occ.  1.00000000

ion      s     py     pz     px    dxy    dyz    dz2    dxz  x2-y2    tot
    1  0.000  0.008  0.000  0.001  0.000  0.000  0.000  0.002  0.002  0.012
    2  0.000  0.008  0.000  0.001  0.000  0.000  0.000  0.002  0.002  0.012
    3  0.000  0.000  0.000  0.006  0.000  0.000  0.000  0.000  0.000  0.007
    4  0.000  0.000  0.000  0.006  0.000  0.000  0.000  0.000  0.000  0.007
    5  0.225  0.000  0.001  0.000  0.000  0.000  0.000  0.000  0.000  0.227
    6  0.117  0.000  0.000  0.000  0.000  0.000  0.000  0.000  0.000  0.118
    7  0.018  0.000  0.000  0.000  0.000  0.000  0.000  0.000  0.000  0.018
    8  0.225  0.000  0.001  0.000  0.000  0.000  0.000  0.000  0.000  0.227
    9  0.117  0.000  0.000  0.000  0.000  0.000  0.000  0.000  0.000  0.118
   10  0.018  0.000  0.000  0.000  0.000  0.000  0.000  0.000  0.000  0.018
tot    0.720  0.017  0.003  0.014  0.000  0.000  0.000  0.003  0.004  0.762

band     4 # energy  -15.41776541 # occ.  1.00000000

ion      s     py     pz     px    dxy    dyz    dz2    dxz  x2-y2    tot
    1  0.000  0.001  0.000  0.008  0.002  0.002  0.000  0.000  0.000  0.012
    2  0.000  0.001  0.000  0.008  0.002  0.002  0.000  0.000  0.000  0.012
    3  0.000  0.006  0.000  0.000  0.000  0.000  0.000  0.000  0.000  0.007
    4  0.000  0.006  0.000  0.000  0.000  0.000  0.000  0.000  0.000  0.007
    5  0.015  0.000  0.000  0.000  0.000  0.000  0.000  0.000  0.000  0.015
    6  0.123  0.000  0.000  0.000  0.000  0.000  0.000  0.000  0.000  0.124
    7  0.223  0.000  0.001  0.000  0.000  0.000  0.000  0.000  0.000  0.224
    8  0.015  0.000  0.000  0.000  0.000  0.000  0.000  0.000  0.000  0.015
    9  0.123  0.000  0.000  0.000  0.000  0.000  0.000  0.000  0.000  0.124
   10  0.223  0.000  0.001  0.000  0.000  0.000  0.000  0.000  0.000  0.224
tot    0.720  0.014  0.003  0.017  0.004  0.003  0.000  0.000  0.000  0.762

band     5 # energy  -15.41203756 # occ.  1.00000000

ion      s     py     pz     px    dxy    dyz    dz2    dxz  x2-y2    tot
    1  0.000  0.000  0.000  0.002  0.003  0.008  0.000  0.000  0.000  0.013
    2  0.000  0.000  0.000  0.002  0.003  0.008  0.000  0.000  0.000  0.013
    3  0.000  0.000  0.000  0.010  0.000  0.000  0.000  0.000  0.000  0.010
    4  0.000  0.000  0.000  0.010  0.000  0.000  0.000  0.000  0.000  0.010
    5  0.232  0.000  0.001  0.001  0.000  0.000  0.000  0.000  0.000  0.235
    6  0.082  0.000  0.000  0.000  0.000  0.000  0.000  0.000  0.000  0.083
    7  0.038  0.000  0.000  0.000  0.000  0.000  0.000  0.000  0.000  0.039
    8  0.232  0.000  0.001  0.001  0.000  0.000  0.000  0.000  0.000  0.235
    9  0.082  0.000  0.000  0.000  0.000  0.000  0.000  0.000  0.000  0.083
   10  0.038  0.000  0.000  0.000  0.000  0.000  0.000  0.000  0.000  0.039
tot    0.706  0.001  0.002  0.027  0.006  0.015  0.000  0.000  0.000  0.758

band     6 # energy  -15.41199945 # occ.  1.00000000

ion      s     py     pz     px    dxy    dyz    dz2    dxz  x2-y2    tot
    1  0.000  0.002  0.000  0.000  0.000  0.000  0.000  0.008  0.003  0.013
    2  0.000  0.002  0.000  0.000  0.000  0.000  0.000  0.008  0.003  0.013
    3  0.000  0.010  0.000  0.000  0.000  0.000  0.000  0.000  0.000  0.010
    4  0.000  0.010  0.000  0.000  0.000  0.000  0.000  0.000  0.000  0.010
    5  0.003  0.000  0.000  0.000  0.000  0.000  0.000  0.000  0.000  0.003
    6  0.153  0.001  0.000  0.000  0.000  0.000  0.000  0.000  0.000  0.154
    7  0.197  0.001  0.001  0.000  0.000  0.000  0.000  0.000  0.000  0.199
    8  0.003  0.000  0.000  0.000  0.000  0.000  0.000  0.000  0.000  0.003
    9  0.153  0.001  0.000  0.000  0.000  0.000  0.000  0.000  0.000  0.154
   10  0.197  0.001  0.001  0.000  0.000  0.000  0.000  0.000  0.000  0.199
tot    0.706  0.027  0.002  0.001  0.000  0.000  0.000  0.015  0.006  0.758

band     7 # energy  -13.84895608 # occ.  1.00000000

ion      s     py     pz     px    dxy    dyz    dz2    dxz  x2-y2    tot
    1  0.015  0.000  0.000  0.000  0.000  0.000  0.000  0.000  0.000  0.016
    2  0.015  0.000  0.000  0.000  0.000  0.000  0.000  0.000  0.000  0.016
    3  0.158  0.000  0.013  0.000  0.000  0.000  0.000  0.000  0.000  0.171
    4  0.158  0.000  0.013  0.000  0.000  0.000  0.000  0.000  0.000  0.171
    5  0.040  0.000  0.000  0.006  0.000  0.000  0.000  0.000  0.000  0.046
    6  0.040  0.005  0.000  0.002  0.000  0.000  0.000  0.000  0.000  0.046
    7  0.040  0.005  0.000  0.002  0.000  0.000  0.000  0.000  0.000  0.046
    8  0.040  0.000  0.000  0.006  0.000  0.000  0.000  0.000  0.000  0.046
    9  0.040  0.005  0.000  0.002  0.000  0.000  0.000  0.000  0.000  0.046
   10  0.040  0.005  0.000  0.002  0.000  0.000  0.000  0.000  0.000  0.046
tot    0.586  0.018  0.026  0.018  0.001  0.001  0.001  0.001  0.001  0.653

band     8 # energy  -11.50566647 # occ.  1.00000000

ion      s     py     pz     px    dxy    dyz    dz2    dxz  x2-y2    tot
    1  0.000  0.000  0.008  0.000  0.000  0.000  0.000  0.000  0.000  0.008
    2  0.000  0.000  0.008  0.000  0.000  0.000  0.000  0.000  0.000  0.008
    3  0.198  0.000  0.006  0.000  0.000  0.000  0.000  0.000  0.000  0.204
    4  0.198  0.000  0.006  0.000  0.000  0.000  0.000  0.000  0.000  0.204
    5  0.023  0.000  0.000  0.015  0.000  0.000  0.000  0.000  0.001  0.040
    6  0.023  0.011  0.000  0.004  0.001  0.000  0.000  0.000  0.000  0.040
    7  0.023  0.011  0.000  0.004  0.001  0.000  0.000  0.000  0.000  0.040
    8  0.023  0.000  0.000  0.015  0.000  0.000  0.000  0.000  0.001  0.040
    9  0.023  0.011  0.000  0.004  0.001  0.000  0.000  0.000  0.000  0.040
   10  0.023  0.011  0.000  0.004  0.001  0.000  0.000  0.000  0.000  0.040
tot    0.535  0.045  0.027  0.045  0.003  0.000  0.001  0.000  0.003  0.660

band     9 # energy   -8.46136389 # occ.  1.00000000

ion      s     py     pz     px    dxy    dyz    dz2    dxz  x2-y2    tot
    1  0.000  0.002  0.000  0.002  0.001  0.017  0.000  0.014  0.001  0.036
    2  0.000  0.002  0.000  0.002  0.001  0.017  0.000  0.014  0.001  0.036
    3  0.000  0.031  0.000  0.038  0.000  0.000  0.000  0.000  0.000  0.068
    4  0.000  0.031  0.000  0.038  0.000  0.000  0.000  0.000  0.000  0.068
    5  0.006  0.007  0.002  0.037  0.000  0.000  0.000  0.000  0.000  0.053
    6  0.010  0.054  0.003  0.008  0.000  0.001  0.000  0.000  0.000  0.076
    7  0.000  0.000  0.000  0.018  0.000  0.000  0.000  0.000  0.000  0.020
    8  0.006  0.007  0.002  0.037  0.000  0.000  0.000  0.000  0.000  0.053
    9  0.010  0.054  0.003  0.008  0.000  0.001  0.000  0.000  0.000  0.076
   10  0.000  0.000  0.000  0.018  0.000  0.000  0.000  0.000  0.000  0.020
tot    0.033  0.188  0.010  0.205  0.004  0.035  0.000  0.029  0.003  0.507

band    10 # energy   -8.46134448 # occ.  1.00000000

ion      s     py     pz     px    dxy    dyz    dz2    dxz  x2-y2    tot
    1  0.000  0.002  0.000  0.002  0.001  0.014  0.000  0.017  0.001  0.036
    2  0.000  0.002  0.000  0.002  0.001  0.014  0.000  0.017  0.001  0.036
    3  0.000  0.038  0.000  0.031  0.000  0.000  0.000  0.000  0.000  0.068
    4  0.000  0.038  0.000  0.031  0.000  0.000  0.000  0.000  0.000  0.068
    5  0.005  0.009  0.001  0.030  0.000  0.000  0.000  0.000  0.000  0.046
    6  0.001  0.000  0.000  0.021  0.000  0.000  0.000  0.000  0.000  0.023
    7  0.011  0.054  0.003  0.011  0.000  0.001  0.000  0.000  0.000  0.080
    8  0.005  0.009  0.001  0.030  0.000  0.000  0.000  0.000  0.000  0.046
    9  0.001  0.000  0.000  0.021  0.000  0.000  0.000  0.000  0.000  0.023
   10  0.011  0.054  0.003  0.011  0.000  0.001  0.000  0.000  0.000  0.080
tot    0.033  0.205  0.010  0.188  0.003  0.029  0.000  0.035  0.004  0.507

band    11 # energy   -8.18990675 # occ.  1.00000000

ion      s     py     pz     px    dxy    dyz    dz2    dxz  x2-y2    tot
    1  0.035  0.000  0.000  0.000  0.000  0.000  0.009  0.000  0.000  0.044
    2  0.035  0.000  0.000  0.000  0.000  0.000  0.009  0.000  0.000  0.044
    3  0.004  0.000  0.086  0.000  0.000  0.000  0.000  0.000  0.000  0.089
    4  0.004  0.000  0.086  0.000  0.000  0.000  0.000  0.000  0.000  0.089
    5  0.001  0.000  0.026  0.010  0.000  0.000  0.000  0.000  0.000  0.038
    6  0.001  0.007  0.026  0.002  0.000  0.000  0.000  0.000  0.000  0.038
    7  0.001  0.007  0.026  0.002  0.000  0.000  0.000  0.000  0.000  0.038
    8  0.001  0.000  0.026  0.010  0.000  0.000  0.000  0.000  0.000  0.038
    9  0.001  0.007  0.026  0.002  0.000  0.000  0.000  0.000  0.000  0.038
   10  0.001  0.007  0.026  0.002  0.000  0.000  0.000  0.000  0.000  0.038
tot    0.086  0.029  0.325  0.029  0.001  0.000  0.020  0.000  0.001  0.491

band    12 # energy   -7.82011393 # occ.  1.00000000

ion      s     py     pz     px    dxy    dyz    dz2    dxz  x2-y2    tot
    1  0.000  0.016  0.000  0.002  0.001  0.001  0.000  0.009  0.010  0.038
    2  0.000  0.016  0.000  0.002  0.001  0.001  0.000  0.009  0.010  0.038
    3  0.000  0.005  0.000  0.049  0.000  0.000  0.000  0.000  0.000  0.054
    4  0.000  0.005  0.000  0.049  0.000  0.000  0.000  0.000  0.000  0.054
    5  0.001  0.002  0.004  0.078  0.000  0.000  0.001  0.000  0.000  0.085
    6  0.000  0.055  0.002  0.001  0.000  0.000  0.000  0.000  0.000  0.059
    7  0.000  0.014  0.000  0.007  0.000  0.000  0.000  0.000  0.000  0.022
    8  0.001  0.002  0.004  0.078  0.000  0.000  0.001  0.000  0.000  0.085
    9  0.000  0.055  0.002  0.001  0.000  0.000  0.000  0.000  0.000  0.059
   10  0.000  0.014  0.000  0.007  0.000  0.000  0.000  0.000  0.000  0.022
tot    0.003  0.185  0.013  0.273  0.002  0.003  0.002  0.018  0.021  0.519

band    13 # energy   -7.82009243 # occ.  1.00000000

ion      s     py     pz     px    dxy    dyz    dz2    dxz  x2-y2    tot
    1  0.000  0.002  0.000  0.016  0.010  0.009  0.000  0.001  0.001  0.038
    2  0.000  0.002  0.000  0.016  0.010  0.009  0.000  0.001  0.001  0.038
    3  0.000  0.049  0.000  0.005  0.000  0.000  0.000  0.000  0.000  0.054
    4  0.000  0.049  0.000  0.005  0.000  0.000  0.000  0.000  0.000  0.054
    5  0.000  0.017  0.000  0.008  0.000  0.000  0.000  0.000  0.000  0.026
    6  0.000  0.014  0.002  0.035  0.000  0.000  0.000  0.000  0.000  0.052
    7  0.001  0.055  0.004  0.028  0.000  0.000  0.001  0.000  0.000  0.089
    8  0.000  0.017  0.000  0.008  0.000  0.000  0.000  0.000  0.000  0.026
    9  0.000  0.014  0.002  0.035  0.000  0.000  0.000  0.000  0.000  0.052
   10  0.001  0.055  0.004  0.028  0.000  0.000  0.001  0.000  0.000  0.089
tot    0.003  0.273  0.013  0.185  0.021  0.018  0.002  0.003  0.002  0.519

band    14 # energy   -7.60121809 # occ.  1.00000000

ion      s     py     pz     px    dxy    dyz    dz2    dxz  x2-y2    tot
    1  0.086  0.000  0.000  0.000  0.000  0.000  0.024  0.000  0.000  0.110
    2  0.086  0.000  0.000  0.000  0.000  0.000  0.024  0.000  0.000  0.110
    3  0.000  0.000  0.000  0.000  0.000  0.000  0.000  0.000  0.000  0.000
    4  0.000  0.000  0.000  0.000  0.000  0.000  0.000  0.000  0.000  0.000
    5  0.000  0.059  0.000  0.000  0.000  0.000  0.000  0.000  0.000  0.060
    6  0.000  0.015  0.000  0.044  0.000  0.000  0.000  0.000  0.000  0.060
    7  0.000  0.015  0.000  0.045  0.000  0.000  0.000  0.000  0.000  0.060
    8  0.000  0.059  0.000  0.000  0.000  0.000  0.000  0.000  0.000  0.060
    9  0.000  0.015  0.000  0.044  0.000  0.000  0.000  0.000  0.000  0.060
   10  0.000  0.015  0.000  0.045  0.000  0.000  0.000  0.000  0.000  0.060
tot    0.172  0.178  0.000  0.178  0.001  0.001  0.048  0.001  0.001  0.581

band    15 # energy   -6.28195339 # occ.  1.00000000

ion      s     py     pz     px    dxy    dyz    dz2    dxz  x2-y2    tot
    1  0.000  0.000  0.052  0.000  0.000  0.000  0.000  0.000  0.000  0.052
    2  0.000  0.000  0.052  0.000  0.000  0.000  0.000  0.000  0.000  0.052
    3  0.000  0.000  0.000  0.000  0.000  0.000  0.000  0.000  0.000  0.000
    4  0.000  0.000  0.000  0.000  0.000  0.000  0.000  0.000  0.000  0.000
    5  0.000  0.074  0.000  0.000  0.000  0.000  0.000  0.000  0.000  0.074
    6  0.000  0.018  0.000  0.056  0.000  0.000  0.000  0.000  0.000  0.074
    7  0.000  0.019  0.000  0.055  0.000  0.000  0.000  0.000  0.000  0.074
    8  0.000  0.074  0.000  0.000  0.000  0.000  0.000  0.000  0.000  0.074
    9  0.000  0.018  0.000  0.056  0.000  0.000  0.000  0.000  0.000  0.074
   10  0.000  0.019  0.000  0.055  0.000  0.000  0.000  0.000  0.000  0.074
tot    0.000  0.222  0.104  0.222  0.001  0.000  0.000  0.000  0.001  0.550

band    16 # energy   -5.76336416 # occ.  1.00000000

ion      s     py     pz     px    dxy    dyz    dz2    dxz  x2-y2    tot
    1  0.010  0.000  0.000  0.000  0.000  0.000  0.096  0.000  0.000  0.106
    2  0.010  0.000  0.000  0.000  0.000  0.000  0.096  0.000  0.000  0.106
    3  0.000  0.000  0.081  0.000  0.000  0.000  0.000  0.000  0.000  0.081
    4  0.000  0.000  0.081  0.000  0.000  0.000  0.000  0.000  0.000  0.081
    5  0.001  0.000  0.024  0.010  0.000  0.000  0.000  0.000  0.000  0.036
    6  0.001  0.008  0.024  0.002  0.000  0.000  0.000  0.000  0.000  0.036
    7  0.001  0.008  0.024  0.003  0.000  0.000  0.000  0.000  0.000  0.036
    8  0.001  0.000  0.024  0.010  0.000  0.000  0.000  0.000  0.000  0.036
    9  0.001  0.008  0.024  0.002  0.000  0.000  0.000  0.000  0.000  0.036
   10  0.001  0.008  0.024  0.003  0.000  0.000  0.000  0.000  0.000  0.036
tot    0.027  0.031  0.305  0.031  0.001  0.001  0.192  0.001  0.001  0.592

band    17 # energy   -5.61782632 # occ.  1.00000000

ion      s     py     pz     px    dxy    dyz    dz2    dxz  x2-y2    tot
    1  0.000  0.001  0.000  0.000  0.000  0.000  0.000  0.103  0.123  0.227
    2  0.000  0.001  0.000  0.000  0.000  0.000  0.000  0.103  0.123  0.227
    3  0.000  0.000  0.000  0.000  0.000  0.000  0.000  0.000  0.000  0.000
    4  0.000  0.000  0.000  0.000  0.000  0.000  0.000  0.000  0.000  0.000
    5  0.002  0.000  0.040  0.004  0.000  0.000  0.000  0.000  0.000  0.046
    6  0.000  0.005  0.011  0.037  0.000  0.000  0.000  0.001  0.000  0.055
    7  0.000  0.006  0.009  0.038  0.000  0.000  0.000  0.001  0.000  0.055
    8  0.002  0.000  0.040  0.004  0.000  0.000  0.000  0.000  0.000  0.046
    9  0.000  0.005  0.011  0.037  0.000  0.000  0.000  0.001  0.000  0.055
   10  0.000  0.006  0.009  0.038  0.000  0.000  0.000  0.001  0.000  0.055
tot    0.005  0.025  0.120  0.158  0.000  0.000  0.001  0.210  0.246  0.765

band    18 # energy   -5.61781514 # occ.  1.00000000

ion      s     py     pz     px    dxy    dyz    dz2    dxz  x2-y2    tot
    1  0.000  0.000  0.000  0.001  0.123  0.103  0.000  0.000  0.000  0.227
    2  0.000  0.000  0.000  0.001  0.123  0.103  0.000  0.000  0.000  0.227
    3  0.000  0.000  0.000  0.000  0.000  0.000  0.000  0.000  0.000  0.000
    4  0.000  0.000  0.000  0.000  0.000  0.000  0.000  0.000  0.000  0.000
    5  0.000  0.056  0.000  0.000  0.000  0.001  0.000  0.000  0.000  0.058
    6  0.001  0.012  0.029  0.006  0.000  0.001  0.000  0.000  0.000  0.049
    7  0.001  0.011  0.031  0.005  0.000  0.001  0.000  0.000  0.000  0.049
    8  0.000  0.056  0.000  0.000  0.000  0.001  0.000  0.000  0.000  0.058
    9  0.001  0.012  0.029  0.006  0.000  0.001  0.000  0.000  0.000  0.049
   10  0.001  0.011  0.031  0.005  0.000  0.001  0.000  0.000  0.000  0.049
tot    0.005  0.158  0.120  0.025  0.246  0.210  0.001  0.000  0.000  0.765

band    19 # energy   -5.28189110 # occ.  1.00000000

ion      s     py     pz     px    dxy    dyz    dz2    dxz  x2-y2    tot
    1  0.000  0.000  0.000  0.001  0.077  0.083  0.000  0.009  0.008  0.179
    2  0.000  0.000  0.000  0.001  0.077  0.083  0.000  0.009  0.008  0.179
    3  0.000  0.000  0.000  0.001  0.000  0.000  0.000  0.000  0.000  0.001
    4  0.000  0.000  0.000  0.001  0.000  0.000  0.000  0.000  0.000  0.001
    5  0.005  0.001  0.090  0.003  0.000  0.000  0.000  0.000  0.000  0.098
    6  0.003  0.004  0.056  0.001  0.000  0.000  0.000  0.000  0.000  0.064
    7  0.000  0.003  0.004  0.005  0.000  0.000  0.000  0.000  0.000  0.012
    8  0.005  0.001  0.090  0.003  0.000  0.000  0.000  0.000  0.000  0.098
    9  0.003  0.004  0.056  0.001  0.000  0.000  0.000  0.000  0.000  0.064
   10  0.000  0.003  0.004  0.005  0.000  0.000  0.000  0.000  0.000  0.012
tot    0.016  0.016  0.299  0.020  0.155  0.166  0.000  0.019  0.017  0.708

band    20 # energy   -5.28187541 # occ.  1.00000000

ion      s     py     pz     px    dxy    dyz    dz2    dxz  x2-y2    tot
    1  0.000  0.001  0.000  0.000  0.008  0.009  0.000  0.083  0.077  0.179
    2  0.000  0.001  0.000  0.000  0.008  0.009  0.000  0.083  0.077  0.179
    3  0.000  0.001  0.000  0.000  0.000  0.000  0.000  0.000  0.000  0.001
    4  0.000  0.001  0.000  0.000  0.000  0.000  0.000  0.000  0.000  0.001
    5  0.001  0.007  0.010  0.000  0.000  0.000  0.000  0.000  0.000  0.018
    6  0.002  0.000  0.044  0.006  0.000  0.000  0.000  0.000  0.000  0.053
    7  0.005  0.001  0.096  0.002  0.000  0.000  0.000  0.000  0.000  0.104
    8  0.001  0.007  0.010  0.000  0.000  0.000  0.000  0.000  0.000  0.018
    9  0.002  0.000  0.044  0.006  0.000  0.000  0.000  0.000  0.000  0.053
   10  0.005  0.001  0.096  0.002  0.000  0.000  0.000  0.000  0.000  0.104
tot    0.016  0.020  0.299  0.016  0.017  0.019  0.000  0.166  0.155  0.708

band    21 # energy   -4.76432849 # occ.  1.00000000

ion      s     py     pz     px    dxy    dyz    dz2    dxz  x2-y2    tot
    1  0.000  0.018  0.000  0.000  0.000  0.000  0.000  0.042  0.000  0.061
    2  0.000  0.018  0.000  0.000  0.000  0.000  0.000  0.042  0.000  0.061
    3  0.000  0.000  0.000  0.022  0.000  0.000  0.000  0.000  0.000  0.022
    4  0.000  0.000  0.000  0.022  0.000  0.000  0.000  0.000  0.000  0.022
    5  0.007  0.000  0.096  0.022  0.000  0.000  0.000  0.000  0.001  0.126
    6  0.002  0.000  0.030  0.024  0.000  0.000  0.000  0.000  0.000  0.057
    7  0.001  0.000  0.019  0.024  0.000  0.000  0.000  0.000  0.000  0.045
    8  0.007  0.000  0.096  0.022  0.000  0.000  0.000  0.000  0.001  0.126
    9  0.002  0.000  0.030  0.024  0.000  0.000  0.000  0.000  0.000  0.057
   10  0.001  0.000  0.019  0.024  0.000  0.000  0.000  0.000  0.000  0.045
tot    0.020  0.037  0.290  0.182  0.000  0.001  0.000  0.086  0.004  0.621

band    22 # energy   -4.76431459 # occ.  1.00000000

ion      s     py     pz     px    dxy    dyz    dz2    dxz  x2-y2    tot
    1  0.000  0.000  0.000  0.018  0.000  0.042  0.000  0.000  0.000  0.061
    2  0.000  0.000  0.000  0.018  0.000  0.042  0.000  0.000  0.000  0.061
    3  0.000  0.022  0.000  0.000  0.000  0.000  0.000  0.000  0.000  0.022
    4  0.000  0.022  0.000  0.000  0.000  0.000  0.000  0.000  0.000  0.022
    5  0.000  0.024  0.000  0.000  0.000  0.001  0.000  0.000  0.000  0.026
    6  0.005  0.022  0.067  0.000  0.001  0.000  0.000  0.000  0.000  0.095
    7  0.005  0.022  0.078  0.000  0.001  0.000  0.000  0.000  0.000  0.107
    8  0.000  0.024  0.000  0.000  0.000  0.001  0.000  0.000  0.000  0.026
    9  0.005  0.022  0.067  0.000  0.001  0.000  0.000  0.000  0.000  0.095
   10  0.005  0.022  0.078  0.000  0.001  0.000  0.000  0.000  0.000  0.107
tot    0.020  0.182  0.290  0.037  0.004  0.086  0.000  0.001  0.000  0.621

band    23 # energy   -4.61016718 # occ.  1.00000000

ion      s     py     pz     px    dxy    dyz    dz2    dxz  x2-y2    tot
    1  0.000  0.000  0.012  0.000  0.000  0.000  0.000  0.000  0.000  0.012
    2  0.000  0.000  0.012  0.000  0.000  0.000  0.000  0.000  0.000  0.012
    3  0.002  0.000  0.014  0.000  0.000  0.000  0.000  0.000  0.000  0.016
    4  0.002  0.000  0.014  0.000  0.000  0.000  0.000  0.000  0.000  0.016
    5  0.000  0.000  0.074  0.000  0.000  0.000  0.000  0.000  0.000  0.075
    6  0.000  0.000  0.074  0.000  0.000  0.000  0.000  0.000  0.000  0.075
    7  0.000  0.000  0.074  0.000  0.000  0.000  0.000  0.000  0.000  0.075
    8  0.000  0.000  0.074  0.000  0.000  0.000  0.000  0.000  0.000  0.075
    9  0.000  0.000  0.074  0.000  0.000  0.000  0.000  0.000  0.000  0.075
   10  0.000  0.000  0.074  0.000  0.000  0.000  0.000  0.000  0.000  0.075
tot    0.005  0.000  0.497  0.000  0.000  0.000  0.000  0.000  0.000  0.503

band    24 # energy   -3.84110546 # occ.  1.00000000

ion      s     py     pz     px    dxy    dyz    dz2    dxz  x2-y2    tot
    1  0.000  0.002  0.000  0.008  0.126  0.072  0.000  0.019  0.034  0.261
    2  0.000  0.002  0.000  0.008  0.126  0.072  0.000  0.019  0.034  0.261
    3  0.000  0.007  0.000  0.026  0.000  0.000  0.000  0.000  0.000  0.033
    4  0.000  0.007  0.000  0.026  0.000  0.000  0.000  0.000  0.000  0.033
    5  0.003  0.009  0.000  0.012  0.000  0.000  0.001  0.000  0.002  0.027
    6  0.000  0.010  0.000  0.034  0.000  0.000  0.000  0.000  0.000  0.045
    7  0.003  0.001  0.000  0.023  0.001  0.000  0.001  0.000  0.000  0.029
    8  0.003  0.009  0.000  0.012  0.000  0.000  0.001  0.000  0.002  0.027
    9  0.000  0.010  0.000  0.034  0.000  0.000  0.000  0.000  0.000  0.045
   10  0.003  0.001  0.000  0.023  0.001  0.000  0.001  0.000  0.000  0.029
tot    0.012  0.058  0.000  0.208  0.254  0.145  0.003  0.038  0.071  0.790

band    25 # energy   -3.84107965 # occ.  1.00000000

ion      s     py     pz     px    dxy    dyz    dz2    dxz  x2-y2    tot
    1  0.000  0.008  0.000  0.002  0.034  0.019  0.000  0.072  0.126  0.261
    2  0.000  0.008  0.000  0.002  0.034  0.019  0.000  0.072  0.126  0.261
    3  0.000  0.026  0.000  0.007  0.000  0.000  0.000  0.000  0.000  0.033
    4  0.000  0.026  0.000  0.007  0.000  0.000  0.000  0.000  0.000  0.033
    5  0.001  0.035  0.000  0.003  0.000  0.000  0.000  0.000  0.000  0.040
    6  0.004  0.013  0.000  0.003  0.002  0.000  0.001  0.000  0.001  0.023
    7  0.001  0.022  0.000  0.014  0.000  0.000  0.000  0.000  0.000  0.038
    8  0.001  0.035  0.000  0.003  0.000  0.000  0.000  0.000  0.000  0.040
    9  0.004  0.013  0.000  0.003  0.002  0.000  0.001  0.000  0.001  0.023
   10  0.001  0.022  0.000  0.014  0.000  0.000  0.000  0.000  0.000  0.038
tot    0.012  0.208  0.000  0.058  0.071  0.038  0.003  0.145  0.254  0.790

band    26 # energy   -3.74768433 # occ.  1.00000000

ion      s     py     pz     px    dxy    dyz    dz2    dxz  x2-y2    tot
    1  0.000  0.002  0.000  0.003  0.126  0.108  0.000  0.075  0.087  0.401
    2  0.000  0.002  0.000  0.003  0.126  0.108  0.000  0.075  0.087  0.401
    3  0.000  0.004  0.000  0.002  0.000  0.000  0.000  0.000  0.000  0.006
    4  0.000  0.004  0.000  0.002  0.000  0.000  0.000  0.000  0.000  0.006
    5  0.000  0.001  0.005  0.000  0.001  0.000  0.000  0.000  0.000  0.008
    6  0.000  0.000  0.012  0.000  0.001  0.000  0.000  0.000  0.000  0.013
    7  0.000  0.000  0.001  0.001  0.001  0.000  0.000  0.000  0.001  0.004
    8  0.000  0.001  0.005  0.000  0.001  0.000  0.000  0.000  0.000  0.008
    9  0.000  0.000  0.012  0.000  0.001  0.000  0.000  0.000  0.000  0.013
   10  0.000  0.000  0.001  0.001  0.001  0.000  0.000  0.000  0.001  0.004
tot    0.000  0.014  0.037  0.013  0.257  0.217  0.000  0.150  0.178  0.865

band    27 # energy   -3.74767839 # occ.  1.00000000

ion      s     py     pz     px    dxy    dyz    dz2    dxz  x2-y2    tot
    1  0.000  0.003  0.000  0.002  0.087  0.075  0.000  0.108  0.126  0.401
    2  0.000  0.003  0.000  0.002  0.087  0.075  0.000  0.108  0.126  0.401
    3  0.000  0.002  0.000  0.004  0.000  0.000  0.000  0.000  0.000  0.006
    4  0.000  0.002  0.000  0.004  0.000  0.000  0.000  0.000  0.000  0.006
    5  0.000  0.001  0.007  0.000  0.001  0.000  0.000  0.000  0.001  0.009
    6  0.000  0.000  0.000  0.001  0.001  0.000  0.000  0.000  0.001  0.004
    7  0.000  0.000  0.011  0.000  0.000  0.000  0.000  0.000  0.001  0.013
    8  0.000  0.001  0.007  0.000  0.001  0.000  0.000  0.000  0.001  0.009
    9  0.000  0.000  0.000  0.001  0.001  0.000  0.000  0.000  0.001  0.004
   10  0.000  0.000  0.011  0.000  0.000  0.000  0.000  0.000  0.001  0.013
tot    0.000  0.013  0.037  0.014  0.178  0.150  0.000  0.217  0.257  0.865

band    28 # energy   -3.59004563 # occ.  1.00000000

ion      s     py     pz     px    dxy    dyz    dz2    dxz  x2-y2    tot
    1  0.013  0.000  0.000  0.000  0.000  0.000  0.436  0.000  0.000  0.449
    2  0.013  0.000  0.000  0.000  0.000  0.000  0.436  0.000  0.000  0.449
    3  0.000  0.000  0.000  0.000  0.000  0.000  0.000  0.000  0.000  0.000
    4  0.000  0.000  0.000  0.000  0.000  0.000  0.000  0.000  0.000  0.000
    5  0.000  0.003  0.000  0.000  0.000  0.001  0.000  0.000  0.000  0.003
    6  0.000  0.001  0.000  0.002  0.000  0.000  0.000  0.000  0.000  0.003
    7  0.000  0.001  0.000  0.002  0.000  0.000  0.000  0.000  0.000  0.003
    8  0.000  0.003  0.000  0.000  0.000  0.001  0.000  0.000  0.000  0.003
    9  0.000  0.001  0.000  0.002  0.000  0.000  0.000  0.000  0.000  0.003
   10  0.000  0.001  0.000  0.002  0.000  0.000  0.000  0.000  0.000  0.003
tot    0.027  0.008  0.000  0.008  0.000  0.002  0.872  0.002  0.000  0.919

band    29 # energy   -3.58231866 # occ.  1.00000000

ion      s     py     pz     px    dxy    dyz    dz2    dxz  x2-y2    tot
    1  0.019  0.000  0.000  0.000  0.000  0.000  0.312  0.000  0.000  0.331
    2  0.019  0.000  0.000  0.000  0.000  0.000  0.312  0.000  0.000  0.331
    3  0.005  0.000  0.023  0.000  0.000  0.000  0.000  0.000  0.000  0.028
    4  0.005  0.000  0.023  0.000  0.000  0.000  0.000  0.000  0.000  0.028
    5  0.003  0.000  0.013  0.001  0.000  0.000  0.001  0.000  0.000  0.018
    6  0.003  0.000  0.013  0.000  0.000  0.000  0.001  0.000  0.000  0.018
    7  0.003  0.000  0.013  0.000  0.000  0.000  0.001  0.000  0.000  0.018
    8  0.003  0.000  0.013  0.001  0.000  0.000  0.001  0.000  0.000  0.018
    9  0.003  0.000  0.013  0.000  0.000  0.000  0.001  0.000  0.000  0.018
   10  0.003  0.000  0.013  0.000  0.000  0.000  0.001  0.000  0.000  0.018
tot    0.068  0.002  0.124  0.002  0.000  0.000  0.630  0.000  0.000  0.828

band    30 # energy   -3.36007706 # occ.  1.00000000

ion      s     py     pz     px    dxy    dyz    dz2    dxz  x2-y2    tot
    1  0.000  0.000  0.000  0.019  0.140  0.033  0.000  0.000  0.001  0.192
    2  0.000  0.000  0.000  0.019  0.140  0.033  0.000  0.000  0.001  0.192
    3  0.000  0.000  0.000  0.000  0.000  0.000  0.000  0.000  0.000  0.000
    4  0.000  0.000  0.000  0.000  0.000  0.000  0.000  0.000  0.000  0.000
    5  0.000  0.000  0.015  0.017  0.000  0.000  0.000  0.000  0.000  0.033
    6  0.000  0.008  0.003  0.072  0.000  0.000  0.000  0.000  0.000  0.083
    7  0.000  0.004  0.005  0.067  0.000  0.000  0.000  0.000  0.000  0.076
    8  0.000  0.000  0.015  0.017  0.000  0.000  0.000  0.000  0.000  0.033
    9  0.000  0.008  0.003  0.072  0.000  0.000  0.000  0.000  0.000  0.083
   10  0.000  0.004  0.005  0.067  0.000  0.000  0.000  0.000  0.000  0.076
tot    0.000  0.025  0.045  0.352  0.279  0.066  0.000  0.001  0.002  0.770

band    31 # energy   -3.36006127 # occ.  1.00000000

ion      s     py     pz     px    dxy    dyz    dz2    dxz  x2-y2    tot
    1  0.000  0.019  0.000  0.000  0.001  0.000  0.000  0.033  0.140  0.192
    2  0.000  0.019  0.000  0.000  0.001  0.000  0.000  0.033  0.140  0.192
    3  0.000  0.000  0.000  0.000  0.000  0.000  0.000  0.000  0.000  0.000
    4  0.000  0.000  0.000  0.000  0.000  0.000  0.000  0.000  0.000  0.000
    5  0.000  0.095  0.000  0.000  0.000  0.000  0.000  0.000  0.000  0.095
    6  0.000  0.029  0.012  0.004  0.000  0.000  0.000  0.000  0.000  0.045
    7  0.000  0.033  0.010  0.009  0.000  0.000  0.000  0.000  0.000  0.052
    8  0.000  0.095  0.000  0.000  0.000  0.000  0.000  0.000  0.000  0.095
    9  0.000  0.029  0.012  0.004  0.000  0.000  0.000  0.000  0.000  0.045