<?xml version="1.0" encoding="ISO-8859-1"?>
<modeling>
 <generator>
  <i name="program" type="string">vasp </i>
  <i name="version" type="string">5.4.4.18Apr17-6-g9f103f2a35  </i>
  <i name="subversion" type="string">(build May  1 2020 15:48:39) complex            parallel </i>
  <i name="platform" type="string">LinuxGNU </i>
  <i name="date" type="string">2020 06 16 </i>
  <i name="time" type="string">08:05:08 </i>
 </generator>
 <incar>
  <i type="int" name="ISTART">     1</i>
  <i type="string" name="PREC">accurate</i>
  <i type="string" name="ALGO"> Normal</i>
  <i type="int" name="ISPIN">     2</i>
  <i name="AMIN">      0.01000000</i>
  <i type="int" name="NELM">   400</i>
  <i type="int" name="IBRION">     2</i>
  <i name="EDIFF">      0.00010000</i>
  <i type="int" name="NSW">    99</i>
  <i type="int" name="ISIF">     3</i>
  <i name="ENCUT">    520.00000000</i>
  <v name="MAGMOM">      5.00000000      5.00000000      0.60000000      0.60000000      0.60000000      0.60000000      0.60000000      0.60000000      0.60000000      0.60000000</v>
  <i type="string" name="LREAL"> Auto</i>
  <i type="int" name="ISMEAR">    -5</i>
  <i name="SIGMA">      0.05000000</i>
  <i type="logical" name="LWAVE"> F  </i>
  <i type="int" name="LORBIT">    11</i>
  <v type="int" name="KPOINT_BSE">    -1     0     0     0</v>
  <i type="int" name="NELM">   400</i>
  <i type="string" name="GGA"> Bo</i>
  <i name="PARAM1">      0.18333333</i>
  <i name="PARAM2">      0.22000000</i>
  <i type="logical" name="LUSE_VDW"> T  </i>
  <i name="AGGAC">      0.00000000</i>
 </incar>
 <structure name="primitive_cell" >
  <crystal>
   <varray name="basis" >
    <v>       6.90777700      -0.00000000       0.00000000 </v>
    <v>       3.45388800       5.98231000       0.00000000 </v>
    <v>       0.00000000       0.00000000      23.44458800 </v>
   </varray>
   <i name="volume">    968.83501932 </i>
   <varray name="rec_basis" >
    <v>       0.14476437      -0.08357974       0.00000000 </v>
    <v>       0.00000000       0.16715951      -0.00000000 </v>
    <v>      -0.00000000       0.00000000       0.04265377 </v>
   </varray>
  </crystal>
  <varray name="positions" >
   <v>       0.33333300       0.33333300       0.49992500 </v>
   <v>       0.00042000       0.37322400      -0.42624800 </v>
   <v>      -0.37364300       0.00042000      -0.42624800 </v>
   <v>       0.37322400      -0.37364300      -0.42624800 </v>
   <v>       0.37364300      -0.00042000       0.42624800 </v>
   <v>      -0.37322400       0.37364300       0.42624800 </v>
   <v>      -0.00042000      -0.37322400       0.42624800 </v>
   <v>      -0.33333300      -0.33333300      -0.49992500 </v>
   <v>       0.00000000       0.00000000       0.44821600 </v>
   <v>       0.00000000       0.00000000      -0.44821600 </v>
  </varray>
 </structure>
 <varray name="primitive_index" >
  <v type="int" >        1 </v>
  <v type="int" >        6 </v>
  <v type="int" >        5 </v>
  <v type="int" >        7 </v>
  <v type="int" >        8 </v>
  <v type="int" >       10 </v>
  <v type="int" >        9 </v>
  <v type="int" >        2 </v>
  <v type="int" >        3 </v>
  <v type="int" >        4 </v>
 </varray>
 <kpoints>
  <generation param="Gamma">
   <v type="int" name="divisions">       5        5        1 </v>
   <v name="usershift">      0.00000000       0.00000000       0.00000000 </v>
   <v name="genvec1">      0.20000000       0.00000000       0.00000000 </v>
   <v name="genvec2">      0.00000000       0.20000000       0.00000000 </v>
   <v name="genvec3">      0.00000000       0.00000000       1.00000000 </v>
   <v name="shift">      0.00000000       0.00000000       0.00000000 </v>
  </generation>
  <varray name="kpointlist" >
   <v>       0.00000000       0.00000000       0.00000000 </v>
   <v>       0.20000000       0.00000000       0.00000000 </v>
   <v>       0.40000000       0.00000000       0.00000000 </v>
   <v>       0.40000000       0.20000000       0.00000000 </v>
   <v>      -0.40000000       0.20000000       0.00000000 </v>
  </varray>
  <varray name="weights" >
   <v>       0.04000000 </v>
   <v>       0.24000000 </v>
   <v>       0.24000000 </v>
   <v>       0.24000000 </v>
   <v>       0.24000000 </v>
  </varray>
  <varray name="tetrahedronlist"  type="int" >
   <v type="int" >        6        1        1        2        2 </v>
   <v type="int" >       12        1        2        2        2 </v>
   <v type="int" >       12        2        2        3        4 </v>
   <v type="int" >       12        2        2        2        4 </v>
   <v type="int" >       12        2        3        3        4 </v>
   <v type="int" >       12        2        3        4        4 </v>
   <v type="int" >        6        2        2        4        4 </v>
   <v type="int" >       12        3        3        3        5 </v>
   <v type="int" >       12        3        3        4        5 </v>
   <v type="int" >       12        3        4        4        5 </v>
   <v type="int" >        6        3        3        5        5 </v>
   <v type="int" >       12        3        4        5        5 </v>
   <v type="int" >        6        4        4        5        5 </v>
   <v type="int" >       12        4        5        5        5 </v>
   <v type="int" >        6        5        5        5        5 </v>
  </varray>
  <i name="volumeweight">      0.00666667 </i>
 </kpoints>
 <parameters>
  <separator name="general" >
   <i type="string" name="SYSTEM">unknown system</i>
   <i type="logical" name="LCOMPAT"> F  </i>
  </separator>
  <separator name="electronic" >
   <i type="string" name="PREC">accura</i>
   <i name="ENMAX">    520.00000000</i>
   <i name="ENAUG">    446.84200000</i>
   <i name="EDIFF">      0.00010000</i>
   <i type="int" name="IALGO">    38</i>
   <i type="int" name="IWAVPR">    11</i>
   <i type="int" name="NBANDS">    48</i>
   <i name="NELECT">     58.00000000</i>
   <i type="int" name="TURBO">     0</i>
   <i type="int" name="IRESTART">     0</i>
   <i type="int" name="NREBOOT">     0</i>
   <i type="int" name="NMIN">     0</i>
   <i name="EREF">      0.00000000</i>
   <separator name="electronic smearing" >
    <i type="int" name="ISMEAR">    -5</i>
    <i name="SIGMA">      0.05000000</i>
    <i name="KSPACING">      0.50000000</i>
    <i type="logical" name="KGAMMA"> T  </i>
   </separator>
   <separator name="electronic projectors" >
    <i type="logical" name="LREAL"> T  </i>
    <v name="ROPT">     -0.00025000     -0.00025000     -0.00025000</v>
    <i type="int" name="LMAXPAW">  -100</i>
    <i type="int" name="LMAXMIX">     2</i>
    <i type="logical" name="NLSPLINE"> F  </i>
   </separator>
   <separator name="electronic startup" >
    <i type="int" name="ISTART">     0</i>
    <i type="int" name="ICHARG">     2</i>
    <i type="int" name="INIWAV">     1</i>
   </separator>
   <separator name="electronic spin" >
    <i type="int" name="ISPIN">     2</i>
    <i type="logical" name="LNONCOLLINEAR"> F  </i>
    <v name="MAGMOM">      5.00000000      5.00000000      0.60000000      0.60000000      0.60000000      0.60000000      0.60000000      0.60000000      0.60000000      0.60000000</v>
    <i name="NUPDOWN">     -1.00000000</i>
    <i type="logical" name="LSORBIT"> F  </i>
    <v name="SAXIS">      0.00000000      0.00000000      1.00000000</v>
    <i type="logical" name="LSPIRAL"> F  </i>
    <v name="QSPIRAL">      0.00000000      0.00000000      0.00000000</v>
    <i type="logical" name="LZEROZ"> F  </i>
   </separator>
   <separator name="electronic exchange-correlation" >
    <i type="logical" name="LASPH"> F  </i>
    <i type="logical" name="LMETAGGA"> F  </i>
   </separator>
   <separator name="electronic convergence" >
    <i type="int" name="NELM">   400</i>
    <i type="int" name="NELMDL">     0</i>
    <i type="int" name="NELMIN">     2</i>
    <i name="ENINI">    520.00000000</i>
    <separator name="electronic convergence detail" >
     <i type="logical" name="LDIAG"> T  </i>
     <i type="logical" name="LSUBROT"> F  </i>
     <i name="WEIMIN">      0.00100000</i>
     <i name="EBREAK">      0.00000052</i>
     <i name="DEPER">      0.30000000</i>
     <i type="int" name="NRMM">     4</i>
     <i name="TIME">      0.40000000</i>
    </separator>
   </separator>
   <separator name="electronic mixer" >
    <i name="AMIX">      0.40000000</i>
    <i name="BMIX">      1.00000000</i>
    <i name="AMIN">      0.01000000</i>
    <i name="AMIX_MAG">      1.60000000</i>
    <i name="BMIX_MAG">      1.00000000</i>
    <separator name="electronic mixer details" >
     <i type="int" name="IMIX">     4</i>
     <i type="logical" name="MIXFIRST"> F  </i>
     <i type="int" name="MAXMIX">   -45</i>
     <i name="WC">    100.00000000</i>
     <i type="int" name="INIMIX">     1</i>
     <i type="int" name="MIXPRE">     1</i>
     <i type="int" name="MREMOVE">     5</i>
    </separator>
   </separator>
   <separator name="electronic dipolcorrection" >
    <i type="logical" name="LDIPOL"> F  </i>
    <i type="logical" name="LMONO"> F  </i>
    <i type="int" name="IDIPOL">     0</i>
    <i name="EPSILON">      1.00000000</i>
    <v name="DIPOL">   -100.00000000   -100.00000000   -100.00000000</v>
    <i name="EFIELD">      0.00000000</i>
   </separator>
  </separator>
  <separator name="grids" >
   <i type="int" name="NGX">    54</i>
   <i type="int" name="NGY">    54</i>
   <i type="int" name="NGZ">   180</i>
   <i type="int" name="NGXF">   108</i>
   <i type="int" name="NGYF">   108</i>
   <i type="int" name="NGZF">   360</i>
   <i type="logical" name="ADDGRID"> F  </i>
  </separator>
  <separator name="ionic" >
   <i type="int" name="NSW">    99</i>
   <i type="int" name="IBRION">     2</i>
   <i type="int" name="MDALGO">     0</i>
   <i type="int" name="ISIF">     3</i>
   <i name="PSTRESS">      0.00000000</i>
   <i name="EDIFFG">      0.00100000</i>
   <i type="int" name="NFREE">     1</i>
   <i name="POTIM">      0.50000000</i>
   <i name="SMASS">     -3.00000000</i>
   <i name="SCALEE">      1.00000000</i>
  </separator>
  <separator name="ionic md" >
   <i name="TEBEG">      0.00010000</i>
   <i name="TEEND">      0.00010000</i>
   <i type="int" name="NBLOCK">     1</i>
   <i type="int" name="KBLOCK">    99</i>
   <i type="int" name="NPACO">   256</i>
   <i name="APACO">     16.00000000</i>
  </separator>
  <separator name="symmetry" >
   <i type="int" name="ISYM">     2</i>
   <i name="SYMPREC">      0.00001000</i>
  </separator>
  <separator name="dos" >
   <i type="int" name="LORBIT">    11</i>
   <v name="RWIGS">     -1.00000000     -1.00000000     -1.00000000</v>
   <i type="int" name="NEDOS">   301</i>
   <i name="EMIN">     10.00000000</i>
   <i name="EMAX">    -10.00000000</i>
   <i name="EFERMI">      0.00000000</i>
  </separator>
  <separator name="writing" >
   <i type="int" name="NWRITE">     2</i>
   <i type="logical" name="LWAVE"> F  </i>
   <i type="logical" name="LDOWNSAMPLE"> F  </i>
   <i type="logical" name="LCHARG"> T  </i>
   <i type="logical" name="LPARD"> F  </i>
   <i type="logical" name="LVTOT"> F  </i>
   <i type="logical" name="LVHAR"> F  </i>
   <i type="logical" name="LELF"> F  </i>
   <i type="logical" name="LOPTICS"> F  </i>
   <v name="STM">      0.00000000      0.00000000      0.00000000      0.00000000      0.00000000      0.00000000      0.00000000</v>
  </separator>
  <separator name="performance" >
   <i type="int" name="NPAR">    24</i>
   <i type="int" name="NSIM">     4</i>
   <i type="int" name="NBLK">    -1</i>
   <i type="logical" name="LPLANE"> T  </i>
   <i type="logical" name="LSCALAPACK"> T  </i>
   <i type="logical" name="LSCAAWARE"> F  </i>
   <i type="logical" name="LSCALU"> F  </i>
   <i type="logical" name="LASYNC"> F  </i>
   <i type="logical" name="LORBITALREAL"> F  </i>
  </separator>
  <separator name="miscellaneous" >
   <i type="int" name="IDIOT">     3</i>
   <i type="int" name="ISPECIAL">     0</i>
   <i type="logical" name="LMUSIC"> F  </i>
   <v name="POMASS">     51.99600000     30.97400000     78.96000000</v>
   <v name="DARWINR">      0.00000000      0.00000000      0.00000000</v>
   <v name="DARWINV">      1.00000000      1.00000000      1.00000000</v>
   <i type="logical" name="LCORR"> T  </i>
  </separator>
  <i type="logical" name="GGA_COMPAT"> T  </i>
  <i type="logical" name="LBERRY"> F  </i>
  <i type="int" name="ICORELEVEL">     0</i>
  <i type="logical" name="LDAU"> F  </i>
  <i type="int" name="I_CONSTRAINED_M">     0</i>
  <separator name="electronic exchange-correlation" >
   <i type="string" name="GGA">BO</i>
   <i type="int" name="VOSKOWN">     0</i>
   <i type="logical" name="LHFCALC"> F  </i>
   <i type="string" name="PRECFOCK"></i>
   <i type="logical" name="LSYMGRAD"> F  </i>
   <i type="logical" name="LHFONE"> F  </i>
   <i type="logical" name="LRHFCALC"> F  </i>
   <i type="logical" name="LTHOMAS"> F  </i>
   <i type="logical" name="LMODELHF"> F  </i>
   <i name="ENCUT4O">     -1.00000000</i>
   <i type="int" name="EXXOEP">     0</i>
   <i type="int" name="FOURORBIT">     0</i>
   <i name="AEXX">      0.00000000</i>
   <i name="HFALPHA">      0.00000000</i>
   <i name="MCALPHA">      0.00000000</i>
   <i name="ALDAX">      1.00000000</i>
   <i name="AGGAX">      1.00000000</i>
   <i name="ALDAC">      1.00000000</i>
   <i name="AGGAC">      0.00000000</i>
   <i type="int" name="NKREDX">     1</i>
   <i type="int" name="NKREDY">     1</i>
   <i type="int" name="NKREDZ">     1</i>
   <i type="logical" name="SHIFTRED"> F  </i>
   <i type="logical" name="ODDONLY"> F  </i>
   <i type="logical" name="EVENONLY"> F  </i>
   <i type="int" name="LMAXFOCK">     0</i>
   <i type="int" name="NMAXFOCKAE">     0</i>
   <i type="logical" name="LFOCKAEDFT"> F  </i>
   <i name="HFSCREEN">      0.00000000</i>
   <i name="HFSCREENC">      0.00000000</i>
   <i type="int" name="NBANDSGWLOW">     0</i>
  </separator>
  <separator name="vdW DFT" >
   <i type="logical" name="LUSE_VDW"> T  </i>
   <i name="Zab_VDW">     -0.84910000</i>
   <i name="PARAM1">      0.18333333</i>
   <i name="PARAM2">      0.22000000</i>
   <i name="PARAM3">      0.00000000</i>
  </separator>
  <separator name="model GW" >
   <i type="int" name="MODEL_GW">     0</i>
   <i name="MODEL_EPS0">     58.13010116</i>
   <i name="MODEL_ALPHA">      1.00000000</i>
  </separator>
  <separator name="linear response parameters" >
   <i type="logical" name="LEPSILON"> F  </i>
   <i type="logical" name="LRPA"> F  </i>
   <i type="logical" name="LNABLA"> F  </i>
   <i type="logical" name="LVEL"> F  </i>
   <i type="int" name="KINTER">     0</i>
   <i name="CSHIFT">      0.10000000</i>
   <i name="OMEGAMAX">     -1.00000000</i>
   <i name="DEG_THRESHOLD">      0.00200000</i>
   <i name="RTIME">     -0.10000000</i>
   <i name="WPLASMAI">      0.00000000</i>
   <v name="DFIELD">      0.00000000      0.00000000      0.00000000</v>
   <v name="WPLASMA">      0.00000000      0.00000000      0.00000000      0.00000000      0.00000000      0.00000000      0.00000000      0.00000000      0.00000000</v>
  </separator>
  <separator name="orbital magnetization" >
   <i type="logical" name="NUCIND"> F  </i>
   <v name="MAGPOS">      0.00000000      0.00000000      0.00000000</v>
   <i type="logical" name="LNICSALL"> T  </i>
   <i type="logical" name="ORBITALMAG"> F  </i>
   <i type="logical" name="LMAGBLOCH"> F  </i>
   <i type="logical" name="LCHIMAG"> F  </i>
   <i type="logical" name="LGAUGE"> T  </i>
   <i type="int" name="MAGATOM">     0</i>
   <v name="MAGDIPOL">      0.00000000      0.00000000      0.00000000</v>
   <v name="AVECCONST">      0.00000000      0.00000000      0.00000000</v>
  </separator>
  <separator name="response functions" >
   <i type="logical" name="LADDER"> F  </i>
   <i type="logical" name="LRPAFORCE"> F  </i>
   <i type="logical" name="LFXC"> F  </i>
   <i type="logical" name="LHARTREE"> T  </i>
   <i type="int" name="IBSE">     0</i>
   <v type="int" name="KPOINT">    -1     0     0     0</v>
   <i type="logical" name="LTCTE"> F  </i>
   <i type="logical" name="LTETE"> F  </i>
   <i type="logical" name="LTRIPLET"> F  </i>
   <i type="logical" name="LFXCEPS"> F  </i>
   <i type="logical" name="LFXHEG"> F  </i>
   <i type="int" name="NATURALO">     2</i>
   <i type="logical" name="L2ORDER"> F  </i>
   <i type="logical" name="LMP2LT"> F  </i>
   <i type="logical" name="LUSEW"> F  </i>
   <i name="ENCUTGW">     -2.00000000</i>
   <i name="ENCUTGWSOFT">     -2.00000000</i>
   <i name="ENCUTLF">     -1.00000000</i>
   <i type="int" name="LMAXMP2">    -1</i>
   <i name="SCISSOR">      0.00000000</i>
   <i type="int" name="NOMEGA">     0</i>
   <i type="int" name="NOMEGAR">     0</i>
   <i type="int" name="NBANDSGW">    -1</i>
   <i type="int" name="NBANDSO">    -1</i>
   <i type="int" name="NBANDSV">    -1</i>
   <i type="int" name="NELM">   400</i>
   <i type="int" name="NELMHF">     1</i>
   <i type="int" name="DIM">     3</i>
   <i type="int" name="ANTIRES">     0</i>
   <i name="OMEGAMAX">    -30.00000000</i>
   <i name="OMEGAMIN">    -30.00000000</i>
   <i name="OMEGATL">   -200.00000000</i>
   <i type="int" name="OMEGAGRID">   140</i>
   <i name="CSHIFT">     -0.10000000</i>
   <i type="logical" name="SELFENERGY"> F  </i>
   <i type="logical" name="LSPECTRAL"> F  </i>
   <i type="logical" name="LSPECTRALGW"> F  </i>
   <i type="logical" name="LSINGLES"> F  </i>
   <i type="logical" name="LFERMIGW"> F  </i>
   <i type="logical" name="ODDONLYGW"> F  </i>
   <i type="logical" name="EVENONLYGW"> F  </i>
   <i type="int" name="NKREDLFX">     1</i>
   <i type="int" name="NKREDLFY">     1</i>
   <i type="int" name="NKREDLFZ">     1</i>
   <i type="int" name="MAXMEM">  2800</i>
   <i type="int" name="TELESCOPE">     0</i>
   <i type="int" name="TAUPAR">     1</i>
   <i type="int" name="OMEGAPAR">    -1</i>
   <i name="LAMBDA">      1.00000000</i>
  </separator>
  <separator name="External order field" >
   <i name="OFIELD_KAPPA">      0.00000000</i>
   <v name="OFIELD_K">      0.00000000      0.00000000      0.00000000</v>
   <i name="OFIELD_Q6_NEAR">      0.00000000</i>
   <i name="OFIELD_Q6_FAR">      0.00000000</i>
   <i name="OFIELD_A">      0.00000000</i>
  </separator>
 </parameters>
 <atominfo>
  <atoms>      10 </atoms>
  <types>       3 </types>
  <array name="atoms" >
   <dimension dim="1">ion</dimension>
   <field type="string">element</field>
   <field type="int">atomtype</field>
   <set>
    <rc><c>Cr</c><c>   1</c></rc>
    <rc><c>Cr</c><c>   1</c></rc>
    <rc><c>P </c><c>   2</c></rc>
    <rc><c>P </c><c>   2</c></rc>
    <rc><c>Se</c><c>   3</c></rc>
    <rc><c>Se</c><c>   3</c></rc>
    <rc><c>Se</c><c>   3</c></rc>
    <rc><c>Se</c><c>   3</c></rc>
    <rc><c>Se</c><c>   3</c></rc>
    <rc><c>Se</c><c>   3</c></rc>
   </set>
  </array>
  <array name="atomtypes" >
   <dimension dim="1">type</dimension>
   <field type="int">atomspertype</field>
   <field type="string">element</field>
   <field>mass</field>
   <field>valence</field>
   <field type="string">pseudopotential</field>
   <set>
    <rc><c>   2</c><c>Cr</c><c>     51.99600000</c><c>      6.00000000</c><c> PAW_PBE Cr 06Sep2000                   </c></rc>
    <rc><c>   2</c><c>P </c><c>     30.97400000</c><c>      5.00000000</c><c>  PAW_PBE P 17Jan2003                   </c></rc>
    <rc><c>   6</c><c>Se</c><c>     78.96000000</c><c>      6.00000000</c><c> PAW_PBE Se 06Sep2000                   </c></rc>
   </set>
  </array>
 </atominfo>
 <structure name="initialpos" >
  <crystal>
   <varray name="basis" >
    <v>       6.90777700      -0.00000000       0.00000000 </v>
    <v>       3.45388800       5.98231000       0.00000000 </v>
    <v>       0.00000000       0.00000000      23.44458800 </v>
   </varray>
   <i name="volume">    968.83501932 </i>
   <varray name="rec_basis" >
    <v>       0.14476437      -0.08357974       0.00000000 </v>
    <v>       0.00000000       0.16715951      -0.00000000 </v>
    <v>      -0.00000000       0.00000000       0.04265377 </v>
   </varray>
  </crystal>
  <varray name="positions" >
   <v>       0.33333300       0.33333300       0.49992500 </v>
   <v>       0.66666700       0.66666700       0.50007500 </v>
   <v>       0.00000000       0.00000000       0.44821600 </v>
   <v>       0.00000000       0.00000000       0.55178400 </v>
   <v>       0.62635700       0.00042000       0.57375200 </v>
   <v>       0.00042000       0.37322400       0.57375200 </v>
   <v>       0.37322400       0.62635700       0.57375200 </v>
   <v>       0.37364300       0.99958000       0.42624800 </v>
   <v>       0.99958000       0.62677600       0.42624800 </v>
   <v>       0.62677600       0.37364300       0.42624800 </v>
  </varray>
  <varray name="selective"  type="logical" >
   <v type="logical" >  F  F  F </v>
   <v type="logical" >  F  F  F </v>
   <v type="logical" >  T  T  T </v>
   <v type="logical" >  T  T  T </v>
   <v type="logical" >  T  T  T </v>
   <v type="logical" >  T  T  T </v>
   <v type="logical" >  T  T  T </v>
   <v type="logical" >  T  T  T </v>
   <v type="logical" >  T  T  T </v>
   <v type="logical" >  T  T  T </v>
  </varray>
  <nose>
   <v>      -3.00000000       0.00000000       0.00010000       0.00010000 </v>
  </nose>
 </structure>
 <calculation>
  <scstep>
   <time name="dav">   21.32   31.38</time>
   <time name="total">   60.73   91.42</time>
   <energy>
    <i name="alphaZ">     31.50926878 </i>
    <i name="ewald">   6462.22987265 </i>
    <i name="hartreedc">  -8622.78498877 </i>
    <i name="XCdc">    -40.88542240 </i>
    <i name="pawpsdc">   1179.33972540 </i>
    <i name="pawaedc">  -1033.58944254 </i>
    <i name="eentropy">      0.00000000 </i>
    <i name="bandstr">    -35.35578506 </i>
    <i name="atom">   2459.66876574 </i>
    <i name="e_fr_energy">    400.13199379 </i>
    <i name="e_wo_entrp">    400.13199379 </i>
    <i name="e_0_energy">    400.13199379 </i>
   </energy>
  </scstep>
  <scstep>
   <time name="dav">   28.90   44.44</time>
   <time name="total">   28.91   44.45</time>
   <energy>
    <i name="e_fr_energy">      3.48715186 </i>
    <i name="e_wo_entrp">      3.48715186 </i>
    <i name="e_0_energy">      3.48715186 </i>
   </energy>
  </scstep>
  <scstep>
   <time name="dav">   26.05   39.54</time>
   <time name="total">   26.06   39.56</time>
   <energy>
    <i name="e_fr_energy">    -47.55237628 </i>
    <i name="e_wo_entrp">    -47.55237628 </i>
    <i name="e_0_energy">    -47.55237628 </i>
   </energy>
  </scstep>
  <scstep>
   <time name="dav">   25.13   37.85</time>
   <time name="total">   25.13   37.85</time>
   <energy>
    <i name="e_fr_energy">    -49.34853819 </i>
    <i name="e_wo_entrp">    -49.34853819 </i>
    <i name="e_0_energy">    -49.34853819 </i>
   </energy>
  </scstep>
  <scstep>
   <time name="dav">   27.60   40.40</time>
   <time name="total">   29.14   42.79</time>
   <energy>
    <i name="e_fr_energy">    -49.40456730 </i>
    <i name="e_wo_entrp">    -49.40456730 </i>
    <i name="e_0_energy">    -49.40456730 </i>
   </energy>
  </scstep>
  <scstep>
   <time name="dav">   26.36   40.42</time>
   <time name="total">   65.94  102.07</time>
   <energy>
    <i name="e_fr_energy">    -93.61742134 </i>
    <i name="e_wo_entrp">    -93.61742134 </i>
    <i name="e_0_energy">    -93.61742134 </i>
   </energy>
  </scstep>
  <scstep>
   <time name="dav">   23.04   34.18</time>
   <time name="total">   63.44   96.07</time>
   <energy>
    <i name="e_fr_energy">    -41.70195418 </i>
    <i name="e_wo_entrp">    -41.70195418 </i>
    <i name="e_0_energy">    -41.70195418 </i>
   </energy>
  </scstep>
  <scstep>
   <time name="dav">   27.91   41.78</time>
   <time name="total">   67.05  102.96</time>
   <energy>
    <i name="e_fr_energy">    -43.40300204 </i>
    <i name="e_wo_entrp">    -43.40300204 </i>
    <i name="e_0_energy">    -43.40300204 </i>
   </energy>
  </scstep>
  <scstep>
   <time name="dav">   29.53   44.75</time>
   <time name="total">   69.81  106.11</time>
   <energy>
    <i name="e_fr_energy">    -44.62737545 </i>
    <i name="e_wo_entrp">    -44.62737545 </i>
    <i name="e_0_energy">    -44.62737545 </i>
   </energy>
  </scstep>
  <scstep>
   <time name="dav">   26.24   39.41</time>
   <time name="total">   66.36  100.26</time>
   <energy>
    <i name="e_fr_energy">    -45.21005313 </i>
    <i name="e_wo_entrp">    -45.21005313 </i>
    <i name="e_0_energy">    -45.21005313 </i>
   </energy>
  </scstep>
  <scstep>
   <time name="dav">   26.45   39.70</time>
   <time name="total">   67.44  102.11</time>
   <energy>
    <i name="e_fr_energy">    -45.37051856 </i>
    <i name="e_wo_entrp">    -45.37051856 </i>
    <i name="e_0_energy">    -45.37051856 </i>
   </energy>
  </scstep>
  <scstep>
   <time name="dav">   26.97   40.26</time>
   <time name="total">   67.51  101.86</time>
   <energy>
    <i name="e_fr_energy">   -179.65565396 </i>
    <i name="e_wo_entrp">   -179.65565396 </i>
    <i name="e_0_energy">   -179.65565396 </i>
   </energy>
  </scstep>
  <scstep>
   <time name="dav">   26.37   41.43</time>
   <time name="total">   67.69  102.94</time>
   <energy>
    <i name="e_fr_energy">   -235.56778806 </i>
    <i name="e_wo_entrp">   -235.56778806 </i>
    <i name="e_0_energy">   -235.56778806 </i>
   </energy>
  </scstep>
  <scstep>
   <time name="dav">   22.05   31.40</time>
   <time name="total">   63.10   92.43</time>
   <energy>
    <i name="e_fr_energy">    -44.44251025 </i>
    <i name="e_wo_entrp">    -44.44251025 </i>
    <i name="e_0_energy">    -44.44251025 </i>
   </energy>
  </scstep>
  <scstep>
   <time name="dav">   26.60   41.17</time>
   <time name="total">   67.60  103.29</time>
   <energy>
    <i name="e_fr_energy">   -263.88323573 </i>
    <i name="e_wo_entrp">   -263.88323573 </i>
    <i name="e_0_energy">   -263.88323573 </i>
   </energy>
  </scstep>
  <scstep>
   <time name="dav">   23.36   36.46</time>
   <time name="total">   63.36   97.51</time>
   <energy>
    <i name="e_fr_energy">   -598.99085147 </i>
    <i name="e_wo_entrp">   -598.99085147 </i>
    <i name="e_0_energy">   -598.99085147 </i>
   </energy>
  </scstep>
  <scstep>
   <time name="dav">   22.27   33.53</time>
   <time name="total">   63.48   94.53</time>
   <energy>
    <i name="e_fr_energy">    -44.38142891 </i>
    <i name="e_wo_entrp">    -44.38142891 </i>
    <i name="e_0_energy">    -44.38142891 </i>
   </energy>
  </scstep>
  <scstep>
   <time name="dav">   21.22   32.94</time>
   <time name="total">   61.82   95.02</time>
   <energy>
    <i name="e_fr_energy">    -45.58575670 </i>
    <i name="e_wo_entrp">    -45.58575670 </i>
    <i name="e_0_energy">    -45.58575670 </i>
   </energy>
  </scstep>
  <scstep>
   <time name="dav">   21.72   33.76</time>
   <time name="total">   62.68   96.43</time>
   <energy>
    <i name="e_fr_energy">    -45.75100747 </i>
    <i name="e_wo_entrp">    -45.75100747 </i>
    <i name="e_0_energy">    -45.75100747 </i>
   </energy>
  </scstep>
  <scstep>
   <time name="dav">   24.96   37.00</time>
   <time name="total">   65.30   97.84</time>
   <energy>
    <i name="e_fr_energy">    -45.77151544 </i>
    <i name="e_wo_entrp">    -45.77151544 </i>
    <i name="e_0_energy">    -45.77151544 </i>
   </energy>
  </scstep>
  <scstep>
   <time name="dav">   19.82   30.14</time>
   <time name="total">   61.19   90.66</time>
   <energy>
    <i name="e_fr_energy">    -45.77571336 </i>
    <i name="e_wo_entrp">    -45.77571336 </i>
    <i name="e_0_energy">    -45.77571336 </i>
   </energy>
  </scstep>
  <scstep>
   <time name="dav">   21.46   32.75</time>
   <time name="total">   62.56   93.58</time>
   <energy>
    <i name="e_fr_energy">    -45.77623184 </i>
    <i name="e_wo_entrp">    -45.77623184 </i>
    <i name="e_0_energy">    -45.77623184 </i>
   </energy>
  </scstep>
  <scstep>
   <time name="dav">   20.00   29.40</time>
   <time name="total">   62.11   92.06</time>
   <energy>
    <i name="e_fr_energy">    -45.77647438 </i>
    <i name="e_wo_entrp">    -45.77647438 </i>
    <i name="e_0_energy">    -45.77647438 </i>
   </energy>
  </scstep>
  <scstep>
   <time name="dav">   20.95   31.05</time>
   <time name="total">   62.12   92.98</time>
   <energy>
    <i name="e_fr_energy">    -45.77673456 </i>
    <i name="e_wo_entrp">    -45.77673456 </i>
    <i name="e_0_energy">    -45.77673456 </i>
   </energy>
  </scstep>
  <scstep>
   <time name="dav">   18.59   28.89</time>
   <time name="total">   59.72   90.72</time>
   <energy>
    <i name="e_fr_energy">    -45.77691872 </i>
    <i name="e_wo_entrp">    -45.77691872 </i>
    <i name="e_0_energy">    -45.77691872 </i>
   </energy>
  </scstep>
  <scstep>
   <time name="dav">   19.33   28.77</time>
   <time name="total">   59.06   87.77</time>
   <energy>
    <i name="alphaZ">     31.50926878 </i>
    <i name="ewald">   6462.22987265 </i>
    <i name="hartreedc">  -8618.72527891 </i>
    <i name="XCdc">    -41.67204026 </i>
    <i name="pawpsdc">   1199.30699494 </i>
    <i name="pawaedc">  -1053.70341812 </i>
    <i name="eentropy">      0.00000000 </i>
    <i name="bandstr">   -484.39118289 </i>
    <i name="atom">   2459.66876574 </i>
    <i name="e_fr_energy">    -45.77701807 </i>
    <i name="e_wo_entrp">    -45.77701807 </i>
    <i name="e_0_energy">    -45.77701807 </i>
   </energy>
  </scstep>
  <structure>
   <crystal>
    <varray name="basis" >
     <v>       6.90777700      -0.00000000       0.00000000 </v>
     <v>       3.45388800       5.98231000       0.00000000 </v>
     <v>       0.00000000       0.00000000      23.44458800 </v>
    </varray>
    <i name="volume">    968.83501932 </i>
    <varray name="rec_basis" >
     <v>       0.14476437      -0.08357974       0.00000000 </v>
     <v>       0.00000000       0.16715951      -0.00000000 </v>
     <v>      -0.00000000       0.00000000       0.04265377 </v>
    </varray>
   </crystal>
   <varray name="positions" >
    <v>       0.33333300       0.33333300       0.49992500 </v>
    <v>       0.66666700       0.66666700       0.50007500 </v>
    <v>       0.00000000       0.00000000       0.44821600 </v>
    <v>       0.00000000       0.00000000       0.55178400 </v>
    <v>       0.62635700       0.00042000       0.57375200 </v>
    <v>       0.00042000       0.37322400       0.57375200 </v>
    <v>       0.37322400       0.62635700       0.57375200 </v>
    <v>       0.37364300       0.99958000       0.42624800 </v>
    <v>       0.99958000       0.62677600       0.42624800 </v>
    <v>       0.62677600       0.37364300       0.42624800 </v>
   </varray>
  </structure>
  <varray name="forces" >
   <v>       0.00000000       0.00000000       0.00626362 </v>
   <v>       0.00000000       0.00000000      -0.00626362 </v>
   <v>       0.00000000       0.00000000       0.50263248 </v>
   <v>       0.00000000       0.00000000      -0.50263248 </v>
   <v>       0.37153311      -0.00592096      -1.33491019 </v>
   <v>      -0.19089423      -0.31879661      -1.33491019 </v>
   <v>      -0.18063888       0.32471757      -1.33491019 </v>
   <v>      -0.37153311       0.00592096       1.33491019 </v>
   <v>       0.19089423       0.31879661       1.33491019 </v>
   <v>       0.18063888      -0.32471757       1.33491019 </v>
  </varray>
  <varray name="stress" >
   <v>     -31.97580014       0.00000275      -0.00000000 </v>
   <v>       0.00000260     -31.97579623       0.00000000 </v>
   <v>      -0.00000000       0.00000000     -24.72102274 </v>
  </varray>
  <energy>
   <i name="e_fr_energy">    -45.77701807 </i>
   <i name="e_wo_entrp">    -45.77701807 </i>
   <i name="e_0_energy">      0.00000000 </i>
  </energy>
  <time name="totalsc"> 1635.12 2469.48</time>
 </calculation>
 <calculation>
  <scstep>
   <time name="dav">   25.41   38.37</time>
   <time name="total">   66.04  100.95</time>
   <energy>
    <i name="alphaZ">     41.30468684 </i>
    <i name="ewald">   7540.23261822 </i>
    <i name="hartreedc">  -9880.40902436 </i>
    <i name="XCdc">    -31.42548394 </i>
    <i name="pawpsdc">   1199.31168280 </i>
    <i name="pawaedc">  -1053.70792270 </i>
    <i name="eentropy">      0.00000000 </i>
    <i name="bandstr">   -335.94761685 </i>
    <i name="atom">   2459.66876574 </i>
    <i name="e_fr_energy">    -60.97229426 </i>
    <i name="e_wo_entrp">    -60.97229426 </i>
    <i name="e_0_energy">    -60.97229426 </i>
   </energy>
  </scstep>
  <scstep>
   <time name="dav">   27.10   41.07</time>
   <time name="total">   68.84  103.85</time>
   <energy>
    <i name="e_fr_energy">    -53.53572587 </i>
    <i name="e_wo_entrp">    -53.53572587 </i>
    <i name="e_0_energy">    -53.53572587 </i>
   </energy>
  </scstep>
  <scstep>
   <time name="dav">   28.74   41.89</time>
   <time name="total">   69.73  104.17</time>
   <energy>
    <i name="e_fr_energy">    -53.75958417 </i>
    <i name="e_wo_entrp">    -53.75958417 </i>
    <i name="e_0_energy">    -53.75958417 </i>
   </energy>
  </scstep>
  <scstep>
   <time name="dav">   27.64   41.43</time>
   <time name="total">   69.40  103.70</time>
   <energy>
    <i name="e_fr_energy">    -47.92285802 </i>
    <i name="e_wo_entrp">    -47.92285802 </i>
    <i name="e_0_energy">    -47.92285802 </i>
   </energy>
  </scstep>
  <scstep>
   <time name="dav">   26.73   39.49</time>
   <time name="total">   67.81  100.10</time>
   <energy>
    <i name="e_fr_energy">    -48.30697696 </i>
    <i name="e_wo_entrp">    -48.30697696 </i>
    <i name="e_0_energy">    -48.30697696 </i>
   </energy>
  </scstep>
  <scstep>
   <time name="dav">   27.26   41.09</time>
   <time name="total">   67.15  102.78</time>
   <energy>
    <i name="e_fr_energy">    -48.44242319 </i>
    <i name="e_wo_entrp">    -48.44242319 </i>
    <i name="e_0_energy">    -48.44242319 </i>
   </energy>
  </scstep>
  <scstep>
   <time name="dav">   22.72   34.42</time>
   <time name="total">   64.58   96.44</time>
   <energy>
    <i name="e_fr_energy">    -48.44156366 </i>
    <i name="e_wo_entrp">    -48.44156366 </i>
    <i name="e_0_energy">    -48.44156366 </i>
   </energy>
  </scstep>
  <scstep>
   <time name="dav">   21.18   31.76</time>
   <time name="total">   61.92   93.84</time>
   <energy>
    <i name="e_fr_energy">    -48.44217029 </i>
    <i name="e_wo_entrp">    -48.44217029 </i>
    <i name="e_0_energy">    -48.44217029 </i>
   </energy>
  </scstep>
  <scstep>
   <time name="dav">   22.47   33.44</time>
   <time name="total">   63.75   95.04</time>
   <energy>
    <i name="e_fr_energy">    -48.44126255 </i>
    <i name="e_wo_entrp">    -48.44126255 </i>
    <i name="e_0_energy">    -48.44126255 </i>
   </energy>
  </scstep>
  <scstep>
   <time name="dav">   21.34   32.33</time>
   <time name="total">   63.69   96.13</time>
   <energy>
    <i name="e_fr_energy">    -48.44205969 </i>
    <i name="e_wo_entrp">    -48.44205969 </i>
    <i name="e_0_energy">    -48.44205969 </i>
   </energy>
  </scstep>
  <scstep>
   <time name="dav">   22.11   33.28</time>
   <time name="total">   63.30   95.29</time>
   <energy>
    <i name="e_fr_energy">    -48.44181805 </i>
    <i name="e_wo_entrp">    -48.44181805 </i>
    <i name="e_0_energy">    -48.44181805 </i>
   </energy>
  </scstep>
  <scstep>
   <time name="dav">   20.51   31.46</time>
   <time name="total">   60.54   94.04</time>
   <energy>
    <i name="e_fr_energy">    -48.44041080 </i>
    <i name="e_wo_entrp">    -48.44041080 </i>
    <i name="e_0_energy">    -48.44041080 </i>
   </energy>
  </scstep>
  <scstep>
   <time name="dav">   21.86   33.12</time>
   <time name="total">   63.34   95.54</time>
   <energy>
    <i name="e_fr_energy">    -48.43780572 </i>
    <i name="e_wo_entrp">    -48.43780572 </i>
    <i name="e_0_energy">    -48.43780572 </i>
   </energy>
  </scstep>
  <scstep>
   <time name="dav">   20.77   31.34</time>
   <time name="total">   61.33   93.32</time>
   <energy>
    <i name="e_fr_energy">    -48.43622793 </i>
    <i name="e_wo_entrp">    -48.43622793 </i>
    <i name="e_0_energy">    -48.43622793 </i>
   </energy>
  </scstep>
  <scstep>
   <time name="dav">   20.65   30.75</time>
   <time name="total">   61.19   91.98</time>
   <energy>
    <i name="e_fr_energy">    -48.43425062 </i>
    <i name="e_wo_entrp">    -48.43425062 </i>
    <i name="e_0_energy">    -48.43425062 </i>
   </energy>
  </scstep>
  <scstep>
   <time name="dav">   19.10   29.47</time>
   <time name="total">   60.68   92.85</time>
   <energy>
    <i name="e_fr_energy">    -48.43237957 </i>
    <i name="e_wo_entrp">    -48.43237957 </i>
    <i name="e_0_energy">    -48.43237957 </i>
   </energy>
  </scstep>
  <scstep>
   <time name="dav">   19.90   30.14</time>
   <time name="total">   61.88   92.04</time>
   <energy>
    <i name="e_fr_energy">    -48.43023539 </i>
    <i name="e_wo_entrp">    -48.43023539 </i>
    <i name="e_0_energy">    -48.43023539 </i>
   </energy>
  </scstep>
  <scstep>
   <time name="dav">   19.69   30.20</time>
   <time name="total">   60.02   92.43</time>
   <energy>
    <i name="e_fr_energy">    -48.42998188 </i>
    <i name="e_wo_entrp">    -48.42998188 </i>
    <i name="e_0_energy">    -48.42998188 </i>
   </energy>
  </scstep>
  <scstep>
   <time name="dav">   20.80   30.33</time>
   <time name="total">   62.41   93.59</time>
   <energy>
    <i name="e_fr_energy">    -48.43036928 </i>
    <i name="e_wo_entrp">    -48.43036928 </i>
    <i name="e_0_energy">    -48.43036928 </i>
   </energy>
  </scstep>
  <scstep>
   <time name="dav">   18.92   28.06</time>
   <time name="total">   60.76   90.37</time>
   <energy>
    <i name="e_fr_energy">    -48.43084141 </i>
    <i name="e_wo_entrp">    -48.43084141 </i>
    <i name="e_0_energy">    -48.43084141 </i>
   </energy>
  </scstep>
  <scstep>
   <time name="dav">   19.21   29.11</time>
   <time name="total">   61.02   91.57</time>
   <energy>
    <i name="e_fr_energy">    -48.43122794 </i>
    <i name="e_wo_entrp">    -48.43122794 </i>
    <i name="e_0_energy">    -48.43122794 </i>
   </energy>
  </scstep>
  <scstep>
   <time name="dav">   20.13   30.39</time>
   <time name="total">   61.53   93.58</time>
   <energy>
    <i name="e_fr_energy">    -48.43136820 </i>
    <i name="e_wo_entrp">    -48.43136820 </i>
    <i name="e_0_energy">    -48.43136820 </i>
   </energy>
  </scstep>
  <scstep>
   <time name="dav">   17.07   26.39</time>
   <time name="total">   58.36   87.64</time>
   <energy>
    <i name="alphaZ">     41.30468684 </i>
    <i name="ewald">   7540.23261822 </i>
    <i name="hartreedc">  -9726.40549853 </i>
    <i name="XCdc">    -36.92368609 </i>
    <i name="pawpsdc">   1312.56978215 </i>
    <i name="pawaedc">  -1168.54147307 </i>
    <i name="eentropy">      0.00000000 </i>
    <i name="bandstr">   -470.33663919 </i>
    <i name="atom">   2459.66876574 </i>
    <i name="e_fr_energy">    -48.43144394 </i>
    <i name="e_wo_entrp">    -48.43144394 </i>
    <i name="e_0_energy">    -48.43144394 </i>
   </energy>
  </scstep>
  <structure>
   <crystal>
    <varray name="basis" >
     <v>       6.26341463       0.00000006      -0.00000000 </v>
     <v>       3.13170691       5.42427595      -0.00000000 </v>
     <v>      -0.00000000       0.00000000      21.75383768 </v>
    </varray>
    <i name="volume">    739.07552303 </i>
    <varray name="rec_basis" >
     <v>       0.15965732      -0.09217819       0.00000000 </v>
     <v>      -0.00000000       0.18435640      -0.00000000 </v>
     <v>       0.00000000      -0.00000000       0.04596890 </v>
    </varray>
   </crystal>
   <varray name="positions" >
    <v>       0.33333300       0.33333300       0.49992500 </v>
    <v>       0.66666700       0.66666700       0.50007500 </v>
    <v>      -0.00000000       0.00000000       0.44925028 </v>
    <v>      -0.00000000       0.00000000       0.55074972 </v>
    <v>       0.62897559       0.00037225       0.57100511 </v>
    <v>       0.00037225       0.37065315       0.57100511 </v>
    <v>       0.37065315       0.62897559       0.57100511 </v>
    <v>       0.37102441       0.99962775       0.42899489 </v>
    <v>       0.99962775       0.62934685       0.42899489 </v>
    <v>       0.62934685       0.37102441       0.42899489 </v>
   </varray>
  </structure>
  <varray name="forces" >
   <v>      -0.00000000       0.00000000      -0.00334643 </v>
   <v>      -0.00000000      -0.00000000       0.00334643 </v>
   <v>      -0.00000000      -0.00000000      -0.50943893 </v>
   <v>      -0.00000000       0.00000000       0.50943893 </v>
   <v>       0.01780800      -0.00854998       0.16742723 </v>
   <v>      -0.01630850      -0.01114719       0.16742723 </v>
   <v>      -0.00149950       0.01969717       0.16742723 </v>
   <v>      -0.01780800       0.00854998      -0.16742723 </v>
   <v>       0.01630850       0.01114719      -0.16742723 </v>
   <v>       0.00149950      -0.01969717      -0.16742723 </v>
  </varray>
  <varray name="stress" >
   <v>       8.35099907      -0.00000037       0.00000000 </v>
   <v>      -0.00000074       8.35099826       0.00000000 </v>
   <v>      -0.00000000       0.00000000       5.77308972 </v>
  </varray>
  <energy>
   <i name="e_fr_energy">    -48.43144394 </i>
   <i name="e_wo_entrp">    -48.43144394 </i>
   <i name="e_0_energy">      0.00000000 </i>
  </energy>
  <time name="totalsc"> 1562.96 2356.16</time>
 </calculation>
 <calculation>
  <scstep>
   <time name="dav">   24.84   37.51</time>
   <time name="total">   65.15   99.80</time>
   <energy>
    <i name="alphaZ">     40.03887100 </i>
    <i name="ewald">   7406.14312907 </i>
    <i name="hartreedc">  -9572.45561925 </i>
    <i name="XCdc">    -38.08148031 </i>
    <i name="pawpsdc">   1312.56818584 </i>
    <i name="pawaedc">  -1168.53973724 </i>
    <i name="eentropy">      0.00000000 </i>
    <i name="bandstr">   -487.98653650 </i>
    <i name="atom">   2459.66876574 </i>
    <i name="e_fr_energy">    -48.64442166 </i>
    <i name="e_wo_entrp">    -48.64442166 </i>
    <i name="e_0_energy">    -48.64442166 </i>
   </energy>
  </scstep>
  <scstep>
   <time name="dav">   24.08   37.37</time>
   <time name="total">   66.09   99.93</time>
   <energy>
    <i name="e_fr_energy">    -48.56150484 </i>
    <i name="e_wo_entrp">    -48.56150484 </i>
    <i name="e_0_energy">    -48.56150484 </i>
   </energy>
  </scstep>
  <scstep>
   <time name="dav">   25.58   38.98</time>
   <time name="total">   66.54  101.25</time>
   <energy>
    <i name="e_fr_energy">    -48.52607906 </i>
    <i name="e_wo_entrp">    -48.52607906 </i>
    <i name="e_0_energy">    -48.52607906 </i>
   </energy>
  </scstep>
  <scstep>
   <time name="dav">   25.81   39.68</time>
   <time name="total">   68.05  102.90</time>
   <energy>
    <i name="e_fr_energy">    -48.49599428 </i>
    <i name="e_wo_entrp">    -48.49599428 </i>
    <i name="e_0_energy">    -48.49599428 </i>
   </energy>
  </scstep>
  <scstep>
   <time name="dav">   25.20   37.93</time>
   <time name="total">   65.57  100.35</time>
   <energy>
    <i name="e_fr_energy">    -48.49378139 </i>
    <i name="e_wo_entrp">    -48.49378139 </i>
    <i name="e_0_energy">    -48.49378139 </i>
   </energy>
  </scstep>
  <scstep>
   <time name="dav">   20.40   31.61</time>
   <time name="total">   62.50   94.15</time>
   <energy>
    <i name="e_fr_energy">    -48.49347998 </i>
    <i name="e_wo_entrp">    -48.49347998 </i>
    <i name="e_0_energy">    -48.49347998 </i>
   </energy>
  </scstep>
  <scstep>
   <time name="dav">   18.39   28.37</time>
   <time name="total">   58.86   90.11</time>
   <energy>
    <i name="e_fr_energy">    -48.49336432 </i>
    <i name="e_wo_entrp">    -48.49336432 </i>
    <i name="e_0_energy">    -48.49336432 </i>
   </energy>
  </scstep>
  <scstep>
   <time name="dav">   18.72   28.45</time>
   <time name="total">   58.19   88.69</time>
   <energy>
    <i name="alphaZ">     40.03887100 </i>
    <i name="ewald">   7406.14312907 </i>
    <i name="hartreedc">  -9586.02692348 </i>
    <i name="XCdc">    -37.58159428 </i>
    <i name="pawpsdc">   1294.77945394 </i>
    <i name="pawaedc">  -1150.46553174 </i>
    <i name="eentropy">      0.00000000 </i>
    <i name="bandstr">   -475.04949113 </i>
    <i name="atom">   2459.66876574 </i>
    <i name="e_fr_energy">    -48.49332088 </i>
    <i name="e_wo_entrp">    -48.49332088 </i>
    <i name="e_0_energy">    -48.49332088 </i>
   </energy>
  </scstep>
  <structure>
   <crystal>
    <varray name="basis" >
     <v>       6.33453862       0.00000005      -0.00000000 </v>
     <v>       3.16726889       5.48587111      -0.00000000 </v>
     <v>      -0.00000000       0.00000000      21.94046078 </v>
    </varray>
    <i name="volume">    762.44115440 </i>
    <varray name="rec_basis" >
     <v>       0.15786469      -0.09114322       0.00000000 </v>
     <v>      -0.00000000       0.18228646      -0.00000000 </v>
     <v>       0.00000000      -0.00000000       0.04557789 </v>
    </varray>
   </crystal>
   <varray name="positions" >
    <v>       0.33333300       0.33333300       0.49992500 </v>
    <v>       0.66666700       0.66666700       0.50007500 </v>
    <v>      -0.00000000       0.00000000       0.44912725 </v>
    <v>      -0.00000000       0.00000000       0.55087275 </v>
    <v>       0.62865682       0.00037806       0.57133188 </v>
    <v>       0.00037806       0.37096611       0.57133188 </v>
    <v>       0.37096611       0.62865682       0.57133188 </v>
    <v>       0.37134318       0.99962194       0.42866812 </v>
    <v>       0.99962194       0.62903389       0.42866812 </v>
    <v>       0.62903389       0.37134318       0.42866812 </v>
   </varray>
  </structure>
  <varray name="forces" >
   <v>      -0.00000000       0.00000000      -0.00147856 </v>
   <v>      -0.00000000       0.00000000       0.00147856 </v>
   <v>      -0.00000000       0.00000000      -0.33952485 </v>
   <v>      -0.00000000       0.00000000       0.33952485 </v>
   <v>       0.05655436      -0.01025376      -0.09179600 </v>
   <v>      -0.03715719      -0.04385063      -0.09179600 </v>
   <v>      -0.01939717       0.05410439      -0.09179600 </v>
   <v>      -0.05655436       0.01025376       0.09179600 </v>
   <v>       0.03715719       0.04385063       0.09179600 </v>
   <v>       0.01939717      -0.05410439       0.09179600 </v>
  </varray>
  <varray name="stress" >
   <v>       0.69490013       0.00000102       0.00000000 </v>
   <v>      -0.00000112       0.69490006       0.00000000 </v>
   <v>       0.00000000       0.00000000       0.41915296 </v>
  </varray>
  <energy>
   <i name="e_fr_energy">    -48.49332088 </i>
   <i name="e_wo_entrp">    -48.49332088 </i>
   <i name="e_0_energy">      0.00000000 </i>
  </energy>
  <time name="totalsc">  613.40  930.35</time>
 </calculation>
 <calculation>
  <scstep>
   <time name="dav">   21.42   30.57</time>
   <time name="total">   63.54   92.68</time>
   <energy>
    <i name="alphaZ">     40.00466279 </i>
    <i name="ewald">   7404.39424028 </i>
    <i name="hartreedc">  -9584.37851108 </i>
    <i name="XCdc">    -37.56829687 </i>
    <i name="pawpsdc">   1294.57706375 </i>
    <i name="pawaedc">  -1150.26889005 </i>
    <i name="eentropy">      0.00000000 </i>
    <i name="bandstr">   -474.92883446 </i>
    <i name="atom">   2459.66876574 </i>
    <i name="e_fr_energy">    -48.49979990 </i>
    <i name="e_wo_entrp">    -48.49979990 </i>
    <i name="e_0_energy">    -48.49979990 </i>
   </energy>
  </scstep>
  <scstep>
   <time name="dav">   21.11   31.68</time>
   <time name="total">   62.77   93.76</time>
   <energy>
    <i name="e_fr_energy">    -48.50204300 </i>
    <i name="e_wo_entrp">    -48.50204300 </i>
    <i name="e_0_energy">    -48.50204300 </i>
   </energy>
  </scstep>
  <scstep>
   <time name="dav">   24.99   38.75</time>
   <time name="total">   64.78  100.43</time>
   <energy>
    <i name="e_fr_energy">    -48.50176490 </i>
    <i name="e_wo_entrp">    -48.50176490 </i>
    <i name="e_0_energy">    -48.50176490 </i>
   </energy>
  </scstep>
  <scstep>
   <time name="dav">   17.69   27.34</time>
   <time name="total">   57.98   88.00</time>
   <energy>
    <i name="alphaZ">     40.00466279 </i>
    <i name="ewald">   7404.39424028 </i>
    <i name="hartreedc">  -9584.80191331 </i>
    <i name="XCdc">    -37.56134832 </i>
    <i name="pawpsdc">   1295.47560547 </i>
    <i name="pawaedc">  -1151.18816785 </i>
    <i name="eentropy">      0.00000000 </i>
    <i name="bandstr">   -474.49361322 </i>
    <i name="atom">   2459.66876574 </i>
    <i name="e_fr_energy">    -48.50176842 </i>
    <i name="e_wo_entrp">    -48.50176842 </i>
    <i name="e_0_energy">    -48.50176842 </i>
   </energy>
  </scstep>
  <structure>
   <crystal>
    <varray name="basis" >
     <v>       6.33709704       0.00000006      -0.00000000 </v>
     <v>       3.16854809       5.48808678      -0.00000000 </v>
     <v>      -0.00000000       0.00000000      21.94149498 </v>
    </varray>
    <i name="volume">    763.09312211 </i>
    <varray name="rec_basis" >
     <v>       0.15780096      -0.09110642       0.00000000 </v>
     <v>      -0.00000000       0.18221286      -0.00000000 </v>
     <v>       0.00000000      -0.00000000       0.04557575 </v>
    </varray>
   </crystal>
   <varray name="positions" >
    <v>       0.33333300       0.33333300       0.49992500 </v>
    <v>       0.66666700       0.66666700       0.50007500 </v>
    <v>      -0.00000000       0.00000000       0.44841088 </v>
    <v>      -0.00000000       0.00000000       0.55158912 </v>
    <v>       0.62915751       0.00028924       0.57109811 </v>
    <v>       0.00028924       0.37055426       0.57109811 </v>
    <v>       0.37055426       0.62915751       0.57109811 </v>
    <v>       0.37084249       0.99971076       0.42890189 </v>
    <v>       0.99971076       0.62944574       0.42890189 </v>
    <v>       0.62944574       0.37084249       0.42890189 </v>
   </varray>
  </structure>
  <varray name="forces" >
   <v>      -0.00000000       0.00000000       0.00195810 </v>
   <v>      -0.00000000      -0.00000000      -0.00195810 </v>
   <v>      -0.00000000       0.00000000      -0.02643171 </v>
   <v>      -0.00000000      -0.00000000       0.02643171 </v>
   <v>       0.03428241      -0.00469820      -0.04837116 </v>
   <v>      -0.02120997      -0.02734034      -0.04837116 </v>
   <v>      -0.01307244       0.03203854      -0.04837116 </v>
   <v>      -0.03428241       0.00469820       0.04837116 </v>
   <v>       0.02120997       0.02734034       0.04837116 </v>
   <v>       0.01307244      -0.03203854       0.04837116 </v>
  </varray>
  <varray name="stress" >
   <v>       1.02352440       0.00000121      -0.00000000 </v>
   <v>      -0.00000135       1.02352429       0.00000000 </v>
   <v>      -0.00000000       0.00000000      -0.60150273 </v>
  </varray>
  <energy>
   <i name="e_fr_energy">    -48.50176842 </i>
   <i name="e_wo_entrp">    -48.50176842 </i>
   <i name="e_0_energy">      0.00000000 </i>
  </energy>
  <time name="totalsc">  349.95  527.00</time>
 </calculation>
 <calculation>
  <scstep>
   <time name="dav">   20.26   30.91</time>
   <time name="total">   61.09   92.71</time>
   <energy>
    <i name="alphaZ">     39.98534361 </i>
    <i name="ewald">   7403.37363705 </i>
    <i name="hartreedc">  -9583.74601902 </i>
    <i name="XCdc">    -37.56203845 </i>
    <i name="pawpsdc">   1295.70055411 </i>
    <i name="pawaedc">  -1151.41585000 </i>
    <i name="eentropy">      0.00000000 </i>
    <i name="bandstr">   -474.50570526 </i>
    <i name="atom">   2459.66876574 </i>
    <i name="e_fr_energy">    -48.50131222 </i>
    <i name="e_wo_entrp">    -48.50131222 </i>
    <i name="e_0_energy">    -48.50131222 </i>
   </energy>
  </scstep>
  <scstep>
   <time name="dav">   21.21   30.99</time>
   <time name="total">   62.35   92.92</time>
   <energy>
    <i name="e_fr_energy">    -48.50197729 </i>
    <i name="e_wo_entrp">    -48.50197729 </i>
    <i name="e_0_energy">    -48.50197729 </i>
   </energy>
  </scstep>
  <scstep>
   <time name="dav">   23.55   35.78</time>
   <time name="total">   62.32   96.69</time>
   <energy>
    <i name="alphaZ">     39.98534361 </i>
    <i name="ewald">   7403.37363705 </i>
    <i name="hartreedc">  -9583.93242914 </i>
    <i name="XCdc">    -37.55918771 </i>
    <i name="pawpsdc">   1295.92449447 </i>
    <i name="pawaedc">  -1151.63795049 </i>
    <i name="eentropy">      0.00000000 </i>
    <i name="bandstr">   -474.32460093 </i>
    <i name="atom">   2459.66876574 </i>
    <i name="e_fr_energy">    -48.50192740 </i>
    <i name="e_wo_entrp">    -48.50192740 </i>
    <i name="e_0_energy">    -48.50192740 </i>
   </energy>
  </scstep>
  <structure>
   <crystal>
    <varray name="basis" >
     <v>       6.33854331       0.00000007      -0.00000000 </v>
     <v>       3.16927122       5.48933929      -0.00000000 </v>
     <v>      -0.00000000       0.00000000      21.94207962 </v>
    </varray>
    <i name="volume">    763.46181549 </i>
    <varray name="rec_basis" >
     <v>       0.15776496      -0.09108563       0.00000000 </v>
     <v>      -0.00000000       0.18217129      -0.00000000 </v>
     <v>       0.00000000      -0.00000000       0.04557453 </v>
    </varray>
   </crystal>
   <varray name="positions" >
    <v>       0.33333300       0.33333300       0.49992500 </v>
    <v>       0.66666700       0.66666700       0.50007500 </v>
    <v>      -0.00000000       0.00000000       0.44800594 </v>
    <v>      -0.00000000       0.00000000       0.55199406 </v>
    <v>       0.62944043       0.00023905       0.57096597 </v>
    <v>       0.00023905       0.37032153       0.57096597 </v>
    <v>       0.37032153       0.62944043       0.57096597 </v>
    <v>       0.37055957       0.99976095       0.42903403 </v>
    <v>       0.99976095       0.62967847       0.42903403 </v>
    <v>       0.62967847       0.37055957       0.42903403 </v>
   </varray>
  </structure>
  <varray name="forces" >
   <v>      -0.00000000       0.00000000       0.00442412 </v>
   <v>      -0.00000000       0.00000000      -0.00442412 </v>
   <v>      -0.00000000       0.00000000       0.14067059 </v>
   <v>      -0.00000000       0.00000000      -0.14067059 </v>
   <v>       0.02085007      -0.00276470      -0.02754999 </v>
   <v>      -0.01281933      -0.01667434      -0.02754999 </v>
   <v>      -0.00803074       0.01943903      -0.02754999 </v>
   <v>      -0.02085007       0.00276470       0.02754999 </v>
   <v>       0.01281933       0.01667434       0.02754999 </v>
   <v>       0.00803074      -0.01943903       0.02754999 </v>
  </varray>
  <varray name="stress" >
   <v>       1.57404120       0.00000097      -0.00000000 </v>
   <v>      -0.00000119       1.57404104       0.00000000 </v>
   <v>       0.00000000      -0.00000000      -0.49209489 </v>
  </varray>
  <energy>
   <i name="e_fr_energy">    -48.50192740 </i>
   <i name="e_wo_entrp">    -48.50192740 </i>
   <i name="e_0_energy">      0.00000000 </i>
  </energy>
  <time name="totalsc">  284.31  432.92</time>
  <eigenvalues>
   <array>
    <dimension dim="1">band</dimension>
    <dimension dim="2">kpoint</dimension>
    <dimension dim="3">spin</dimension>
    <field>eigene</field>
    <field>occ</field>
    <set>
     <set comment="spin 1">
      <set comment="kpoint 1">
       <r>  -17.6950    1.0000 </r>
       <r>  -16.5466    1.0000 </r>
       <r>  -15.4178    1.0000 </r>
       <r>  -15.4178    1.0000 </r>
       <r>  -15.4120    1.0000 </r>
       <r>  -15.4120    1.0000 </r>
       <r>  -13.8490    1.0000 </r>
       <r>  -11.5057    1.0000 </r>
       <r>   -8.4614    1.0000 </r>
       <r>   -8.4613    1.0000 </r>
       <r>   -8.1899    1.0000 </r>
       <r>   -7.8201    1.0000 </r>
       <r>   -7.8201    1.0000 </r>
       <r>   -7.6012    1.0000 </r>
       <r>   -6.2820    1.0000 </r>
       <r>   -5.7634    1.0000 </r>
       <r>   -5.6178    1.0000 </r>
       <r>   -5.6178    1.0000 </r>
       <r>   -5.2819    1.0000 </r>
       <r>   -5.2819    1.0000 </r>
       <r>   -4.7643    1.0000 </r>
       <r>   -4.7643    1.0000 </r>
       <r>   -4.6102    1.0000 </r>
       <r>   -3.8411    1.0000 </r>
       <r>   -3.8411    1.0000 </r>
       <r>   -3.7477    1.0000 </r>
       <r>   -3.7477    1.0000 </r>
       <r>   -3.5900    1.0000 </r>
       <r>   -3.5823    1.0000 </r>
       <r>   -3.3601    1.0000 </r>
       <r>   -3.3601    1.0000 </r>
       <r>   -1.9168   -0.2866 </r>
       <r>   -1.8178    0.0000 </r>
       <r>   -1.5067    0.0000 </r>
       <r>   -1.5067    0.0000 </r>
       <r>   -0.9557    0.0000 </r>
       <r>   -0.9557    0.0000 </r>
       <r>   -0.3681    0.0000 </r>
       <r>   -0.3680    0.0000 </r>
       <r>    0.3994    0.0000 </r>
       <r>    0.9342    0.0000 </r>
       <r>    0.9342    0.0000 </r>
       <r>    1.3576    0.0000 </r>
       <r>    1.6795    0.0000 </r>
       <r>    2.2929    0.0000 </r>
       <r>    2.6336    0.0000 </r>
       <r>    3.1591    0.0000 </r>
       <r>    3.2196    0.0000 </r>
      </set>
      <set comment="kpoint 2">
       <r>  -17.5812    1.0000 </r>
       <r>  -16.4607    1.0000 </r>
       <r>  -15.7173    1.0000 </r>
       <r>  -15.5260    1.0000 </r>
       <r>  -15.4746    1.0000 </r>
       <r>  -15.4370    1.0000 </r>
       <r>  -13.6277    1.0000 </r>
       <r>  -11.5283    1.0000 </r>
       <r>   -8.4147    1.0000 </r>
       <r>   -8.3169    1.0000 </r>
       <r>   -8.0367    1.0000 </r>
       <r>   -7.9753    1.0000 </r>
       <r>   -7.4401    1.0000 </r>
       <r>   -6.9048    1.0000 </r>
       <r>   -6.1740    1.0000 </r>
       <r>   -6.1144    1.0000 </r>
       <r>   -5.8354    1.0000 </r>
       <r>   -5.6262    1.0000 </r>
       <r>   -5.1983    1.0000 </r>
       <r>   -5.1201    1.0000 </r>
       <r>   -5.0556    1.0000 </r>
       <r>   -5.0227    1.0000 </r>
       <r>   -4.7847    1.0000 </r>
       <r>   -4.3977    1.0000 </r>
       <r>   -4.2610    1.0000 </r>
       <r>   -3.7727    1.0000 </r>
       <r>   -3.7170    1.0000 </r>
       <r>   -3.6439    1.0000 </r>
       <r>   -3.4893    1.0000 </r>
       <r>   -3.3407    1.0000 </r>
       <r>   -3.2331    1.0000 </r>
       <r>   -2.2720    0.8904 </r>
       <r>   -1.4457    0.0000 </r>
       <r>   -1.3980    0.0000 </r>
       <r>   -1.3839    0.0000 </r>
       <r>   -1.2175    0.0000 </r>
       <r>   -0.9053    0.0000 </r>
       <r>   -0.2959    0.0000 </r>
       <r>   -0.1452    0.0000 </r>
       <r>    0.3261    0.0000 </r>
       <r>    0.8523    0.0000 </r>
       <r>    0.8980    0.0000 </r>
       <r>    1.5682    0.0000 </r>
       <r>    1.8609    0.0000 </r>
       <r>    2.4889    0.0000 </r>
       <r>    2.6456    0.0000 </r>
       <r>    3.1040    0.0000 </r>
       <r>    3.3350    0.0000 </r>
      </set>
      <set comment="kpoint 3">
       <r>  -17.3211    1.0000 </r>
       <r>  -16.2670    1.0000 </r>
       <r>  -16.1966    1.0000 </r>
       <r>  -15.6528    1.0000 </r>
       <r>  -15.5867    1.0000 </r>
       <r>  -15.5809    1.0000 </r>
       <r>  -13.3359    1.0000 </r>
       <r>  -11.5357    1.0000 </r>
       <r>   -8.2562    1.0000 </r>
       <r>   -8.2181    1.0000 </r>
       <r>   -7.6720    1.0000 </r>
       <r>   -7.4692    1.0000 </r>
       <r>   -6.7656    1.0000 </r>
       <r>   -6.5870    1.0000 </r>
       <r>   -6.3394    1.0000 </r>
       <r>   -6.1963    1.0000 </r>
       <r>   -6.0701    1.0000 </r>
       <r>   -6.0050    1.0000 </r>
       <r>   -5.5706    1.0000 </r>
       <r>   -5.5399    1.0000 </r>
       <r>   -5.3208    1.0000 </r>
       <r>   -4.8793    1.0000 </r>
       <r>   -4.7533    1.0000 </r>
       <r>   -4.7233    1.0000 </r>
       <r>   -4.1661    1.0000 </r>
       <r>   -4.1122    1.0000 </r>
       <r>   -3.7417    1.0000 </r>
       <r>   -3.6005    1.0000 </r>
       <r>   -3.4382    1.0000 </r>
       <r>   -3.4096    1.0000 </r>
       <r>   -3.2814    1.0000 </r>
       <r>   -2.3392    1.0000 </r>
       <r>   -1.8614    0.0000 </r>
       <r>   -1.4756    0.0000 </r>
       <r>   -1.4227    0.0000 </r>
       <r>   -1.1149    0.0000 </r>
       <r>   -0.9768    0.0000 </r>
       <r>   -0.4766    0.0000 </r>
       <r>    0.2948    0.0000 </r>
       <r>    0.3409    0.0000 </r>
       <r>    0.4781    0.0000 </r>
       <r>    0.8757    0.0000 </r>
       <r>    2.1287    0.0000 </r>
       <r>    2.3753    0.0000 </r>
       <r>    2.4556    0.0000 </r>
       <r>    2.9030    0.0000 </r>
       <r>    2.9630    0.0000 </r>
       <r>    3.1327    0.0000 </r>
      </set>
      <set comment="kpoint 4">
       <r>  -17.3872    1.0000 </r>
       <r>  -16.3167    1.0000 </r>
       <r>  -16.0040    1.0000 </r>
       <r>  -15.7749    1.0000 </r>
       <r>  -15.5765    1.0000 </r>
       <r>  -15.4835    1.0000 </r>
       <r>  -13.3715    1.0000 </r>
       <r>  -11.5279    1.0000 </r>
       <r>   -8.4371    1.0000 </r>
       <r>   -7.9548    1.0000 </r>
       <r>   -7.8975    1.0000 </r>
       <r>   -7.7379    1.0000 </r>
       <r>   -6.8646    1.0000 </r>
       <r>   -6.3886    1.0000 </r>
       <r>   -6.3328    1.0000 </r>
       <r>   -6.1694    1.0000 </r>
       <r>   -5.9984    1.0000 </r>
       <r>   -5.9328    1.0000 </r>
       <r>   -5.7740    1.0000 </r>
       <r>   -5.4274    1.0000 </r>
       <r>   -5.4187    1.0000 </r>
       <r>   -4.7107    1.0000 </r>
       <r>   -4.7009    1.0000 </r>
       <r>   -4.3992    1.0000 </r>
       <r>   -4.2505    1.0000 </r>
       <r>   -4.0765    1.0000 </r>
       <r>   -3.8287    1.0000 </r>
       <r>   -3.6124    1.0000 </r>
       <r>   -3.4542    1.0000 </r>
       <r>   -3.3706    1.0000 </r>
       <r>   -3.2827    1.0000 </r>
       <r>   -2.4773    1.0000 </r>
       <r>   -1.6343    0.0000 </r>
       <r>   -1.4339    0.0000 </r>
       <r>   -1.3164    0.0000 </r>
       <r>   -1.2118    0.0000 </r>
       <r>   -1.0653    0.0000 </r>
       <r>   -0.2078    0.0000 </r>
       <r>   -0.1356    0.0000 </r>
       <r>    0.2804    0.0000 </r>
       <r>    0.6168    0.0000 </r>
       <r>    0.7418    0.0000 </r>
       <r>    1.9546    0.0000 </r>
       <r>    2.2191    0.0000 </r>
       <r>    2.7332    0.0000 </r>
       <r>    2.8683    0.0000 </r>
       <r>    3.1880    0.0000 </r>
       <r>    3.2494    0.0000 </r>
      </set>
      <set comment="kpoint 5">
       <r>  -17.2140    1.0000 </r>
       <r>  -16.2246    1.0000 </r>
       <r>  -16.1890    1.0000 </r>
       <r>  -15.9075    1.0000 </r>
       <r>  -15.6608    1.0000 </r>
       <r>  -15.5501    1.0000 </r>
       <r>  -13.2175    1.0000 </r>
       <r>  -11.5102    1.0000 </r>
       <r>   -8.2738    1.0000 </r>
       <r>   -7.8415    1.0000 </r>
       <r>   -7.8326    1.0000 </r>
       <r>   -7.3708    1.0000 </r>
       <r>   -7.0759    1.0000 </r>
       <r>   -6.5422    1.0000 </r>
       <r>   -6.1883    1.0000 </r>
       <r>   -6.1150    1.0000 </r>
       <r>   -6.0225    1.0000 </r>
       <r>   -5.9002    1.0000 </r>
       <r>   -5.8198    1.0000 </r>
       <r>   -5.6028    1.0000 </r>
       <r>   -5.4364    1.0000 </r>
       <r>   -4.9004    1.0000 </r>
       <r>   -4.4512    1.0000 </r>
       <r>   -4.4453    1.0000 </r>
       <r>   -4.2217    1.0000 </r>
       <r>   -4.1997    1.0000 </r>
       <r>   -3.7814    1.0000 </r>
       <r>   -3.7156    1.0000 </r>
       <r>   -3.4308    1.0000 </r>
       <r>   -3.4187    1.0000 </r>
       <r>   -3.3569    1.0000 </r>
       <r>   -2.4250    1.0000 </r>
       <r>   -1.9076    0.0000 </r>
       <r>   -1.7212    0.0000 </r>
       <r>   -1.3467    0.0000 </r>
       <r>   -1.0527    0.0000 </r>
       <r>   -1.0052    0.0000 </r>
       <r>   -0.5852    0.0000 </r>
       <r>   -0.0653    0.0000 </r>
       <r>    0.2304    0.0000 </r>
       <r>    0.4544    0.0000 </r>
       <r>    0.5708    0.0000 </r>
       <r>    2.5502    0.0000 </r>
       <r>    2.7347    0.0000 </r>
       <r>    2.7393    0.0000 </r>
       <r>    2.8105    0.0000 </r>
       <r>    2.9317    0.0000 </r>
       <r>    3.3693    0.0000 </r>
      </set>
     </set>
     <set comment="spin 2">
      <set comment="kpoint 1">
       <r>  -17.6731    1.0000 </r>
       <r>  -16.5600    1.0000 </r>
       <r>  -15.4455    1.0000 </r>
       <r>  -15.4454    1.0000 </r>
       <r>  -15.4342    1.0000 </r>
       <r>  -15.4342    1.0000 </r>
       <r>  -13.8143    1.0000 </r>
       <r>  -11.4682    1.0000 </r>
       <r>   -8.3538    1.0000 </r>
       <r>   -8.3538    1.0000 </r>
       <r>   -8.0698    1.0000 </r>
       <r>   -7.7286    1.0000 </r>
       <r>   -7.7286    1.0000 </r>
       <r>   -7.2976    1.0000 </r>
       <r>   -6.2076    1.0000 </r>
       <r>   -5.4292    1.0000 </r>
       <r>   -5.0584    1.0000 </r>
       <r>   -5.0583    1.0000 </r>
       <r>   -4.8408    1.0000 </r>
       <r>   -4.8408    1.0000 </r>
       <r>   -4.6242    1.0000 </r>
       <r>   -4.5694    1.0000 </r>
       <r>   -4.5693    1.0000 </r>
       <r>   -3.5683    1.0000 </r>
       <r>   -3.5683    1.0000 </r>
       <r>   -2.0991    0.0000 </r>
       <r>   -1.8683    0.0000 </r>
       <r>   -1.4720    0.0000 </r>
       <r>   -1.4719    0.0000 </r>
       <r>   -1.2847    0.0000 </r>
       <r>   -1.2847    0.0000 </r>
       <r>   -0.8513    0.0000 </r>
       <r>   -0.8188    0.0000 </r>
       <r>   -0.4135    0.0000 </r>
       <r>   -0.4135    0.0000 </r>
       <r>    0.0864    0.0000 </r>
       <r>    0.0864    0.0000 </r>
       <r>    0.2241    0.0000 </r>
       <r>    0.2241    0.0000 </r>
       <r>    0.4418    0.0000 </r>
       <r>    1.1603    0.0000 </r>
       <r>    1.1603    0.0000 </r>
       <r>    1.4340    0.0000 </r>
       <r>    1.6473    0.0000 </r>
       <r>    2.3996    0.0000 </r>
       <r>    3.1771    0.0000 </r>
       <r>    3.1821    0.0000 </r>
       <r>    3.5206    0.0000 </r>
      </set>
      <set comment="kpoint 2">
       <r>  -17.5613    1.0000 </r>
       <r>  -16.4735    1.0000 </r>
       <r>  -15.7291    1.0000 </r>
       <r>  -15.5524    1.0000 </r>
       <r>  -15.4952    1.0000 </r>
       <r>  -15.4608    1.0000 </r>
       <r>  -13.6071    1.0000 </r>
       <r>  -11.4893    1.0000 </r>
       <r>   -8.3198    1.0000 </r>
       <r>   -8.1893    1.0000 </r>
       <r>   -7.9081    1.0000 </r>
       <r>   -7.8574    1.0000 </r>
       <r>   -7.3384    1.0000 </r>
       <r>   -6.6656    1.0000 </r>
       <r>   -5.9905    1.0000 </r>
       <r>   -5.8024    1.0000 </r>
       <r>   -5.3685    1.0000 </r>
       <r>   -5.1394    1.0000 </r>
       <r>   -5.0881    1.0000 </r>
       <r>   -4.7956    1.0000 </r>
       <r>   -4.6777    1.0000 </r>
       <r>   -4.6749    1.0000 </r>
       <r>   -4.4683    1.0000 </r>
       <r>   -4.3759    1.0000 </r>
       <r>   -3.9001    1.0000 </r>
       <r>   -2.0802    0.3882 </r>
       <r>   -1.8734    0.0000 </r>
       <r>   -1.4794    0.0000 </r>
       <r>   -1.3695    0.0000 </r>
       <r>   -1.1993    0.0000 </r>
       <r>   -1.0906    0.0000 </r>
       <r>   -0.8512    0.0000 </r>
       <r>   -0.6632    0.0000 </r>
       <r>   -0.3835    0.0000 </r>
       <r>   -0.3374    0.0000 </r>
       <r>   -0.1360    0.0000 </r>
       <r>   -0.0893    0.0000 </r>
       <r>   -0.0323    0.0000 </r>
       <r>    0.4430    0.0000 </r>
       <r>    0.5834    0.0000 </r>
       <r>    1.1299    0.0000 </r>
       <r>    1.2100    0.0000 </r>
       <r>    1.6365    0.0000 </r>
       <r>    1.8430    0.0000 </r>
       <r>    2.5950    0.0000 </r>
       <r>    3.0956    0.0000 </r>
       <r>    3.3307    0.0000 </r>
       <r>    3.4053    0.0000 </r>
      </set>
      <set comment="kpoint 3">
       <r>  -17.3066    1.0000 </r>
       <r>  -16.2771    1.0000 </r>
       <r>  -16.1937    1.0000 </r>
       <r>  -15.6800    1.0000 </r>
       <r>  -15.6120    1.0000 </r>
       <r>  -15.5947    1.0000 </r>
       <r>  -13.3298    1.0000 </r>
       <r>  -11.4939    1.0000 </r>
       <r>   -8.1678    1.0000 </r>
       <r>   -8.0822    1.0000 </r>
       <r>   -7.5765    1.0000 </r>
       <r>   -7.3711    1.0000 </r>
       <r>   -6.6713    1.0000 </r>
       <r>   -6.3630    1.0000 </r>
       <r>   -6.0976    1.0000 </r>
       <r>   -5.9391    1.0000 </r>
       <r>   -5.6636    1.0000 </r>
       <r>   -5.6457    1.0000 </r>
       <r>   -5.3367    1.0000 </r>
       <r>   -5.2301    1.0000 </r>
       <r>   -4.8688    1.0000 </r>
       <r>   -4.5943    1.0000 </r>
       <r>   -4.4995    1.0000 </r>
       <r>   -4.3661    1.0000 </r>
       <r>   -4.1029    1.0000 </r>
       <r>   -2.8010    1.0166 </r>
       <r>   -2.0808    0.0177 </r>
       <r>   -1.5583    0.0000 </r>
       <r>   -1.2794    0.0000 </r>
       <r>   -1.1118    0.0000 </r>
       <r>   -1.0708    0.0000 </r>
       <r>   -0.9976    0.0000 </r>
       <r>   -0.6548    0.0000 </r>
       <r>   -0.6233    0.0000 </r>
       <r>   -0.2397    0.0000 </r>
       <r>   -0.1381    0.0000 </r>
       <r>    0.0158    0.0000 </r>
       <r>    0.0371    0.0000 </r>
       <r>    0.6731    0.0000 </r>
       <r>    0.7718    0.0000 </r>
       <r>    0.8723    0.0000 </r>
       <r>    1.1642    0.0000 </r>
       <r>    2.1776    0.0000 </r>
       <r>    2.3803    0.0000 </r>
       <r>    2.8065    0.0000 </r>
       <r>    3.0111    0.0000 </r>
       <r>    3.0243    0.0000 </r>
       <r>    3.2200    0.0000 </r>
      </set>
      <set comment="kpoint 4">
       <r>  -17.3712    1.0000 </r>
       <r>  -16.3278    1.0000 </r>
       <r>  -16.0063    1.0000 </r>
       <r>  -15.7891    1.0000 </r>
       <r>  -15.6019    1.0000 </r>
       <r>  -15.5072    1.0000 </r>
       <r>  -13.3649    1.0000 </r>
       <r>  -11.4862    1.0000 </r>
       <r>   -8.3136    1.0000 </r>
       <r>   -7.8587    1.0000 </r>
       <r>   -7.7806    1.0000 </r>
       <r>   -7.6473    1.0000 </r>
       <r>   -6.7532    1.0000 </r>
       <r>   -6.1475    1.0000 </r>
       <r>   -6.0676    1.0000 </r>
       <r>   -5.8425    1.0000 </r>
       <r>   -5.7154    1.0000 </r>
       <r>   -5.6733    1.0000 </r>
       <r>   -5.4974    1.0000 </r>
       <r>   -5.1129    1.0000 </r>
       <r>   -4.8692    1.0000 </r>
       <r>   -4.4517    1.0000 </r>
       <r>   -4.3743    1.0000 </r>
       <r>   -4.2214    1.0000 </r>
       <r>   -4.1242    1.0000 </r>
       <r>   -2.7472    1.0637 </r>
       <r>   -2.0791    0.0635 </r>
       <r>   -1.6225    0.0000 </r>
       <r>   -1.4922    0.0000 </r>
       <r>   -0.9931    0.0000 </r>
       <r>   -0.9490    0.0000 </r>
       <r>   -0.9076    0.0000 </r>
       <r>   -0.7243    0.0000 </r>
       <r>   -0.5155    0.0000 </r>
       <r>   -0.4404    0.0000 </r>
       <r>   -0.0413    0.0000 </r>
       <r>    0.0642    0.0000 </r>
       <r>    0.1689    0.0000 </r>
       <r>    0.3805    0.0000 </r>
       <r>    0.6358    0.0000 </r>
       <r>    0.9032    0.0000 </r>
       <r>    1.1656    0.0000 </r>
       <r>    2.0041    0.0000 </r>
       <r>    2.2196    0.0000 </r>
       <r>    2.9677    0.0000 </r>
       <r>    3.0728    0.0000 </r>
       <r>    3.3905    0.0000 </r>
       <r>    3.4412    0.0000 </r>
      </set>
      <set comment="kpoint 5">
       <r>  -17.2021    1.0000 </r>
       <r>  -16.2214    1.0000 </r>
       <r>  -16.1973    1.0000 </r>
       <r>  -15.9157    1.0000 </r>
       <r>  -15.6880    1.0000 </r>
       <r>  -15.5746    1.0000 </r>
       <r>  -13.2191    1.0000 </r>
       <r>  -11.4663    1.0000 </r>
       <r>   -8.1488    1.0000 </r>
       <r>   -7.7514    1.0000 </r>
       <r>   -7.7281    1.0000 </r>
       <r>   -7.3000    1.0000 </r>
       <r>   -6.9496    1.0000 </r>
       <r>   -6.3540    1.0000 </r>
       <r>   -5.9280    1.0000 </r>
       <r>   -5.7644    1.0000 </r>
       <r>   -5.6932    1.0000 </r>
       <r>   -5.6213    1.0000 </r>
       <r>   -5.5782    1.0000 </r>
       <r>   -5.2031    1.0000 </r>
       <r>   -4.8888    1.0000 </r>
       <r>   -4.5210    1.0000 </r>
       <r>   -4.3266    1.0000 </r>
       <r>   -4.1701    1.0000 </r>
       <r>   -4.1108    1.0000 </r>
       <r>   -3.1301    1.0000 </r>
       <r>   -2.3538    0.9411 </r>
       <r>   -1.7892    0.0000 </r>
       <r>   -1.6441    0.0000 </r>
       <r>   -1.0082    0.0000 </r>
       <r>   -0.9796    0.0000 </r>
       <r>   -0.9418    0.0000 </r>
       <r>   -0.8051    0.0000 </r>
       <r>   -0.5561    0.0000 </r>
       <r>   -0.3646    0.0000 </r>
       <r>   -0.0019    0.0000 </r>
       <r>    0.0270    0.0000 </r>
       <r>    0.1527    0.0000 </r>
       <r>    0.4854    0.0000 </r>
       <r>    0.6216    0.0000 </r>
       <r>    0.9561    0.0000 </r>
       <r>    0.9616    0.0000 </r>
       <r>    2.5780    0.0000 </r>
       <r>    2.7812    0.0000 </r>
       <r>    2.8536    0.0000 </r>
       <r>    2.8759    0.0000 </r>
       <r>    3.1148    0.0000 </r>
       <r>    3.4849    0.0000 </r>
      </set>
     </set>
    </set>
   </array>
  </eigenvalues>
  <separator name="orbital magnetization" >
   <v name="MAGDIPOLOUT">      0.00000000      0.00000000      0.00000000</v>
  </separator>
  <dos>
   <i name="efermi">     -2.20280069 </i>
   <total>
    <array>
     <dimension dim="1">gridpoints</dimension>
     <dimension dim="2">spin</dimension>
     <field>energy</field>
     <field>total</field>
     <field>integrated</field>
     <set>
      <set comment="spin 1">
       <r>   -18.7558     0.0000     0.0000 </r>
       <r>   -18.6780     0.0000     0.0000 </r>
       <r>   -18.6002     0.0000     0.0000 </r>
       <r>   -18.5224     0.0000     0.0000 </r>
       <r>   -18.4447     0.0000     0.0000 </r>
       <r>   -18.3669     0.0000     0.0000 </r>
       <r>   -18.2891     0.0000     0.0000 </r>
       <r>   -18.2113     0.0000     0.0000 </r>
       <r>   -18.1335     0.0000     0.0000 </r>
       <r>   -18.0557     0.0000     0.0000 </r>
       <r>   -17.9779     0.0000     0.0000 </r>
       <r>   -17.9001     0.0000     0.0000 </r>
       <r>   -17.8223     0.0000     0.0000 </r>
       <r>   -17.7445     0.0000     0.0000 </r>
       <r>   -17.6668     0.5242     0.0074 </r>
       <r>   -17.5890     1.9657     0.1043 </r>
       <r>   -17.5112     1.4567     0.2144 </r>
       <r>   -17.4334     1.7005     0.3372 </r>
       <r>   -17.3556     2.5414     0.4884 </r>
       <r>   -17.2778     3.8618     0.7927 </r>
       <r>   -17.2000     0.0000     1.0000 </r>
       <r>   -17.1222     0.0000     1.0000 </r>
       <r>   -17.0444     0.0000     1.0000 </r>
       <r>   -16.9666     0.0000     1.0000 </r>
       <r>   -16.8888     0.0000     1.0000 </r>
       <r>   -16.8111     0.0000     1.0000 </r>
       <r>   -16.7333     0.0000     1.0000 </r>
       <r>   -16.6555     0.0000     1.0000 </r>
       <r>   -16.5777     0.0000     1.0000 </r>
       <r>   -16.4999     1.5203     1.0355 </r>
       <r>   -16.4221     1.8839     1.1886 </r>
       <r>   -16.3443     2.3224     1.3522 </r>
       <r>   -16.2665    12.1635     1.6507 </r>
       <r>   -16.1887     3.8259     2.1706 </r>
       <r>   -16.1109     2.6363     2.4220 </r>
       <r>   -16.0331     1.4467     2.5808 </r>
       <r>   -15.9554     0.9735     2.6645 </r>
       <r>   -15.8776     2.8664     2.8345 </r>
       <r>   -15.7998     3.1537     3.0687 </r>
       <r>   -15.7220     3.6351     3.3303 </r>
       <r>   -15.6442     7.1974     3.7175 </r>
       <r>   -15.5664    12.8591     4.4930 </r>
       <r>   -15.4886     8.0812     5.4511 </r>
       <r>   -15.4108     0.0000     6.0000 </r>
       <r>   -15.3330     0.0000     6.0000 </r>
       <r>   -15.2552     0.0000     6.0000 </r>
       <r>   -15.1775     0.0000     6.0000 </r>
       <r>   -15.0997     0.0000     6.0000 </r>
       <r>   -15.0219     0.0000     6.0000 </r>
       <r>   -14.9441     0.0000     6.0000 </r>
       <r>   -14.8663     0.0000     6.0000 </r>
       <r>   -14.7885     0.0000     6.0000 </r>
       <r>   -14.7107     0.0000     6.0000 </r>
       <r>   -14.6329     0.0000     6.0000 </r>
       <r>   -14.5551     0.0000     6.0000 </r>
       <r>   -14.4773     0.0000     6.0000 </r>
       <r>   -14.3995     0.0000     6.0000 </r>
       <r>   -14.3218     0.0000     6.0000 </r>
       <r>   -14.2440     0.0000     6.0000 </r>
       <r>   -14.1662     0.0000     6.0000 </r>
       <r>   -14.0884     0.0000     6.0000 </r>
       <r>   -14.0106     0.0000     6.0000 </r>
       <r>   -13.9328     0.0000     6.0000 </r>
       <r>   -13.8550     0.0000     6.0000 </r>
       <r>   -13.7772     0.3517     6.0126 </r>
       <r>   -13.6994     0.7331     6.0548 </r>
       <r>   -13.6216     0.9536     6.1257 </r>
       <r>   -13.5439     1.1686     6.2083 </r>
       <r>   -13.4661     1.3837     6.3075 </r>
       <r>   -13.3883     1.5987     6.4235 </r>
       <r>   -13.3105     4.6548     6.6710 </r>
       <r>   -13.2327     2.0651     6.9324 </r>
       <r>   -13.1549     0.0000     7.0000 </r>
       <r>   -13.0771     0.0000     7.0000 </r>
       <r>   -12.9993     0.0000     7.0000 </r>
       <r>   -12.9215     0.0000     7.0000 </r>
       <r>   -12.8437     0.0000     7.0000 </r>
       <r>   -12.7659     0.0000     7.0000 </r>
       <r>   -12.6882     0.0000     7.0000 </r>
       <r>   -12.6104     0.0000     7.0000 </r>
       <r>   -12.5326     0.0000     7.0000 </r>
       <r>   -12.4548     0.0000     7.0000 </r>
       <r>   -12.3770     0.0000     7.0000 </r>
       <r>   -12.2992     0.0000     7.0000 </r>
       <r>   -12.2214     0.0000     7.0000 </r>
       <r>   -12.1436     0.0000     7.0000 </r>
       <r>   -12.0658     0.0000     7.0000 </r>
       <r>   -11.9880     0.0000     7.0000 </r>
       <r>   -11.9103     0.0000     7.0000 </r>
       <r>   -11.8325     0.0000     7.0000 </r>
       <r>   -11.7547     0.0000     7.0000 </r>
       <r>   -11.6769     0.0000     7.0000 </r>
       <r>   -11.5991     0.0000     7.0000 </r>
       <r>   -11.5213    28.3344     7.7109 </r>
       <r>   -11.4435     0.0000     8.0000 </r>
       <r>   -11.3657     0.0000     8.0000 </r>
       <r>   -11.2879     0.0000     8.0000 </r>
       <r>   -11.2101     0.0000     8.0000 </r>
       <r>   -11.1323     0.0000     8.0000 </r>
       <r>   -11.0546     0.0000     8.0000 </r>
       <r>   -10.9768     0.0000     8.0000 </r>
       <r>   -10.8990     0.0000     8.0000 </r>
       <r>   -10.8212     0.0000     8.0000 </r>
       <r>   -10.7434     0.0000     8.0000 </r>
       <r>   -10.6656     0.0000     8.0000 </r>
       <r>   -10.5878     0.0000     8.0000 </r>
       <r>   -10.5100     0.0000     8.0000 </r>
       <r>   -10.4322     0.0000     8.0000 </r>
       <r>   -10.3544     0.0000     8.0000 </r>
       <r>   -10.2767     0.0000     8.0000 </r>
       <r>   -10.1989     0.0000     8.0000 </r>
       <r>   -10.1211     0.0000     8.0000 </r>
       <r>   -10.0433     0.0000     8.0000 </r>
       <r>    -9.9655     0.0000     8.0000 </r>
       <r>    -9.8877     0.0000     8.0000 </r>
       <r>    -9.8099     0.0000     8.0000 </r>
       <r>    -9.7321     0.0000     8.0000 </r>
       <r>    -9.6543     0.0000     8.0000 </r>
       <r>    -9.5765     0.0000     8.0000 </r>
       <r>    -9.4987     0.0000     8.0000 </r>
       <r>    -9.4210     0.0000     8.0000 </r>
       <r>    -9.3432     0.0000     8.0000 </r>
       <r>    -9.2654     0.0000     8.0000 </r>
       <r>    -9.1876     0.0000     8.0000 </r>
       <r>    -9.1098     0.0000     8.0000 </r>
       <r>    -9.0320     0.0000     8.0000 </r>
       <r>    -8.9542     0.0000     8.0000 </r>
       <r>    -8.8764     0.0000     8.0000 </r>
       <r>    -8.7986     0.0000     8.0000 </r>
       <r>    -8.7208     0.0000     8.0000 </r>
       <r>    -8.6431     0.0000     8.0000 </r>
       <r>    -8.5653     0.0000     8.0000 </r>
[...]
        <r>  0.0015  0.0062  0.0036  0.0019  0.0011  0.0000  0.0017  0.0003  0.0019 </r>
        <r>  0.0000  0.0005  0.0000  0.0016  0.0009  0.0000  0.0000  0.0000  0.0028 </r>
        <r>  0.0014  0.0059  0.0035  0.0022  0.0018  0.0003  0.0017  0.0000  0.0012 </r>
       </set>
       <set comment="band 30">
        <r>  0.0038  0.0004  0.0016  0.0011  0.1486  0.0142  0.0601  0.0138  0.0480 </r>
        <r>  0.0038  0.0004  0.0016  0.0011  0.1486  0.0142  0.0601  0.0138  0.0480 </r>
        <r>  0.0000  0.0095  0.0000  0.0273  0.0000  0.0000  0.0000  0.0000  0.0000 </r>
        <r>  0.0000  0.0095  0.0000  0.0273  0.0000  0.0000  0.0000  0.0000  0.0000 </r>
        <r>  0.0034  0.0010  0.0020  0.0152  0.0006  0.0007  0.0004  0.0001  0.0004 </r>
        <r>  0.0000  0.0014  0.0000  0.0048  0.0008  0.0003  0.0000  0.0010  0.0022 </r>
        <r>  0.0035  0.0083  0.0021  0.0078  0.0000  0.0000  0.0004  0.0008  0.0010 </r>
        <r>  0.0034  0.0010  0.0020  0.0152  0.0006  0.0007  0.0004  0.0001  0.0004 </r>
        <r>  0.0000  0.0014  0.0000  0.0048  0.0008  0.0003  0.0000  0.0010  0.0022 </r>
        <r>  0.0035  0.0083  0.0021  0.0078  0.0000  0.0000  0.0004  0.0008  0.0010 </r>
       </set>
       <set comment="band 31">
        <r>  0.0007  0.0003  0.0002  0.0007  0.0300  0.0040  0.1682  0.0083  0.0902 </r>
        <r>  0.0007  0.0003  0.0002  0.0007  0.0300  0.0040  0.1682  0.0083  0.0902 </r>
        <r>  0.0065  0.0136  0.0212  0.0049  0.0000  0.0000  0.0000  0.0000  0.0000 </r>
        <r>  0.0065  0.0136  0.0212  0.0049  0.0000  0.0000  0.0000  0.0000  0.0000 </r>
        <r>  0.0012  0.0012  0.0003  0.0007  0.0005  0.0005  0.0000  0.0010  0.0001 </r>
        <r>  0.0020  0.0121  0.0014  0.0039  0.0003  0.0006  0.0017  0.0002  0.0001 </r>
        <r>  0.0011  0.0001  0.0002  0.0019  0.0003  0.0004  0.0000  0.0011  0.0003 </r>
        <r>  0.0012  0.0012  0.0003  0.0007  0.0005  0.0005  0.0000  0.0010  0.0001 </r>
        <r>  0.0020  0.0121  0.0014  0.0039  0.0003  0.0006  0.0017  0.0002  0.0001 </r>
        <r>  0.0011  0.0001  0.0002  0.0019  0.0003  0.0004  0.0000  0.0011  0.0003 </r>
       </set>
       <set comment="band 32">
        <r>  0.0002  0.0005  0.0001  0.0002  0.1019  0.0334  0.0512  0.0205  0.2200 </r>
        <r>  0.0002  0.0005  0.0001  0.0002  0.1019  0.0334  0.0512  0.0205  0.2200 </r>
        <r>  0.0000  0.0010  0.0000  0.0030  0.0000  0.0000  0.0000  0.0000  0.0000 </r>
        <r>  0.0000  0.0010  0.0000  0.0030  0.0000  0.0000  0.0000  0.0000  0.0000 </r>
        <r>  0.0004  0.0031  0.0011  0.0015  0.0009  0.0001  0.0004  0.0000  0.0001 </r>
        <r>  0.0000  0.0003  0.0000  0.0011  0.0001  0.0002  0.0000  0.0006  0.0002 </r>
        <r>  0.0004  0.0031  0.0011  0.0016  0.0002  0.0001  0.0004  0.0001  0.0008 </r>
        <r>  0.0004  0.0031  0.0011  0.0015  0.0009  0.0001  0.0004  0.0000  0.0001 </r>
        <r>  0.0000  0.0003  0.0000  0.0011  0.0001  0.0002  0.0000  0.0006  0.0002 </r>
        <r>  0.0004  0.0031  0.0011  0.0016  0.0002  0.0001  0.0004  0.0001  0.0008 </r>
       </set>
       <set comment="band 33">
        <r>  0.0024  0.0004  0.0012  0.0005  0.0791  0.0156  0.0739  0.0286  0.0342 </r>
        <r>  0.0024  0.0004  0.0012  0.0005  0.0791  0.0156  0.0739  0.0286  0.0342 </r>
        <r>  0.0063  0.0114  0.0418  0.0038  0.0000  0.0000  0.0000  0.0000  0.0000 </r>
        <r>  0.0063  0.0114  0.0418  0.0038  0.0000  0.0000  0.0000  0.0000  0.0000 </r>
        <r>  0.0010  0.0017  0.0021  0.0035  0.0002  0.0003  0.0003  0.0027  0.0005 </r>
        <r>  0.0071  0.0040  0.0001  0.0013  0.0000  0.0008  0.0002  0.0003  0.0000 </r>
        <r>  0.0010  0.0016  0.0021  0.0036  0.0006  0.0021  0.0003  0.0009  0.0000 </r>
        <r>  0.0010  0.0017  0.0021  0.0035  0.0002  0.0003  0.0003  0.0027  0.0005 </r>
        <r>  0.0071  0.0040  0.0001  0.0013  0.0000  0.0008  0.0002  0.0003  0.0000 </r>
        <r>  0.0010  0.0016  0.0021  0.0036  0.0006  0.0021  0.0003  0.0009  0.0000 </r>
       </set>
       <set comment="band 34">
        <r>  0.0001  0.0001  0.0012  0.0000  0.0263  0.0800  0.1682  0.0294  0.0105 </r>
        <r>  0.0001  0.0001  0.0012  0.0000  0.0263  0.0800  0.1682  0.0294  0.0105 </r>
        <r>  0.0000  0.0022  0.0000  0.0067  0.0000  0.0000  0.0000  0.0000  0.0000 </r>
        <r>  0.0000  0.0022  0.0000  0.0067  0.0000  0.0000  0.0000  0.0000  0.0000 </r>
        <r>  0.0023  0.0001  0.0075  0.0147  0.0013  0.0001  0.0004  0.0003  0.0004 </r>
        <r>  0.0000  0.0006  0.0000  0.0019  0.0005  0.0000  0.0000  0.0001  0.0014 </r>
        <r>  0.0023  0.0109  0.0076  0.0038  0.0003  0.0001  0.0004  0.0003  0.0014 </r>
        <r>  0.0023  0.0001  0.0075  0.0147  0.0013  0.0001  0.0004  0.0003  0.0004 </r>
        <r>  0.0000  0.0006  0.0000  0.0019  0.0005  0.0000  0.0000  0.0001  0.0014 </r>
        <r>  0.0023  0.0109  0.0076  0.0038  0.0003  0.0001  0.0004  0.0003  0.0014 </r>
       </set>
       <set comment="band 35">
        <r>  0.0015  0.0002  0.0024  0.0005  0.0212  0.0099  0.0228  0.0288  0.0240 </r>
        <r>  0.0015  0.0002  0.0024  0.0005  0.0212  0.0099  0.0228  0.0288  0.0240 </r>
        <r>  0.0003  0.0316  0.0016  0.0106  0.0000  0.0000  0.0000  0.0000  0.0000 </r>
        <r>  0.0003  0.0316  0.0016  0.0106  0.0000  0.0000  0.0000  0.0000  0.0000 </r>
        <r>  0.0015  0.0010  0.0036  0.0122  0.0029  0.0003  0.0000  0.0004  0.0005 </r>
        <r>  0.0062  0.0473  0.0072  0.0159  0.0008  0.0023  0.0000  0.0008  0.0003 </r>
        <r>  0.0015  0.0067  0.0036  0.0066  0.0014  0.0001  0.0000  0.0006  0.0020 </r>
        <r>  0.0015  0.0010  0.0036  0.0122  0.0029  0.0003  0.0000  0.0004  0.0005 </r>
        <r>  0.0062  0.0473  0.0072  0.0159  0.0008  0.0023  0.0000  0.0008  0.0003 </r>
        <r>  0.0015  0.0067  0.0036  0.0066  0.0014  0.0001  0.0000  0.0006  0.0020 </r>
       </set>
       <set comment="band 36">
        <r>  0.0001  0.0002  0.0000  0.0008  0.1114  0.0378  0.0095  0.1132  0.0344 </r>
        <r>  0.0001  0.0002  0.0000  0.0008  0.1114  0.0378  0.0095  0.1132  0.0344 </r>
        <r>  0.0087  0.0008  0.0106  0.0004  0.0000  0.0000  0.0000  0.0000  0.0000 </r>
        <r>  0.0087  0.0008  0.0106  0.0004  0.0000  0.0000  0.0000  0.0000  0.0000 </r>
        <r>  0.0018  0.0055  0.0008  0.0106  0.0000  0.0010  0.0000  0.0000  0.0001 </r>
        <r>  0.0045  0.0223  0.0103  0.0071  0.0004  0.0004  0.0004  0.0001  0.0001 </r>
        <r>  0.0014  0.0063  0.0006  0.0105  0.0000  0.0002  0.0000  0.0009  0.0001 </r>
        <r>  0.0018  0.0055  0.0008  0.0106  0.0000  0.0010  0.0000  0.0000  0.0001 </r>
        <r>  0.0045  0.0223  0.0103  0.0071  0.0004  0.0004  0.0004  0.0001  0.0001 </r>
        <r>  0.0014  0.0063  0.0006  0.0105  0.0000  0.0002  0.0000  0.0009  0.0001 </r>
       </set>
       <set comment="band 37">
        <r>  0.0022  0.0012  0.0002  0.0007  0.0236  0.0448  0.0225  0.1354  0.0502 </r>
        <r>  0.0022  0.0012  0.0002  0.0007  0.0236  0.0448  0.0225  0.1354  0.0502 </r>
        <r>  0.0000  0.0041  0.0000  0.0120  0.0000  0.0000  0.0000  0.0000  0.0000 </r>
        <r>  0.0000  0.0041  0.0000  0.0120  0.0000  0.0000  0.0000  0.0000  0.0000 </r>
        <r>  0.0067  0.0193  0.0034  0.0056  0.0001  0.0003  0.0003  0.0004  0.0002 </r>
        <r>  0.0000  0.0036  0.0000  0.0113  0.0002  0.0010  0.0000  0.0032  0.0008 </r>
        <r>  0.0070  0.0108  0.0036  0.0133  0.0001  0.0004  0.0003  0.0003  0.0003 </r>
        <r>  0.0067  0.0193  0.0034  0.0056  0.0001  0.0003  0.0003  0.0004  0.0002 </r>
        <r>  0.0000  0.0036  0.0000  0.0113  0.0002  0.0010  0.0000  0.0032  0.0008 </r>
        <r>  0.0070  0.0108  0.0036  0.0133  0.0001  0.0004  0.0003  0.0003  0.0003 </r>
       </set>
       <set comment="band 38">
        <r>  0.0000  0.0005  0.0000  0.0002  0.0081  0.1933  0.0173  0.0685  0.0229 </r>
        <r>  0.0000  0.0005  0.0000  0.0002  0.0081  0.1933  0.0173  0.0685  0.0229 </r>
        <r>  0.0058  0.0004  0.0129  0.0001  0.0000  0.0000  0.0000  0.0000  0.0000 </r>
        <r>  0.0058  0.0004  0.0129  0.0001  0.0000  0.0000  0.0000  0.0000  0.0000 </r>
        <r>  0.0009  0.0038  0.0081  0.0202  0.0001  0.0010  0.0001  0.0006  0.0010 </r>
        <r>  0.0020  0.0047  0.0029  0.0016  0.0001  0.0001  0.0000  0.0000  0.0000 </r>
        <r>  0.0009  0.0162  0.0081  0.0079  0.0010  0.0012  0.0001  0.0005  0.0001 </r>
        <r>  0.0009  0.0038  0.0081  0.0202  0.0001  0.0010  0.0001  0.0006  0.0010 </r>
        <r>  0.0020  0.0047  0.0029  0.0016  0.0001  0.0001  0.0000  0.0000  0.0000 </r>
        <r>  0.0009  0.0162  0.0081  0.0079  0.0010  0.0012  0.0001  0.0005  0.0001 </r>
       </set>
       <set comment="band 39">
        <r>  0.0020  0.0006  0.0003  0.0003  0.0332  0.1030  0.0025  0.0629  0.0114 </r>
        <r>  0.0020  0.0006  0.0003  0.0003  0.0332  0.1030  0.0025  0.0629  0.0114 </r>
        <r>  0.0000  0.0047  0.0000  0.0141  0.0000  0.0000  0.0000  0.0000  0.0000 </r>
        <r>  0.0000  0.0047  0.0000  0.0141  0.0000  0.0000  0.0000  0.0000  0.0000 </r>
        <r>  0.0015  0.0328  0.0008  0.0171  0.0007  0.0023  0.0000  0.0009  0.0004 </r>
        <r>  0.0000  0.0068  0.0000  0.0203  0.0002  0.0001  0.0000  0.0003  0.0007 </r>
        <r>  0.0015  0.0386  0.0008  0.0112  0.0007  0.0021  0.0000  0.0011  0.0003 </r>
        <r>  0.0015  0.0328  0.0008  0.0171  0.0007  0.0023  0.0000  0.0009  0.0004 </r>
        <r>  0.0000  0.0068  0.0000  0.0203  0.0002  0.0001  0.0000  0.0003  0.0007 </r>
        <r>  0.0015  0.0386  0.0008  0.0112  0.0007  0.0021  0.0000  0.0011  0.0003 </r>
       </set>
       <set comment="band 40">
        <r>  0.0099  0.0007  0.0021  0.0005  0.0105  0.0055  0.0440  0.0058  0.0292 </r>
        <r>  0.0099  0.0007  0.0021  0.0005  0.0105  0.0055  0.0440  0.0058  0.0292 </r>
        <r>  0.0028  0.0575  0.0155  0.0191  0.0000  0.0000  0.0000  0.0000  0.0000 </r>
        <r>  0.0028  0.0575  0.0155  0.0191  0.0000  0.0000  0.0000  0.0000  0.0000 </r>
        <r>  0.0006  0.0053  0.0026  0.0034  0.0026  0.0001  0.0003  0.0001  0.0015 </r>
        <r>  0.0121  0.0286  0.0051  0.0097  0.0015  0.0013  0.0002  0.0004  0.0005 </r>
        <r>  0.0006  0.0012  0.0026  0.0077  0.0033  0.0002  0.0003  0.0000  0.0008 </r>
        <r>  0.0006  0.0053  0.0026  0.0034  0.0026  0.0001  0.0003  0.0001  0.0015 </r>
        <r>  0.0121  0.0286  0.0051  0.0097  0.0015  0.0013  0.0002  0.0004  0.0005 </r>
        <r>  0.0006  0.0012  0.0026  0.0077  0.0033  0.0002  0.0003  0.0000  0.0008 </r>
       </set>
       <set comment="band 41">
        <r>  0.0013  0.0028  0.0000  0.0015  0.0501  0.0244  0.0085  0.0493  0.0361 </r>
        <r>  0.0013  0.0028  0.0000  0.0015  0.0501  0.0244  0.0085  0.0493  0.0361 </r>
        <r>  0.0106  0.0058  0.0542  0.0042  0.0000  0.0000  0.0000  0.0000  0.0000 </r>
        <r>  0.0106  0.0058  0.0542  0.0042  0.0000  0.0000  0.0000  0.0000  0.0000 </r>
        <r>  0.0018  0.0014  0.0163  0.0011  0.0004  0.0004  0.0000  0.0014  0.0001 </r>
        <r>  0.0027  0.0056  0.0288  0.0013  0.0015  0.0003  0.0004  0.0001  0.0006 </r>
        <r>  0.0015  0.0011  0.0171  0.0015  0.0002  0.0017  0.0001  0.0000  0.0007 </r>
        <r>  0.0018  0.0014  0.0163  0.0011  0.0004  0.0004  0.0000  0.0014  0.0001 </r>
        <r>  0.0027  0.0056  0.0288  0.0013  0.0015  0.0003  0.0004  0.0001  0.0006 </r>
        <r>  0.0015  0.0011  0.0171  0.0015  0.0002  0.0017  0.0001  0.0000  0.0007 </r>
       </set>
       <set comment="band 42">
        <r>  0.0041  0.0006  0.0010  0.0001  0.0040  0.0392  0.0084  0.0471  0.0164 </r>
        <r>  0.0041  0.0006  0.0010  0.0001  0.0040  0.0392  0.0084  0.0471  0.0164 </r>
        <r>  0.0001  0.0185  0.0003  0.0493  0.0000  0.0000  0.0000  0.0000  0.0000 </r>
        <r>  0.0001  0.0185  0.0003  0.0493  0.0000  0.0000  0.0000  0.0000  0.0000 </r>
        <r>  0.0022  0.0070  0.0013  0.0338  0.0011  0.0002  0.0008  0.0002  0.0025 </r>
        <r>  0.0000  0.0068  0.0001  0.0223  0.0010  0.0001  0.0000  0.0005  0.0027 </r>
        <r>  0.0025  0.0378  0.0004  0.0029  0.0007  0.0001  0.0008  0.0003  0.0025 </r>
        <r>  0.0022  0.0070  0.0013  0.0338  0.0011  0.0002  0.0008  0.0002  0.0025 </r>
        <r>  0.0000  0.0068  0.0001  0.0223  0.0010  0.0001  0.0000  0.0005  0.0027 </r>
        <r>  0.0025  0.0378  0.0004  0.0029  0.0007  0.0001  0.0008  0.0003  0.0025 </r>
       </set>
       <set comment="band 43">
        <r>  0.0002  0.0012  0.0002  0.0028  0.0001  0.0023  0.0032  0.0015  0.0001 </r>
        <r>  0.0002  0.0012  0.0002  0.0028  0.0001  0.0023  0.0032  0.0015  0.0001 </r>
        <r>  0.0013  0.0009  0.0033  0.0003  0.0000  0.0000  0.0000  0.0000  0.0000 </r>
        <r>  0.0013  0.0009  0.0033  0.0003  0.0000  0.0000  0.0000  0.0000  0.0000 </r>
        <r>  0.0004  0.0003  0.0021  0.0029  0.0001  0.0000  0.0007  0.0005  0.0001 </r>
        <r>  0.0026  0.0017  0.0031  0.0006  0.0003  0.0007  0.0027  0.0002  0.0001 </r>
        <r>  0.0004  0.0015  0.0021  0.0017  0.0000  0.0003  0.0007  0.0003  0.0001 </r>
        <r>  0.0004  0.0003  0.0021  0.0029  0.0001  0.0000  0.0007  0.0005  0.0001 </r>
        <r>  0.0026  0.0017  0.0031  0.0006  0.0003  0.0007  0.0027  0.0002  0.0001 </r>
        <r>  0.0004  0.0015  0.0021  0.0017  0.0000  0.0003  0.0007  0.0003  0.0001 </r>
       </set>
       <set comment="band 44">
        <r>  0.0004  0.0027  0.0010  0.0018  0.0029  0.0002  0.0008  0.0003  0.0037 </r>
        <r>  0.0004  0.0027  0.0010  0.0018  0.0029  0.0002  0.0008  0.0003  0.0037 </r>
        <r>  0.0000  0.0012  0.0000  0.0034  0.0000  0.0000  0.0000  0.0000  0.0000 </r>
        <r>  0.0000  0.0012  0.0000  0.0034  0.0000  0.0000  0.0000  0.0000  0.0000 </r>
        <r>  0.0009  0.0004  0.0065  0.0033  0.0001  0.0007  0.0018  0.0007  0.0003 </r>
        <r>  0.0000  0.0002  0.0000  0.0006  0.0001  0.0006  0.0000  0.0018  0.0002 </r>
        <r>  0.0009  0.0035  0.0065  0.0002  0.0001  0.0002  0.0018  0.0012  0.0003 </r>
        <r>  0.0009  0.0004  0.0065  0.0033  0.0001  0.0007  0.0018  0.0007  0.0003 </r>
        <r>  0.0000  0.0002  0.0000  0.0006  0.0001  0.0006  0.0000  0.0018  0.0002 </r>
        <r>  0.0009  0.0035  0.0065  0.0002  0.0001  0.0002  0.0018  0.0012  0.0003 </r>
       </set>
       <set comment="band 45">
        <r>  0.0023  0.0002  0.0002  0.0003  0.0017  0.0013  0.0058  0.0008  0.0026 </r>
        <r>  0.0023  0.0002  0.0002  0.0003  0.0017  0.0013  0.0058  0.0008  0.0026 </r>
        <r>  0.0000  0.0001  0.0000  0.0002  0.0000  0.0000  0.0000  0.0000  0.0000 </r>
        <r>  0.0000  0.0001  0.0000  0.0002  0.0000  0.0000  0.0000  0.0000  0.0000 </r>
        <r>  0.0019  0.0009  0.0050  0.0004  0.0000  0.0001  0.0012  0.0003  0.0001 </r>
        <r>  0.0000  0.0008  0.0000  0.0023  0.0000  0.0001  0.0000  0.0003  0.0001 </r>
        <r>  0.0019  0.0005  0.0050  0.0009  0.0001  0.0001  0.0012  0.0003  0.0000 </r>
        <r>  0.0019  0.0009  0.0050  0.0004  0.0000  0.0001  0.0012  0.0003  0.0001 </r>
        <r>  0.0000  0.0008  0.0000  0.0023  0.0000  0.0001  0.0000  0.0003  0.0001 </r>
        <r>  0.0019  0.0005  0.0050  0.0009  0.0001  0.0001  0.0012  0.0003  0.0000 </r>
       </set>
       <set comment="band 46">
        <r>  0.0029  0.0001  0.0043  0.0001  0.0046  0.0004  0.0027  0.0005  0.0116 </r>
        <r>  0.0029  0.0001  0.0043  0.0001  0.0046  0.0004  0.0027  0.0005  0.0116 </r>
        <r>  0.0001  0.0015  0.0040  0.0005  0.0000  0.0000  0.0000  0.0000  0.0000 </r>
        <r>  0.0001  0.0015  0.0040  0.0005  0.0000  0.0000  0.0000  0.0000  0.0000 </r>
        <r>  0.0002  0.0011  0.0010  0.0005  0.0009  0.0018  0.0001  0.0003  0.0001 </r>
        <r>  0.0005  0.0006  0.0090  0.0002  0.0002  0.0015  0.0033  0.0005  0.0001 </r>
        <r>  0.0002  0.0001  0.0010  0.0016  0.0004  0.0009  0.0001  0.0012  0.0005 </r>
        <r>  0.0002  0.0011  0.0010  0.0005  0.0009  0.0018  0.0001  0.0003  0.0001 </r>
        <r>  0.0005  0.0006  0.0090  0.0002  0.0002  0.0015  0.0033  0.0005  0.0001 </r>
        <r>  0.0002  0.0001  0.0010  0.0016  0.0004  0.0009  0.0001  0.0012  0.0005 </r>
       </set>
       <set comment="band 47">
        <r>  0.0362  0.0044  0.0005  0.0035  0.0018  0.0010  0.0001  0.0004  0.0006 </r>
        <r>  0.0362  0.0044  0.0005  0.0035  0.0018  0.0010  0.0001  0.0004  0.0006 </r>
        <r>  0.0004  0.0049  0.0072  0.0016  0.0000  0.0000  0.0000  0.0000  0.0000 </r>
        <r>  0.0004  0.0049  0.0072  0.0016  0.0000  0.0000  0.0000  0.0000  0.0000 </r>
        <r>  0.0008  0.0015  0.0020  0.0006  0.0013  0.0089  0.0006  0.0005  0.0001 </r>
        <r>  0.0004  0.0036  0.0057  0.0012  0.0012  0.0029  0.0005  0.0010  0.0004 </r>
        <r>  0.0008  0.0001  0.0020  0.0021  0.0004  0.0045  0.0006  0.0050  0.0009 </r>
        <r>  0.0008  0.0015  0.0020  0.0006  0.0013  0.0089  0.0006  0.0005  0.0001 </r>
        <r>  0.0004  0.0036  0.0057  0.0012  0.0012  0.0029  0.0005  0.0010  0.0004 </r>
        <r>  0.0008  0.0001  0.0020  0.0021  0.0004  0.0045  0.0006  0.0050  0.0009 </r>
       </set>
       <set comment="band 48">
        <r>  0.0056  0.0010  0.0149  0.0009  0.0044  0.0001  0.0044  0.0002  0.0051 </r>
        <r>  0.0056  0.0010  0.0149  0.0009  0.0044  0.0001  0.0044  0.0002  0.0051 </r>
        <r>  0.0006  0.0013  0.0048  0.0004  0.0000  0.0000  0.0000  0.0000  0.0000 </r>
        <r>  0.0006  0.0013  0.0048  0.0004  0.0000  0.0000  0.0000  0.0000  0.0000 </r>
        <r>  0.0001  0.0002  0.0032  0.0010  0.0049  0.0023  0.0008  0.0006  0.0009 </r>
        <r>  0.0010  0.0002  0.0057  0.0001  0.0040  0.0048  0.0013  0.0016  0.0013 </r>
        <r>  0.0001  0.0011  0.0032  0.0000  0.0013  0.0001  0.0008  0.0029  0.0046 </r>
        <r>  0.0001  0.0002  0.0032  0.0010  0.0049  0.0023  0.0008  0.0006  0.0009 </r>
        <r>  0.0010  0.0002  0.0057  0.0001  0.0040  0.0048  0.0013  0.0016  0.0013 </r>
        <r>  0.0001  0.0011  0.0032  0.0000  0.0013  0.0001  0.0008  0.0029  0.0046 </r>
       </set>
      </set>
     </set>
    </set>
   </array>
  </projected>
 </calculation>
 <structure name="finalpos" >
  <crystal>
   <varray name="basis" >
    <v>       6.33854331       0.00000007      -0.00000000 </v>
    <v>       3.16927122       5.48933929      -0.00000000 </v>
    <v>      -0.00000000       0.00000000      21.94207962 </v>
   </varray>
   <i name="volume">    763.46181549 </i>
   <varray name="rec_basis" >
    <v>       0.15776496      -0.09108563       0.00000000 </v>
    <v>      -0.00000000       0.18217129      -0.00000000 </v>
    <v>       0.00000000      -0.00000000       0.04557453 </v>
   </varray>
  </crystal>
  <varray name="positions" >
   <v>       0.33333300       0.33333300       0.49992500 </v>
   <v>       0.66666700       0.66666700       0.50007500 </v>
   <v>      -0.00000000       0.00000000       0.44800594 </v>
   <v>      -0.00000000       0.00000000       0.55199406 </v>
   <v>       0.62944043       0.00023905       0.57096597 </v>
   <v>       0.00023905       0.37032153       0.57096597 </v>
   <v>       0.37032153       0.62944043       0.57096597 </v>
   <v>       0.37055957       0.99976095       0.42903403 </v>
   <v>       0.99976095       0.62967847       0.42903403 </v>
   <v>       0.62967847       0.37055957       0.42903403 </v>
  </varray>
  <varray name="selective"  type="logical" >
   <v type="logical" >  F  F  F </v>
   <v type="logical" >  F  F  F </v>
   <v type="logical" >  T  T  T </v>
   <v type="logical" >  T  T  T </v>
   <v type="logical" >  T  T  T </v>
   <v type="logical" >  T  T  T </v>
   <v type="logical" >  T  T  T </v>
   <v type="logical" >  T  T  T </v>
   <v type="logical" >  T  T  T </v>
   <v type="logical" >  T  T  T </v>
  </varray>
  <nose>
   <v>      -3.00000000       0.00000000       0.00010000       0.00010000 </v>
  </nose>
 </structure>
</modeling>
