unknown system                          
           1
     6.907777   -0.000000    0.000000
     3.453888    5.982310    0.000000
     0.000000    0.000000   23.444588
   Cr   P    Se
   2   2   6
Direct configuration=     1
   0.33333300  0.33333300  0.49992500
   0.66666700  0.66666700  0.50007500
   0.00000000  0.00000000  0.44821600
   0.00000000  0.00000000  0.55178400
   0.62635700  0.00042000  0.57375200
   0.00042000  0.37322400  0.57375200
   0.37322400  0.62635700  0.57375200
   0.37364300  0.99958000  0.42624800
   0.99958000  0.62677600  0.42624800
   0.62677600  0.37364300  0.42624800
unknown system                          
           1
     6.263415    0.000000   -0.000000
     3.131707    5.424276   -0.000000
    -0.000000    0.000000   21.753838
   Cr   P    Se
   2   2   6
Direct configuration=     2
   0.33333300  0.33333300  0.49992500
   0.66666700  0.66666700  0.50007500
  -0.00000000  0.00000000  0.44925028
  -0.00000000  0.00000000  0.55074972
   0.62897559  0.00037225  0.57100511
   0.00037225  0.37065315  0.57100511
   0.37065315  0.62897559  0.57100511
   0.37102441  0.99962775  0.42899489
   0.99962775  0.62934685  0.42899489
   0.62934685  0.37102441  0.42899489
unknown system                          
           1
     6.334539    0.000000   -0.000000
     3.167269    5.485871   -0.000000
    -0.000000    0.000000   21.940461
   Cr   P    Se
   2   2   6
Direct configuration=     3
   0.33333300  0.33333300  0.49992500
   0.66666700  0.66666700  0.50007500
  -0.00000000  0.00000000  0.44912725
  -0.00000000  0.00000000  0.55087275
   0.62865682  0.00037806  0.57133188
   0.00037806  0.37096611  0.57133188
   0.37096611  0.62865682  0.57133188
   0.37134318  0.99962194  0.42866812
   0.99962194  0.62903389  0.42866812
   0.62903389  0.37134318  0.42866812
unknown system                          
           1
     6.337097    0.000000   -0.000000
     3.168548    5.488087   -0.000000
    -0.000000    0.000000   21.941495
   Cr   P    Se
   2   2   6
Direct configuration=     4
   0.33333300  0.33333300  0.49992500
   0.66666700  0.66666700  0.50007500
  -0.00000000  0.00000000  0.44841088
  -0.00000000  0.00000000  0.55158912
   0.62915751  0.00028924  0.57109811
   0.00028924  0.37055426  0.57109811
   0.37055426  0.62915751  0.57109811
   0.37084249  0.99971076  0.42890189
   0.99971076  0.62944574  0.42890189
   0.62944574  0.37084249  0.42890189
unknown system                          
           1
     6.338543    0.000000   -0.000000
     3.169271    5.489339   -0.000000
    -0.000000    0.000000   21.942080
   Cr   P    Se
   2   2   6
Direct configuration=     5
   0.33333300  0.33333300  0.49992500
   0.66666700  0.66666700  0.50007500
  -0.00000000  0.00000000  0.44800594
  -0.00000000  0.00000000  0.55199406
   0.62944043  0.00023905  0.57096597
   0.00023905  0.37032153  0.57096597
   0.37032153  0.62944043  0.57096597
   0.37055957  0.99976095  0.42903403
   0.99976095  0.62967847  0.42903403
   0.62967847  0.37055957  0.42903403
