 vasp.5.4.4.18Apr17-6-g9f103f2a35 (build May  1 2020 15:48:39) complex           
 executed on             LinuxGNU date 2020.06.23  12:57:00
 running on   16 total cores
 distrk:  each k-point on   16 cores,    1 groups
 distr:  one band on NCORES_PER_BAND=   1 cores,   16 groups


--------------------------------------------------------------------------------------------------------


 INCAR:
 POTCAR:   PAW_PBE Co 06Sep2000                   
 POTCAR:   PAW_PBE Si 05Jan2001                   
 POTCAR:   PAW_PBE Se 06Sep2000                   

 ----------------------------------------------------------------------------- 
|                                                                             |
|           W    W    AA    RRRRR   N    N  II  N    N   GGGG   !!!           |
|           W    W   A  A   R    R  NN   N  II  NN   N  G    G  !!!           |
|           W    W  A    A  R    R  N N  N  II  N N  N  G       !!!           |
|           W WW W  AAAAAA  RRRRR   N  N N  II  N  N N  G  GGG   !            |
|           WW  WW  A    A  R   R   N   NN  II  N   NN  G    G                |
|           W    W  A    A  R    R  N    N  II  N    N   GGGG   !!!           |
|                                                                             |
|      For optimal performance we recommend to set                            |
|        NCORE= 4 - approx SQRT( number of cores)                             |
|      NCORE specifies how many cores store one orbital (NPAR=cpu/NCORE).     |
|      This setting can  greatly improve the performance of VASP for DFT.     |
|      The default,   NCORE=1            might be grossly inefficient         |
|      on modern multi-core architectures or massively parallel machines.     |
|      Do your own testing !!!!                                               |
|      Unfortunately you need to use the default for GW and RPA calculations. |
|      (for HF NCORE is supported but not extensively tested yet)             |
|                                                                             |
 ----------------------------------------------------------------------------- 


 ----------------------------------------------------------------------------- 
|                                                                             |
|  ADVICE TO THIS USER RUNNING 'VASP/VAMP'   (HEAR YOUR MASTER'S VOICE ...):  |
|                                                                             |
|      You have switched on vdW-DFT.                                          |
|      This routine was written and supplied by Jiri Klimes.                  |
|      We recommed that you carefully read and cite the following             |
|      publication                                                            |
|      J. Klimes, D.R. Bowler, A. Michelides                                  |
|        J. Phys.: Cond Matt. 22 022201 (2010)                                |
|      J. Klimes, D.R. Bowler, A. Michelides                                  |
|        Phys. Rev. B. 83, 195131 (2011)                                      |
|      and references therein.                                                |
|                                                                             |
 ----------------------------------------------------------------------------- 

 POTCAR:   PAW_PBE Co 06Sep2000                   
   VRHFIN =Co: d8 s1                                                            
   LEXCH  = PE                                                                  
   EATOM  =   813.5563 eV,   59.7947 Ry                                         
                                                                                
   TITEL  = PAW_PBE Co 06Sep2000                                                
   LULTRA =        F    use ultrasoft PP ?                                      
   IUNSCR =        1    unscreen: 0-lin 1-nonlin 2-no                           
   RPACOR =    2.000    partial core radius                                     
   POMASS =   58.933; ZVAL   =    9.000    mass and valenz                      
   RCORE  =    2.300    outmost cutoff radius                                   
   RWIGS  =    2.460; RWIGS  =    1.302    wigner-seitz radius (au A)           
   ENMAX  =  267.969; ENMIN  =  200.977 eV                                      
   RCLOC  =    1.697    cutoff for local pot                                    
   LCOR   =        T    correct aug charges                                     
   LPAW   =        T    paw PP                                                  
   EAUG   =  477.818                                                            
   DEXC   =    -.016                                                            
   RMAX   =    2.817    core radius for proj-oper                               
   RAUG   =    1.300    factor for augmentation sphere                          
   RDEP   =    2.393    radius for radial grids                                 
   QCUT   =   -4.438; QGAM   =    8.876    optimization parameters              
                                                                                
   Description                                                                  
     l     E      TYP  RCUT    TYP  RCUT                                        
     2   .000     23  2.300                                                     
     2   .000     23  2.300                                                     
     0   .000     23  2.300                                                     
     0   .000     23  2.300                                                     
     1  -.200     23  2.300                                                     
     1   .000     23  2.300                                                     
     3   .000      7   .000                                                     
  local pseudopotential read in
  partial core-charges read in
  atomic valenz-charges read in
  non local Contribution for L=           2  read in
    real space projection operators read in
  non local Contribution for L=           2  read in
    real space projection operators read in
  non local Contribution for L=           0  read in
    real space projection operators read in
  non local Contribution for L=           0  read in
    real space projection operators read in
  non local Contribution for L=           1  read in
    real space projection operators read in
  non local Contribution for L=           1  read in
    real space projection operators read in
    PAW grid and wavefunctions read in

   number of l-projection  operators is LMAX  =           6
   number of lm-projection operators is LMMAX =          18

 POTCAR:   PAW_PBE Si 05Jan2001                   
   VRHFIN =Si: s2p2                                                             
   LEXCH  = PE                                                                  
   EATOM  =   103.0669 eV,    7.5752 Ry                                         
                                                                                
   TITEL  = PAW_PBE Si 05Jan2001                                                
   LULTRA =        F    use ultrasoft PP ?                                      
   IUNSCR =        1    unscreen: 0-lin 1-nonlin 2-no                           
   RPACOR =    1.500    partial core radius                                     
   POMASS =   28.085; ZVAL   =    4.000    mass and valenz                      
   RCORE  =    1.900    outmost cutoff radius                                   
   RWIGS  =    2.480; RWIGS  =    1.312    wigner-seitz radius (au A)           
   ENMAX  =  245.345; ENMIN  =  184.009 eV                                      
   ICORE  =        2    local potential                                         
   LCOR   =        T    correct aug charges                                     
   LPAW   =        T    paw PP                                                  
   EAUG   =  322.069                                                            
   DEXC   =    -.007                                                            
   RMAX   =    2.944    core radius for proj-oper                               
   RAUG   =    1.300    factor for augmentation sphere                          
   RDEP   =    1.993    radius for radial grids                                 
   QCUT   =   -4.246; QGAM   =    8.493    optimization parameters              
                                                                                
   Description                                                                  
     l     E      TYP  RCUT    TYP  RCUT                                        
     0   .000     23  1.900                                                     
     0   .000     23  1.900                                                     
     1   .000     23  1.900                                                     
     1   .000     23  1.900                                                     
     2   .000      7  1.900                                                     
  local pseudopotential read in
  partial core-charges read in
  atomic valenz-charges read in
  non local Contribution for L=           0  read in
    real space projection operators read in
  non local Contribution for L=           0  read in
    real space projection operators read in
  non local Contribution for L=           1  read in
    real space projection operators read in
  non local Contribution for L=           1  read in
    real space projection operators read in
    PAW grid and wavefunctions read in

   number of l-projection  operators is LMAX  =           4
   number of lm-projection operators is LMMAX =           8

 POTCAR:   PAW_PBE Se 06Sep2000                   
   VRHFIN =Se: s2p4                                                             
   LEXCH  = PE                                                                  
   EATOM  =   256.9644 eV,   18.8864 Ry                                         
                                                                                
   TITEL  = PAW_PBE Se 06Sep2000                                                
   LULTRA =        F    use ultrasoft PP ?                                      
   IUNSCR =        1    unscreen: 0-lin 1-nonlin 2-no                           
   RPACOR =    1.900    partial core radius                                     
   POMASS =   78.960; ZVAL   =    6.000    mass and valenz                      
   RCORE  =    2.100    outmost cutoff radius                                   
   RWIGS  =    2.200; RWIGS  =    1.164    wigner-seitz radius (au A)           
   ENMAX  =  211.534; ENMIN  =  158.651 eV                                      
   ICORE  =        3    local potential                                         
   LCOR   =        T    correct aug charges                                     
   LPAW   =        T    paw PP                                                  
   EAUG   =  446.842                                                            
   DEXC   =    -.031                                                            
   RMAX   =    3.170    core radius for proj-oper                               
   RAUG   =    1.300    factor for augmentation sphere                          
   RDEP   =    2.177    radius for radial grids                                 
   QCUT   =   -3.943; QGAM   =    7.886    optimization parameters              
                                                                                
   Description                                                                  
     l     E      TYP  RCUT    TYP  RCUT                                        
     0   .000     23  2.100                                                     
     0   .000     23  2.100                                                     
     1   .000     23  2.100                                                     
     1   .000     23  2.100                                                     
     2   .000     23  2.100                                                     
     3  -.100      7  2.100                                                     
  local pseudopotential read in
  partial core-charges read in
  atomic valenz-charges read in
  non local Contribution for L=           0  read in
    real space projection operators read in
  non local Contribution for L=           0  read in
    real space projection operators read in
  non local Contribution for L=           1  read in
    real space projection operators read in
  non local Contribution for L=           1  read in
    real space projection operators read in
  non local Contribution for L=           2  read in
    real space projection operators read in
    PAW grid and wavefunctions read in

   number of l-projection  operators is LMAX  =           5
   number of lm-projection operators is LMMAX =          13

 Optimization of the real space projectors (new method)

 maximal supplied QI-value         = 16.25
 optimisation between [QCUT,QGAM] = [ 11.54, 23.24] = [ 37.28,151.24] Ry 
 Optimized for a Real-space Cutoff    1.53 Angstroem

   l    n(q)    QCUT    max X(q) W(low)/X(q) W(high)/X(q)  e(spline) 
   2     10    11.539     4.599    0.83E-05    0.15E-04    0.45E-07
   2     10    11.539    18.158    0.10E-03    0.14E-03    0.24E-06
   0     11    11.539    15.740    0.19E-04    0.12E-05    0.17E-07
   0     11    11.539    47.662    0.48E-04    0.15E-04    0.31E-06
   1     10    11.539     5.777    0.11E-04    0.46E-05    0.25E-07
   1     10    11.539     8.007    0.46E-04    0.29E-04    0.11E-06
 Optimization of the real space projectors (new method)

 maximal supplied QI-value         = 19.84
 optimisation between [QCUT,QGAM] = [ 11.51, 23.22] = [ 37.09,150.92] Ry 
 Optimized for a Real-space Cutoff    1.21 Angstroem

   l    n(q)    QCUT    max X(q) W(low)/X(q) W(high)/X(q)  e(spline) 
   0      8    11.508     8.708    0.18E-04    0.44E-05    0.47E-08
   0      8    11.508   106.241    0.70E-04    0.15E-03    0.51E-07
   1      8    11.508     5.901    0.63E-05    0.23E-04    0.21E-07
   1      8    11.508    73.241    0.15E-03    0.36E-04    0.79E-07
 Optimization of the real space projectors (new method)

 maximal supplied QI-value         = 17.95
 optimisation between [QCUT,QGAM] = [ 11.67, 23.34] = [ 38.13,152.52] Ry 
 Optimized for a Real-space Cutoff    1.25 Angstroem

   l    n(q)    QCUT    max X(q) W(low)/X(q) W(high)/X(q)  e(spline) 
   0      9    11.669     6.499    0.13E-04    0.81E-05    0.11E-07
   0      9    11.669    52.623    0.18E-03    0.46E-04    0.72E-07
   1      8    11.669     4.229    0.40E-04    0.45E-04    0.31E-07
   1      8    11.669    29.991    0.22E-03    0.36E-03    0.10E-06
   2      8    11.669     3.719    0.19E-03    0.46E-04    0.50E-07

 ----------------------------------------------------------------------------- 
|                                                                             |
|  ADVICE TO THIS USER RUNNING 'VASP/VAMP'   (HEAR YOUR MASTER'S VOICE ...):  |
|                                                                             |
|      You enforced a specific xc-type in the INCAR file,                     |
|      a different type was found on the POTCAR file                          |
|          I HOPE YOU KNOW, WHAT YOU ARE  DOING                               |
|                                                                             |
 ----------------------------------------------------------------------------- 

 PAW_PBE Co 06Sep2000                   :
 energy of atom  1       EATOM= -813.5563
 kinetic energy error for atom=    0.0028 (will be added to EATOM!!)
 PAW_PBE Si 05Jan2001                   :
 energy of atom  2       EATOM= -103.0669
 kinetic energy error for atom=    0.0005 (will be added to EATOM!!)
 PAW_PBE Se 06Sep2000                   :
 energy of atom  3       EATOM= -256.9644
 kinetic energy error for atom=    0.0007 (will be added to EATOM!!)


 POSCAR: Co2 Si2 Se6                             
  positions in direct lattice
  velocities in cartesian coordinates
  No initial velocities read in
 exchange correlation table for  LEXCH =       42
   RHO(1)=    0.500       N(1)  =     2000
   RHO(2)=  100.500       N(2)  =     4000



--------------------------------------------------------------------------------------------------------


 ion  position               nearest neighbor table
   1  0.333  0.333  0.500-   6 2.78   5 2.78   7 2.78   8 2.78  10 2.78   9 2.78
   2  0.667  0.667  0.500-   9 2.78   8 2.78  10 2.78   5 2.78   7 2.78   6 2.78
   3  0.000  0.000  0.448-   4 2.43   8 2.63  10 2.63   9 2.63
   4  0.000  0.000  0.552-   3 2.43   5 2.63   7 2.63   6 2.63
   5  0.626  0.000  0.574-   4 2.63   1 2.78   2 2.78
   6  0.000  0.373  0.574-   4 2.63   1 2.78   2 2.78
   7  0.373  0.626  0.574-   4 2.63   1 2.78   2 2.78
   8  0.374  1.000  0.426-   3 2.63   2 2.78   1 2.78
   9  1.000  0.627  0.426-   3 2.63   2 2.78   1 2.78
  10  0.627  0.374  0.426-   3 2.63   2 2.78   1 2.78

  LATTYP: Found a hexagonal cell.
 ALAT       =     6.9077769333
 C/A-ratio  =     3.3939410937
  
  Lattice vectors:
  
 A1 = (   3.4538890000,  -5.9823100000,   0.0000000000)
 A2 = (  -6.9077770000,   0.0000000000,   0.0000000000)
 A3 = (   0.0000000000,   0.0000000000, -23.4445880000)


Analysis of symmetry for initial positions (statically):
=====================================================================
 Subroutine PRICEL returns:
 Original cell was already a primitive cell.
 

 Routine SETGRP: Setting up the symmetry group for a 
 hexagonal supercell.


 Subroutine GETGRP returns: Found  6 space group operations
 (whereof  6 operations were pure point group operations)
 out of a pool of 24 trial point group operations.


The static configuration has the point symmetry S_6 .


Analysis of symmetry for dynamics (positions and initial velocities):
=====================================================================
 Subroutine PRICEL returns:
 Original cell was already a primitive cell.
 

 Routine SETGRP: Setting up the symmetry group for a 
 hexagonal supercell.


 Subroutine GETGRP returns: Found  6 space group operations
 (whereof  6 operations were pure point group operations)
 out of a pool of 24 trial point group operations.


The dynamic configuration has the point symmetry S_6 .


Analysis of constrained symmetry for selective dynamics:
=====================================================================
 Subroutine PRICEL returns:
 Original cell was already a primitive cell.
 

 Routine SETGRP: Setting up the symmetry group for a 
 hexagonal supercell.


 Subroutine GETGRP returns: Found  6 space group operations
 (whereof  6 operations were pure point group operations)
 out of a pool of 24 trial point group operations.


The constrained configuration has the point symmetry S_6 .


Analysis of structural, dynamic, and magnetic symmetry:
=====================================================================
 Subroutine PRICEL returns:
 Original cell was already a primitive cell.
 

 Routine SETGRP: Setting up the symmetry group for a 
 hexagonal supercell.


 Subroutine GETGRP returns: Found  6 space group operations
 (whereof  6 operations were pure point group operations)
 out of a pool of 24 trial point group operations.


The magnetic configuration has the point symmetry S_6 .


 Subroutine INISYM returns: Found  6 space group operations
 (whereof  6 operations are pure point group operations),
 and found     1 'primitive' translations



 KPOINTS: Kpoints from vasprun.xml                

Automatic generation of k-mesh.
Space group operators:
 irot       det(A)        alpha          n_x          n_y          n_z        tau_x        tau_y        tau_z
    1     1.000000     0.000000     1.000000     0.000000     0.000000     0.000000     0.000000     0.000000
    2    -1.000000     0.000000     1.000000     0.000000     0.000000     0.000000     0.000000     0.000000
    3     1.000000   120.000000     0.000000     0.000000     1.000000     0.000000     0.000000     0.000000
    4    -1.000000   120.000000     0.000000     0.000000     1.000000     0.000000     0.000000     0.000000
    5     1.000000   120.000000     0.000000     0.000000    -1.000000     0.000000     0.000000     0.000000
    6    -1.000000   120.000000     0.000000     0.000000    -1.000000     0.000000     0.000000     0.000000
 
 Subroutine IBZKPT returns following result:
 ===========================================
 
 Found      5 irreducible k-points:
 
 Following reciprocal coordinates:
            Coordinates               Weight
  0.000000  0.000000  0.000000      1.000000
  0.200000  0.000000  0.000000      6.000000
  0.400000  0.000000  0.000000      6.000000
  0.400000  0.200000  0.000000      6.000000
 -0.400000  0.200000  0.000000      6.000000
 
 Following cartesian coordinates:
            Coordinates               Weight
  0.000000  0.000000  0.000000      1.000000
  0.028953 -0.016716  0.000000      6.000000
  0.057906 -0.033432  0.000000      6.000000
  0.057906  0.000000  0.000000      6.000000
 -0.057906  0.066864  0.000000      6.000000
 
 TETIRR: Found     15 inequivalent tetrahedra from      150


--------------------------------------------------------------------------------------------------------




 Dimension of arrays:
   k-points           NKPTS =      5   k-points in BZ     NKDIM =      5   number of bands    NBANDS=     48
   number of dos      NEDOS =    301   number of ions     NIONS =     10
   non local maximal  LDIM  =      6   non local SUM 2l+1 LMDIM =     18
   total plane-waves  NPLWV = 524880
   max r-space proj   IRMAX =   8238   max aug-charges    IRDMAX=  23823
   dimension x,y,z NGX =    54 NGY =   54 NGZ =  180
   dimension x,y,z NGXF=   108 NGYF=  108 NGZF=  360
   support grid    NGXF=   108 NGYF=  108 NGZF=  360
   ions per type =               2   2   6
   NGX,Y,Z   is equivalent  to a cutoff of  13.00, 13.00, 12.76 a.u.
   NGXF,Y,Z  is equivalent  to a cutoff of  25.99, 25.99, 25.53 a.u.

 SYSTEM =  unknown system                          
 POSCAR =  Co2 Si2 Se6                             

 Startparameter for this run:
   NWRITE =      2    write-flag & timer
   PREC   = accura    normal or accurate (medium, high low for compatibility)
   ISTART =      0    job   : 0-new  1-cont  2-samecut
   ICHARG =      2    charge: 1-file 2-atom 10-const
   ISPIN  =      2    spin polarized calculation?
   LNONCOLLINEAR =      F non collinear calculations
   LSORBIT =      F    spin-orbit coupling
   INIWAV =      1    electr: 0-lowe 1-rand  2-diag
   LASPH  =      F    aspherical Exc in radial PAW
   METAGGA=      F    non-selfconsistent MetaGGA calc.

 Electronic Relaxation 1
   ENCUT  =  520.0 eV  38.22 Ry    6.18 a.u.  12.84 12.84 43.59*2*pi/ulx,y,z
   ENINI  =  520.0     initial cutoff
   ENAUG  =  477.8 eV  augmentation charge cutoff
   NELM   =    400;   NELMIN=  2; NELMDL=  0     # of ELM steps 
   EDIFF  = 0.1E-03   stopping-criterion for ELM
   LREAL  =      T    real-space projection
   NLSPLINE    = F    spline interpolate recip. space projectors
   LCOMPAT=      F    compatible to vasp.4.4
   GGA_COMPAT  = T    GGA compatible to vasp.4.4-vasp.4.6
   LMAXPAW     = -100 max onsite density
   LMAXMIX     =    2 max onsite mixed and CHGCAR
   VOSKOWN=      0    Vosko Wilk Nusair interpolation
   ROPT   =   -0.00025  -0.00025  -0.00025
 Ionic relaxation
   EDIFFG = 0.1E-02   stopping-criterion for IOM
   NSW    =     99    number of steps for IOM
   NBLOCK =      1;   KBLOCK =     99    inner block; outer block 
   IBRION =      2    ionic relax: 0-MD 1-quasi-New 2-CG
   NFREE  =      1    steps in history (QN), initial steepest desc. (CG)
   ISIF   =      3    stress and relaxation
   IWAVPR =     11    prediction:  0-non 1-charg 2-wave 3-comb
   ISYM   =      2    0-nonsym 1-usesym 2-fastsym
   LCORR  =      T    Harris-Foulkes like correction to forces

   POTIM  = 0.5000    time-step for ionic-motion
   TEIN   =    0.0    initial temperature
   TEBEG  =    0.0;   TEEND  =   0.0 temperature during run
   SMASS  =  -3.00    Nose mass-parameter (am)
   estimated Nose-frequenzy (Omega)   =  0.10E-29 period in steps =****** mass=  -0.109E-26a.u.
   SCALEE = 1.0000    scale energy and forces
   NPACO  =    256;   APACO  = 16.0  distance and # of slots for P.C.
   PSTRESS=    0.0 pullay stress

  Mass of Ions in am
   POMASS =  58.93 28.09 78.96
  Ionic Valenz
   ZVAL   =   9.00  4.00  6.00
  Atomic Wigner-Seitz radii
   RWIGS  =  -1.00 -1.00 -1.00
  virtual crystal weights 
   VCA    =   1.00  1.00  1.00
   NELECT =      62.0000    total number of electrons
   NUPDOWN=      -1.0000    fix difference up-down

 DOS related values:
   EMIN   =  10.00;   EMAX   =-10.00  energy-range for DOS
   EFERMI =   0.00
   ISMEAR =    -5;   SIGMA  =   0.05  broadening in eV -4-tet -1-fermi 0-gaus

 Electronic relaxation 2 (details)
   IALGO  =     38    algorithm
   LDIAG  =      T    sub-space diagonalisation (order eigenvalues)
   LSUBROT=      F    optimize rotation matrix (better conditioning)
   TURBO    =      0    0=normal 1=particle mesh
   IRESTART =      0    0=no restart 2=restart with 2 vectors
   NREBOOT  =      0    no. of reboots
   NMIN     =      0    reboot dimension
   EREF     =   0.00    reference energy to select bands
   IMIX   =      4    mixing-type and parameters
     AMIX     =   0.40;   BMIX     =  1.00
     AMIX_MAG =   1.60;   BMIX_MAG =  1.00
     AMIN     =   0.01
     WC   =   100.;   INIMIX=   1;  MIXPRE=   1;  MAXMIX= -45

 Intra band minimization:
   WEIMIN = 0.0010     energy-eigenvalue tresh-hold
   EBREAK =  0.52E-06  absolut break condition
   DEPER  =   0.30     relativ break condition  

   TIME   =   0.40     timestep for ELM

  volume/ion in A,a.u.               =      96.88       653.80
  Fermi-wavevector in a.u.,A,eV,Ry     =   0.654820  1.237431  5.834037  0.428790
  Thomas-Fermi vector in A             =   1.725500

 Write flags
   LWAVE        =      F    write WAVECAR
   LDOWNSAMPLE  =      F    k-point downsampling of WAVECAR
   LCHARG       =      T    write CHGCAR
   LVTOT        =      F    write LOCPOT, total local potential
   LVHAR        =      F    write LOCPOT, Hartree potential only
   LELF         =      F    write electronic localiz. function (ELF)
   LORBIT       =     11    0 simple, 1 ext, 2 COOP (PROOUT), +10 PAW based schemes


 Dipole corrections
   LMONO  =      F    monopole corrections only (constant potential shift)
   LDIPOL =      F    correct potential (dipole corrections)
   IDIPOL =      0    1-x, 2-y, 3-z, 4-all directions 
   EPSILON=  1.0000000 bulk dielectric constant

 Exchange correlation treatment:
   GGA     =    BO    GGA type
   LEXCH   =    42    internal setting for exchange type
   VOSKOWN=      0    Vosko Wilk Nusair interpolation
   LHFCALC =     F    Hartree Fock is set to
   LHFONE  =     F    Hartree Fock one center treatment
   AEXX    =    0.0000 exact exchange contribution

 vdW DFT:
   LUSE_VDW   =     T    switch on vdW DFT
   Zab_VDW    =-.8491    correlation parameter
   PARAM1     =0.1833
   PARAM2     =0.2200
   PARAM3     =0.0000
   -- rVV10 --
   BPARAM     = 6.3000
   CPARAM     = 0.0093

 Linear response parameters
   LEPSILON=     F    determine dielectric tensor
   LRPA    =     F    only Hartree local field effects (RPA)
   LNABLA  =     F    use nabla operator in PAW spheres
   LVEL    =     F    velocity operator in full k-point grid
   LINTERFAST=   F  fast interpolation
   KINTER  =     0    interpolate to denser k-point grid
   CSHIFT  =0.1000    complex shift for real part using Kramers Kronig
   OMEGAMAX=  -1.0    maximum frequency
   DEG_THRESHOLD= 0.2000000E-02 threshold for treating states as degnerate
   RTIME   =   -0.100 relaxation time in fs
  (WPLASMAI=    0.000 imaginary part of plasma frequency in eV, 0.658/RTIME)
   DFIELD  = 0.0000000 0.0000000 0.0000000 field for delta impulse in time

 Orbital magnetization related:
   ORBITALMAG=     F  switch on orbital magnetization
   LCHIMAG   =     F  perturbation theory with respect to B field
   DQ        =  0.001000  dq finite difference perturbation B field
   LLRAUG    =     F  two centre corrections for induced B field



--------------------------------------------------------------------------------------------------------


 conjugate gradient relaxation of ions
   using selective dynamics as specified on POSCAR
 charge density and potential will be updated during run
 spin polarized calculation
 Variant of blocked Davidson
 Davidson routine will perform the subspace rotation
 perform sub-space diagonalisation
    after iterative eigenvector-optimisation
 modified Broyden-mixing scheme, WC =      100.0
 initial mixing is a Kerker type mixing with AMIX =  0.4000 and BMIX =      1.0000
 Hartree-type preconditioning will be used
 using additional bands           17
 real space projection scheme for non local part
 use partial core corrections
 calculate Harris-corrections to forces   (improved forces if not selfconsistent)
 use gradient corrections 
 use of overlap-Matrix (Vanderbilt PP)
 Fermi weights with tetrahedron method with Bloechl corrections


--------------------------------------------------------------------------------------------------------


  energy-cutoff  :      520.00
  volume of cell :      968.84
      direct lattice vectors                 reciprocal lattice vectors
     6.907777000 -0.000000000  0.000000000     0.144764372 -0.083579742  0.000000000
     3.453888000  5.982310000  0.000000000     0.000000000  0.167159509 -0.000000000
     0.000000000  0.000000000 23.444588000    -0.000000000  0.000000000  0.042653767

  length of vectors
     6.907777000  6.907776433 23.444588000     0.167159495  0.167159509  0.042653767



 k-points in units of 2pi/SCALE and weight: Kpoints from vasprun.xml                
   0.00000000  0.00000000  0.00000000       0.040
   0.02895287 -0.01671595  0.00000000       0.240
   0.05790575 -0.03343190  0.00000000       0.240
   0.05790575  0.00000000  0.00000000       0.240
  -0.05790575  0.06686380  0.00000000       0.240

 k-points in reciprocal lattice and weights: Kpoints from vasprun.xml                
   0.00000000  0.00000000  0.00000000       0.040
   0.20000000  0.00000000  0.00000000       0.240
   0.40000000  0.00000000  0.00000000       0.240
   0.40000000  0.20000000  0.00000000       0.240
  -0.40000000  0.20000000  0.00000000       0.240

 position of ions in fractional coordinates (direct lattice) 
   0.33333300  0.33333300  0.49992500
   0.66666700  0.66666700  0.50007500
   0.00000000  0.00000000  0.44821600
   0.00000000  0.00000000  0.55178400
   0.62635700  0.00042000  0.57375200
   0.00042000  0.37322400  0.57375200
   0.37322400  0.62635700  0.57375200
   0.37364300  0.99958000  0.42624800
   0.99958000  0.62677600  0.42624800
   0.62677600  0.37364300  0.42624800

 position of ions in cartesian coordinates  (Angst):
   3.45388488  1.99410134 11.72053566
   6.90778012  3.98820866 11.72405234
   0.00000000  0.00000000 10.50823946
   0.00000000  0.00000000 12.93634854
   4.32818511  0.00251257 13.45137925
   1.29197516  2.23274167 13.45137925
   4.74151509  3.74706174 13.45137925
   6.03347989  5.97979743  9.99320875
   9.06968984  3.74956833  9.99320875
   5.62014991  2.23524826  9.99320875



--------------------------------------------------------------------------------------------------------


 k-point  1 :   0.0000 0.0000 0.0000  plane waves:   26073
 k-point  2 :   0.2000 0.0000 0.0000  plane waves:   26070
 k-point  3 :   0.4000 0.0000 0.0000  plane waves:   26086
 k-point  4 :   0.4000 0.2000 0.0000  plane waves:   26085
 k-point  5 :  -0.4000 0.2000 0.0000  plane waves:   26115

 maximum and minimum number of plane-waves per node :     26115    26070

 maximum number of plane-waves:     26115
 maximum index in each direction: 
   IXMAX=   13   IYMAX=   12   IZMAX=   43
   IXMIN=  -13   IYMIN=  -13   IZMIN=  -43


 serial   3D FFT for wavefunctions
 parallel 3D FFT for charge:
    minimum data exchange during FFTs selected (reduces bandwidth)


 total amount of memory used by VASP MPI-rank0   127696. kBytes
=======================================================================

   base      :      30000. kBytes
   nonlr-proj:       7386. kBytes
   fftplans  :      11247. kBytes
   grid      :      66142. kBytes
   one-center:        311. kBytes
   wavefun   :      12610. kBytes

     INWAV:  cpu time    0.0000: real time    0.0004
 Broyden mixing: mesh for mixing (old mesh)
   NGX = 25   NGY = 25   NGZ = 87
  (NGX  =108   NGY  =108   NGZ  =360)
  gives a total of  54375 points

 initial charge density was supplied:
 charge density of overlapping atoms calculated
 number of electron      62.0000000 magnetization       9.7800000
 keeping initial charge density in first step


--------------------------------------------------------------------------------------------------------


 Maximum index for non-local projection operator         7925
 Maximum index for augmentation-charges         1715 (set IRDMAX)


--------------------------------------------------------------------------------------------------------


 First call to EWALD:  gamma=   0.179
 Maximum number of real-space cells 4x 4x 1
 Maximum number of reciprocal cells 2x 2x 6

    FEWALD:  cpu time    0.0040: real time    0.0015


--------------------------------------- Iteration      1(   1)  ---------------------------------------


vdW kernel read from vdw_kernel.bindat
  0.0000  0.2424  0.5071  0.7962  1.1119  1.4567  1.8333  2.2446  2.6937  3.1842
  3.7199  4.3049  4.9438  5.6415  6.4036  7.2358  8.1446  9.1372 10.2212 11.4050
 12.6979 14.1099 15.6519 17.3360 19.1751 21.1837 23.3773 25.7729 28.3892 31.2465
 34.3669 37.7748 41.4965 45.5611 50.0000

    POTLOK:  cpu time   52.3080: real time   52.6706
    SETDIJ:  cpu time    0.0400: real time    0.0431
     EDDAV:  cpu time   22.7200: real time   22.7979
 BZINTS: Fermi energy:  4.662094; 62.000000 electrons
         Band energy: -34.832327;  BLOECHL correction: -0.031547
       DOS:  cpu time    0.0040: real time    0.0052
    --------------------------------------------
      LOOP:  cpu time   75.0720: real time   75.5168

 eigenvalue-minimisations  :   960
 total energy-change (2. order) : 0.4032016E+03  (-0.1868529E+04)
 number of electron      62.0000000 magnetization       9.7800000
 augmentation part       62.0000000 magnetization       9.7800000

 Free energy of the ion-electron system (eV)
  ---------------------------------------------------
  alpha Z        PSCENC =        36.11812820
  Ewald energy   TEWEN  =      7529.91642125
  -Hartree energ DENC   =    -10539.08472841
  -exchange      EXHF   =         0.00000000
  -V(xc)+E(xc)   XCENC  =         0.86922808
  PAW double counting   =      1968.80415857    -1949.24074394
  entropy T*S    EENTRO =         0.00000000
  eigenvalues    EBANDS =       -34.83232676
  atomic energy  EATOM  =      3390.65143248
  Solvation  Ediel_sol  =         0.00000000
  ---------------------------------------------------
  free energy    TOTEN  =       403.20156947 eV

  energy without entropy =      403.20156947  energy(sigma->0) =      403.20156947


--------------------------------------------------------------------------------------------------------




--------------------------------------- Iteration      1(   2)  ---------------------------------------


     EDDAV:  cpu time   29.7000: real time   29.7742
 BZINTS: Fermi energy: -1.638623; 62.000000 electrons
         Band energy:-413.582242;  BLOECHL correction: -0.039748
       DOS:  cpu time    0.0040: real time    0.0050
    --------------------------------------------
      LOOP:  cpu time   29.7040: real time   29.7792

 eigenvalue-minimisations  :  1296
 total energy-change (2. order) :-0.3787499E+03  (-0.3501402E+03)
 number of electron      62.0000000 magnetization       9.7800000
 augmentation part       62.0000000 magnetization       9.7800000

 Free energy of the ion-electron system (eV)
  ---------------------------------------------------
  alpha Z        PSCENC =        36.11812820
  Ewald energy   TEWEN  =      7529.91642125
  -Hartree energ DENC   =    -10539.08472841
  -exchange      EXHF   =         0.00000000
  -V(xc)+E(xc)   XCENC  =         0.86922808
  PAW double counting   =      1968.80415857    -1949.24074394
  entropy T*S    EENTRO =         0.00000000
  eigenvalues    EBANDS =      -413.58224178
  atomic energy  EATOM  =      3390.65143248
  Solvation  Ediel_sol  =         0.00000000
  ---------------------------------------------------
  free energy    TOTEN  =        24.45165445 eV

  energy without entropy =       24.45165445  energy(sigma->0) =       24.45165445


--------------------------------------------------------------------------------------------------------




--------------------------------------- Iteration      1(   3)  ---------------------------------------


     EDDAV:  cpu time   28.2640: real time   28.4253
 BZINTS: Fermi energy: -2.517436; 62.000000 electrons
         Band energy:-479.781982;  BLOECHL correction: -0.029891
       DOS:  cpu time    0.0040: real time    0.0052
    --------------------------------------------
      LOOP:  cpu time   28.2680: real time   28.4304

 eigenvalue-minimisations  :  1232
 total energy-change (2. order) :-0.6619974E+02  (-0.6377264E+02)
 number of electron      62.0000000 magnetization       9.7800000
 augmentation part       62.0000000 magnetization       9.7800000

 Free energy of the ion-electron system (eV)
  ---------------------------------------------------
  alpha Z        PSCENC =        36.11812820
  Ewald energy   TEWEN  =      7529.91642125
  -Hartree energ DENC   =    -10539.08472841
  -exchange      EXHF   =         0.00000000
  -V(xc)+E(xc)   XCENC  =         0.86922808
  PAW double counting   =      1968.80415857    -1949.24074394
  entropy T*S    EENTRO =         0.00000000
  eigenvalues    EBANDS =      -479.78198181
  atomic energy  EATOM  =      3390.65143248
  Solvation  Ediel_sol  =         0.00000000
  ---------------------------------------------------
  free energy    TOTEN  =       -41.74808558 eV

  energy without entropy =      -41.74808558  energy(sigma->0) =      -41.74808558


--------------------------------------------------------------------------------------------------------




--------------------------------------- Iteration      1(   4)  ---------------------------------------


     EDDAV:  cpu time   28.4800: real time   28.5251
 BZINTS: Fermi energy: -2.604253; 62.000000 electrons
         Band energy:-482.388414;  BLOECHL correction: -0.020501
       DOS:  cpu time    0.0080: real time    0.0049
    --------------------------------------------
      LOOP:  cpu time   28.4880: real time   28.5300

 eigenvalue-minimisations  :  1232
 total energy-change (2. order) :-0.2606432E+01  (-0.2587374E+01)
 number of electron      62.0000000 magnetization       9.7800000
 augmentation part       62.0000000 magnetization       9.7800000

 Free energy of the ion-electron system (eV)
  ---------------------------------------------------
  alpha Z        PSCENC =        36.11812820
  Ewald energy   TEWEN  =      7529.91642125
  -Hartree energ DENC   =    -10539.08472841
  -exchange      EXHF   =         0.00000000
  -V(xc)+E(xc)   XCENC  =         0.86922808
  PAW double counting   =      1968.80415857    -1949.24074394
  entropy T*S    EENTRO =         0.00000000
  eigenvalues    EBANDS =      -482.38841425
  atomic energy  EATOM  =      3390.65143248
  Solvation  Ediel_sol  =         0.00000000
  ---------------------------------------------------
  free energy    TOTEN  =       -44.35451801 eV

  energy without entropy =      -44.35451801  energy(sigma->0) =      -44.35451801


--------------------------------------------------------------------------------------------------------




--------------------------------------- Iteration      1(   5)  ---------------------------------------


     EDDAV:  cpu time   27.2680: real time   27.3748
 BZINTS: Fermi energy: -2.606694; 62.000000 electrons
         Band energy:-482.453052;  BLOECHL correction: -0.020389
       DOS:  cpu time    0.0040: real time    0.0063
    CHARGE:  cpu time    2.0800: real time    2.0872
    MIXING:  cpu time    0.0440: real time    0.0417
    --------------------------------------------
      LOOP:  cpu time   29.3960: real time   29.5100

 eigenvalue-minimisations  :  1184
 total energy-change (2. order) :-0.6463726E-01  (-0.6459372E-01)
 number of electron      61.9999991 magnetization       9.7564520
 augmentation part       -0.8002801 magnetization       6.1582343

 Broyden mixing:
  rms(total) = 0.32830E+01    rms(broyden)= 0.32829E+01
  rms(prec ) = 0.35189E+01
  weight for this iteration     100.00

 Free energy of the ion-electron system (eV)
  ---------------------------------------------------
  alpha Z        PSCENC =        36.11812820
  Ewald energy   TEWEN  =      7529.91642125
  -Hartree energ DENC   =    -10539.08472841
  -exchange      EXHF   =         0.00000000
  -V(xc)+E(xc)   XCENC  =         0.86922808
  PAW double counting   =      1968.80415857    -1949.24074394
  entropy T*S    EENTRO =         0.00000000
  eigenvalues    EBANDS =      -482.45305151
  atomic energy  EATOM  =      3390.65143248
  Solvation  Ediel_sol  =         0.00000000
  ---------------------------------------------------
  free energy    TOTEN  =       -44.41915528 eV

  energy without entropy =      -44.41915528  energy(sigma->0) =      -44.41915528


--------------------------------------------------------------------------------------------------------




--------------------------------------- Iteration      1(   6)  ---------------------------------------


    POTLOK:  cpu time   52.4280: real time   52.6429
    SETDIJ:  cpu time    0.0320: real time    0.0334
     EDDAV:  cpu time   28.4200: real time   29.5169
 BZINTS: Fermi energy: -4.463316; 62.000000 electrons
         Band energy:-710.548037;  BLOECHL correction: -0.025272
       DOS:  cpu time    0.0080: real time    0.0054
    CHARGE:  cpu time    2.0200: real time    2.0360
    MIXING:  cpu time    0.0440: real time    0.0439
    --------------------------------------------
      LOOP:  cpu time   82.9520: real time   84.2786

 eigenvalue-minimisations  :  1280
 total energy-change (2. order) :-0.5681485E+02  (-0.6206541E+02)
 number of electron      61.9999984 magnetization       9.4020729
 augmentation part        9.1074471 magnetization       9.5186322

 Broyden mixing:
  rms(total) = 0.63735E+01    rms(broyden)= 0.63735E+01
  rms(prec ) = 0.66967E+01
  weight for this iteration     100.00

 eigenvalues of (default mixing * dielectric matrix)
  average eigenvalue GAMMA=   0.3182
  0.3182

 Free energy of the ion-electron system (eV)
  ---------------------------------------------------
  alpha Z        PSCENC =        36.11812820
  Ewald energy   TEWEN  =      7529.91642125
  -Hartree energ DENC   =    -10401.77718570
  -exchange      EXHF   =         0.00000000
  -V(xc)+E(xc)   XCENC  =         4.07282399
  PAW double counting   =      1739.35811494    -1689.02569948
  entropy T*S    EENTRO =         0.00000000
  eigenvalues    EBANDS =      -710.54803697
  atomic energy  EATOM  =      3390.65143248
  Solvation  Ediel_sol  =         0.00000000
  ---------------------------------------------------
  free energy    TOTEN  =      -101.23400129 eV

  energy without entropy =     -101.23400129  energy(sigma->0) =     -101.23400129


--------------------------------------------------------------------------------------------------------




--------------------------------------- Iteration      1(   7)  ---------------------------------------


    POTLOK:  cpu time   52.0680: real time   52.3418
    SETDIJ:  cpu time    0.0440: real time    0.0435
     EDDAV:  cpu time   26.6680: real time   27.0994
 BZINTS: Fermi energy: -4.520264; 62.000000 electrons
         Band energy:-549.195480;  BLOECHL correction: -0.039257
       DOS:  cpu time    0.0040: real time    0.0047
    CHARGE:  cpu time    2.0240: real time    2.0459
    MIXING:  cpu time    0.0440: real time    0.0407
    --------------------------------------------
      LOOP:  cpu time   80.8520: real time   81.5760

 eigenvalue-minimisations  :  1168
 total energy-change (2. order) : 0.5515891E+02  (-0.7166860E+01)
 number of electron      61.9999985 magnetization       9.0992015
 augmentation part        7.2448194 magnetization       8.7392695

 Broyden mixing:
  rms(total) = 0.34659E+01    rms(broyden)= 0.34659E+01
  rms(prec ) = 0.36999E+01
  weight for this iteration     100.00

 eigenvalues of (default mixing * dielectric matrix)
  average eigenvalue GAMMA=   0.4439
  0.4439  0.4439

 Free energy of the ion-electron system (eV)
  ---------------------------------------------------
  alpha Z        PSCENC =        36.11812820
  Ewald energy   TEWEN  =      7529.91642125
  -Hartree energ DENC   =    -10479.66138483
  -exchange      EXHF   =         0.00000000
  -V(xc)+E(xc)   XCENC  =         0.55718288
  PAW double counting   =      1883.21515582    -1857.67654728
  entropy T*S    EENTRO =         0.00000000
  eigenvalues    EBANDS =      -549.19548002
  atomic energy  EATOM  =      3390.65143248
  Solvation  Ediel_sol  =         0.00000000
  ---------------------------------------------------
  free energy    TOTEN  =       -46.07509150 eV

  energy without entropy =      -46.07509150  energy(sigma->0) =      -46.07509150


--------------------------------------------------------------------------------------------------------




--------------------------------------- Iteration      1(   8)  ---------------------------------------


    POTLOK:  cpu time   52.3600: real time   52.6372
    SETDIJ:  cpu time    0.0440: real time    0.0457
     EDDAV:  cpu time   30.4160: real time   30.8520
 BZINTS: Fermi energy: -3.901909; 62.000000 electrons
         Band energy:-500.299430;  BLOECHL correction: -0.010628
       DOS:  cpu time    0.0040: real time    0.0070
    CHARGE:  cpu time    2.0720: real time    2.0820
    MIXING:  cpu time    0.0440: real time    0.0432
    --------------------------------------------
      LOOP:  cpu time   84.9400: real time   85.6671

 eigenvalue-minimisations  :  1344
 total energy-change (2. order) : 0.9241354E+01  (-0.1699118E+01)
 number of electron      61.9999988 magnetization       8.9653777
 augmentation part        2.7766410 magnetization       6.8038786

 Broyden mixing:
  rms(total) = 0.59086E+00    rms(broyden)= 0.59038E+00
  rms(prec ) = 0.61357E+00
  weight for this iteration     100.00

 eigenvalues of (default mixing * dielectric matrix)
  average eigenvalue GAMMA=   0.3853
  0.4250  0.4250  0.3060

 Free energy of the ion-electron system (eV)
  ---------------------------------------------------
  alpha Z        PSCENC =        36.11812820
  Ewald energy   TEWEN  =      7529.91642125
  -Hartree energ DENC   =    -10513.59836610
  -exchange      EXHF   =         0.00000000
  -V(xc)+E(xc)   XCENC  =         0.72990948
  PAW double counting   =      1944.90302015    -1925.25485380
  entropy T*S    EENTRO =         0.00000000
  eigenvalues    EBANDS =      -500.29942965
  atomic energy  EATOM  =      3390.65143248
  Solvation  Ediel_sol  =         0.00000000
  ---------------------------------------------------
  free energy    TOTEN  =       -36.83373799 eV

  energy without entropy =      -36.83373799  energy(sigma->0) =      -36.83373799


--------------------------------------------------------------------------------------------------------




--------------------------------------- Iteration      1(   9)  ---------------------------------------


    POTLOK:  cpu time   52.0720: real time   52.1656
    SETDIJ:  cpu time    0.0440: real time    0.0431
     EDDAV:  cpu time   25.5640: real time   25.6647
 BZINTS: Fermi energy: -4.082530; 62.000000 electrons
         Band energy:-504.573926;  BLOECHL correction: -0.003764
       DOS:  cpu time    0.0120: real time    0.0169
    CHARGE:  cpu time    2.0400: real time    2.0458
    MIXING:  cpu time    0.0440: real time    0.0435
    --------------------------------------------
      LOOP:  cpu time   79.7760: real time   79.9796

 eigenvalue-minimisations  :  1120
 total energy-change (2. order) :-0.3618799E+00  (-0.2896085E+00)
 number of electron      61.9999986 magnetization       9.1108165
 augmentation part        3.4674424 magnetization       7.9803133

 Broyden mixing:
  rms(total) = 0.61651E+00    rms(broyden)= 0.61641E+00
  rms(prec ) = 0.63320E+00
  weight for this iteration     100.00

 eigenvalues of (default mixing * dielectric matrix)
  average eigenvalue GAMMA=   0.4308
  0.5297  0.3989  0.3989  0.3957

 Free energy of the ion-electron system (eV)
  ---------------------------------------------------
  alpha Z        PSCENC =        36.11812820
  Ewald energy   TEWEN  =      7529.91642125
  -Hartree energ DENC   =    -10510.15337534
  -exchange      EXHF   =         0.00000000
  -V(xc)+E(xc)   XCENC  =         0.70654653
  PAW double counting   =      1941.24666456    -1921.10750989
  entropy T*S    EENTRO =         0.00000000
  eigenvalues    EBANDS =      -504.57392569
  atomic energy  EATOM  =      3390.65143248
  Solvation  Ediel_sol  =         0.00000000
  ---------------------------------------------------
  free energy    TOTEN  =       -37.19561790 eV

  energy without entropy =      -37.19561790  energy(sigma->0) =      -37.19561790


--------------------------------------------------------------------------------------------------------




--------------------------------------- Iteration      1(  10)  ---------------------------------------


    POTLOK:  cpu time   50.8960: real time   51.1352
    SETDIJ:  cpu time    0.0440: real time    0.0424
     EDDAV:  cpu time   28.0720: real time   28.3241
 BZINTS: Fermi energy: -4.249494; 61.971746 electrons
         Band energy:-511.060153;  BLOECHL correction: -0.011156
       DOS:  cpu time    0.0080: real time    0.0125
    CHARGE:  cpu time    2.0560: real time    2.0642
    MIXING:  cpu time    0.0400: real time    0.0456
    --------------------------------------------
      LOOP:  cpu time   81.1160: real time   81.6240

 eigenvalue-minimisations  :  1248
 total energy-change (2. order) :-0.2149946E+00  (-0.6363001E-01)
 number of electron      61.9717445 magnetization       9.1110774
 augmentation part        4.4427190 magnetization       8.7028772

 Broyden mixing:
  rms(total) = 0.13831E+01    rms(broyden)= 0.13830E+01
  rms(prec ) = 0.14475E+01
  weight for this iteration     100.00

 eigenvalues of (default mixing * dielectric matrix)
  average eigenvalue GAMMA=   0.3837
  0.4895  0.5357  0.4033  0.4033  0.0866

 Free energy of the ion-electron system (eV)
  ---------------------------------------------------
  alpha Z        PSCENC =        36.11812820
  Ewald energy   TEWEN  =      7529.91642125
  -Hartree energ DENC   =    -10504.31726736
  -exchange      EXHF   =         0.00000000
  -V(xc)+E(xc)   XCENC  =         0.79261098
  PAW double counting   =      1930.76810330    -1910.27988888
  entropy T*S    EENTRO =         0.00000000
  eigenvalues    EBANDS =      -511.06015250
  atomic energy  EATOM  =      3390.65143248
  Solvation  Ediel_sol  =         0.00000000
  ---------------------------------------------------
  free energy    TOTEN  =       -37.41061254 eV

  energy without entropy =      -37.41061254  energy(sigma->0) =      -37.41061254


--------------------------------------------------------------------------------------------------------




--------------------------------------- Iteration      1(  11)  ---------------------------------------


    POTLOK:  cpu time   50.9040: real time   51.0328
    SETDIJ:  cpu time    0.0440: real time    0.0423
     EDDAV:  cpu time   30.1960: real time   30.3679
 BZINTS: Fermi energy: -4.263125; 62.000000 electrons
         Band energy:-511.183494;  BLOECHL correction: -0.012626
       DOS:  cpu time    0.0040: real time    0.0051
    CHARGE:  cpu time    2.0840: real time    2.0903
    MIXING:  cpu time    0.0400: real time    0.0439
    --------------------------------------------
      LOOP:  cpu time   83.2720: real time   83.5823

 eigenvalue-minimisations  :  1344
 total energy-change (2. order) :-0.1581526E+00  (-0.7952474E-02)
 number of electron      61.9999987 magnetization       8.8579560
 augmentation part        4.5342404 magnetization       8.4827388

 Broyden mixing:
  rms(total) = 0.14392E+01    rms(broyden)= 0.14392E+01
  rms(prec ) = 0.15091E+01
  weight for this iteration     100.00

 eigenvalues of (default mixing * dielectric matrix)
  average eigenvalue GAMMA=   0.4633
  0.6441  0.6441  0.5576  0.3948  0.3948  0.1444

 Free energy of the ion-electron system (eV)
  ---------------------------------------------------
  alpha Z        PSCENC =        36.11812820
  Ewald energy   TEWEN  =      7529.91642125
  -Hartree energ DENC   =    -10504.30321056
  -exchange      EXHF   =         0.00000000
  -V(xc)+E(xc)   XCENC  =         0.76839087
  PAW double counting   =      1930.68209473    -1910.21852844
  entropy T*S    EENTRO =         0.00000000
  eigenvalues    EBANDS =      -511.18349365
  atomic energy  EATOM  =      3390.65143248
  Solvation  Ediel_sol  =         0.00000000
  ---------------------------------------------------
  free energy    TOTEN  =       -37.56876512 eV

  energy without entropy =      -37.56876512  energy(sigma->0) =      -37.56876512


--------------------------------------------------------------------------------------------------------




--------------------------------------- Iteration      1(  12)  ---------------------------------------


    POTLOK:  cpu time   51.1800: real time   51.3396
    SETDIJ:  cpu time    0.0440: real time    0.0435
     EDDAV:  cpu time   26.9080: real time   27.0626
 BZINTS: Fermi energy: -4.228439; 62.000000 electrons
         Band energy:-507.824485;  BLOECHL correction: -0.017211
       DOS:  cpu time    0.0080: real time    0.0073
    CHARGE:  cpu time    2.0400: real time    2.0554
    MIXING:  cpu time    0.0440: real time    0.0436
    --------------------------------------------
      LOOP:  cpu time   80.2240: real time   80.5521

 eigenvalue-minimisations  :  1184
 total energy-change (2. order) :-0.9365551E-01  (-0.6898298E-02)
 number of electron      61.9999987 magnetization       8.0830395
 augmentation part        4.6815302 magnetization       7.8733374

 Broyden mixing:
  rms(total) = 0.15266E+01    rms(broyden)= 0.15266E+01
  rms(prec ) = 0.16026E+01
  weight for this iteration     100.00

 eigenvalues of (default mixing * dielectric matrix)
  average eigenvalue GAMMA=   0.5621
  0.9894  0.9894  0.6686  0.3781  0.3781  0.3219  0.2090

 Free energy of the ion-electron system (eV)
  ---------------------------------------------------
  alpha Z        PSCENC =        36.11812820
  Ewald energy   TEWEN  =      7529.91642125
  -Hartree energ DENC   =    -10508.40105881
  -exchange      EXHF   =         0.00000000
  -V(xc)+E(xc)   XCENC  =         0.89203667
  PAW double counting   =      1937.61401486    -1916.62891023
  entropy T*S    EENTRO =         0.00000000
  eigenvalues    EBANDS =      -507.82448506
  atomic energy  EATOM  =      3390.65143248
  Solvation  Ediel_sol  =         0.00000000
  ---------------------------------------------------
  free energy    TOTEN  =       -37.66242063 eV

  energy without entropy =      -37.66242063  energy(sigma->0) =      -37.66242063


--------------------------------------------------------------------------------------------------------




--------------------------------------- Iteration      1(  13)  ---------------------------------------


    POTLOK:  cpu time   51.0320: real time   51.1616
    SETDIJ:  cpu time    0.0440: real time    0.0436
     EDDAV:  cpu time   33.5520: real time   33.6944
 BZINTS: Fermi energy: -4.100365; 62.000000 electrons
         Band energy:-499.694376;  BLOECHL correction: -0.018249
       DOS:  cpu time    0.0040: real time    0.0078
    CHARGE:  cpu time    2.0680: real time    2.0887
    MIXING:  cpu time    0.0480: real time    0.0473
    --------------------------------------------
      LOOP:  cpu time   86.7480: real time   87.0434

 eigenvalue-minimisations  :  1488
 total energy-change (2. order) : 0.5998535E-02  (-0.2926110E-01)
 number of electron      61.9999987 magnetization       7.1296675
 augmentation part        4.5875349 magnetization       7.1049552

 Broyden mixing:
  rms(total) = 0.13835E+01    rms(broyden)= 0.13835E+01
  rms(prec ) = 0.14518E+01
  weight for this iteration     100.00

 eigenvalues of (default mixing * dielectric matrix)
  average eigenvalue GAMMA=   0.7338
  1.6864  1.0378  1.0378  0.5842  0.5842  0.3740  0.3740  0.1915

 Free energy of the ion-electron system (eV)
  ---------------------------------------------------
  alpha Z        PSCENC =        36.11812820
  Ewald energy   TEWEN  =      7529.91642125
  -Hartree energ DENC   =    -10517.01677842
  -exchange      EXHF   =         0.00000000
  -V(xc)+E(xc)   XCENC  =         0.93312891
  PAW double counting   =      1951.10706051    -1929.67143906
  entropy T*S    EENTRO =         0.00000000
  eigenvalues    EBANDS =      -499.69437597
  atomic energy  EATOM  =      3390.65143248
  Solvation  Ediel_sol  =         0.00000000
  ---------------------------------------------------
  free energy    TOTEN  =       -37.65642209 eV

  energy without entropy =      -37.65642209  energy(sigma->0) =      -37.65642209


--------------------------------------------------------------------------------------------------------




--------------------------------------- Iteration      1(  14)  ---------------------------------------


    POTLOK:  cpu time   52.2360: real time   52.3048
    SETDIJ:  cpu time    0.0440: real time    0.0435
     EDDAV:  cpu time   34.9640: real time   35.0416
 BZINTS: Fermi energy: -3.950830; 62.000000 electrons
         Band energy:-494.354245;  BLOECHL correction: -0.010509
       DOS:  cpu time    0.0040: real time    0.0087
    CHARGE:  cpu time    2.0840: real time    2.0849
    MIXING:  cpu time    0.0600: real time    0.0647
    --------------------------------------------
      LOOP:  cpu time   89.3920: real time   89.5482

 eigenvalue-minimisations  :  1552
 total energy-change (2. order) : 0.1340136E+00  (-0.3329544E-01)
 number of electron      61.9999987 magnetization       6.4114924
 augmentation part        4.0963024 magnetization       6.3129253

 Broyden mixing:
  rms(total) = 0.88335E+00    rms(broyden)= 0.88329E+00
  rms(prec ) = 0.92723E+00
  weight for this iteration     100.00

 eigenvalues of (default mixing * dielectric matrix)
  average eigenvalue GAMMA=   0.8369
  2.4255  1.0601  1.0601  0.7649  0.7649  0.3742  0.3742  0.5160  0.1917

 Free energy of the ion-electron system (eV)
  ---------------------------------------------------
  alpha Z        PSCENC =        36.11812820
  Ewald energy   TEWEN  =      7529.91642125
  -Hartree energ DENC   =    -10521.71621768
  -exchange      EXHF   =         0.00000000
  -V(xc)+E(xc)   XCENC  =         0.84577780
  PAW double counting   =      1956.59367127    -1935.57737654
  entropy T*S    EENTRO =         0.00000000
  eigenvalues    EBANDS =      -494.35424531
  atomic energy  EATOM  =      3390.65143248
  Solvation  Ediel_sol  =         0.00000000
  ---------------------------------------------------
  free energy    TOTEN  =       -37.52240853 eV

  energy without entropy =      -37.52240853  energy(sigma->0) =      -37.52240853


--------------------------------------------------------------------------------------------------------




--------------------------------------- Iteration      1(  15)  ---------------------------------------


    POTLOK:  cpu time   52.2880: real time   52.4557
    SETDIJ:  cpu time    0.0440: real time    0.0415
     EDDAV:  cpu time   26.7440: real time   27.5287
 BZINTS: Fermi energy: -4.164975; 62.000000 electrons
         Band energy:-502.736911;  BLOECHL correction: -0.030511
       DOS:  cpu time    0.0040: real time    0.0066
    CHARGE:  cpu time    2.0440: real time    2.0468
    MIXING:  cpu time    0.0520: real time    0.0494
    --------------------------------------------
      LOOP:  cpu time   81.1760: real time   82.1288

 eigenvalue-minimisations  :  1184
 total energy-change (2. order) :-0.6735443E+00  (-0.3818904E-01)
 number of electron      61.9999987 magnetization       5.9984717
 augmentation part        4.9474019 magnetization       6.6470048

 Broyden mixing:
  rms(total) = 0.16136E+01    rms(broyden)= 0.16136E+01
  rms(prec ) = 0.17058E+01
  weight for this iteration     100.00

 eigenvalues of (default mixing * dielectric matrix)
  average eigenvalue GAMMA=   0.8886
  2.8236  1.1289  1.1289  0.9008  0.9008  0.3742  0.3742  0.5313  0.5313  0.1915

 Free energy of the ion-electron system (eV)
  ---------------------------------------------------
  alpha Z        PSCENC =        36.11812820
  Ewald energy   TEWEN  =      7529.91642125
  -Hartree energ DENC   =    -10513.66809952
  -exchange      EXHF   =         0.00000000
  -V(xc)+E(xc)   XCENC  =         0.61041763
  PAW double counting   =      1941.83448645    -1920.92182839
  entropy T*S    EENTRO =         0.00000000
  eigenvalues    EBANDS =      -502.73691095
  atomic energy  EATOM  =      3390.65143248
  Solvation  Ediel_sol  =         0.00000000
  ---------------------------------------------------
  free energy    TOTEN  =       -38.19595285 eV

  energy without entropy =      -38.19595285  energy(sigma->0) =      -38.19595285


--------------------------------------------------------------------------------------------------------




--------------------------------------- Iteration      1(  16)  ---------------------------------------


    POTLOK:  cpu time   51.6160: real time   52.5170
    SETDIJ:  cpu time    0.0480: real time    0.0484
     EDDAV:  cpu time   23.5680: real time   23.8060
 BZINTS: Fermi energy: -4.169117; 62.000000 electrons
         Band energy:-503.183034;  BLOECHL correction: -0.030034
       DOS:  cpu time    0.0040: real time    0.0057
    CHARGE:  cpu time    2.0480: real time    2.0484
    MIXING:  cpu time    0.0480: real time    0.0476
    --------------------------------------------
      LOOP:  cpu time   77.3320: real time   78.4730

 eigenvalue-minimisations  :  1024
 total energy-change (2. order) : 0.7799127E-01  (-0.1060320E-01)
 number of electron      61.9999987 magnetization       4.5859486
 augmentation part        4.8255127 magnetization       5.2680269

 Broyden mixing:
  rms(total) = 0.14936E+01    rms(broyden)= 0.14936E+01
  rms(prec ) = 0.15801E+01
  weight for this iteration     100.00

 eigenvalues of (default mixing * dielectric matrix)
  average eigenvalue GAMMA=   1.0069
  3.3296  1.7573  1.1337  1.1337  0.8069  0.8069  0.3743  0.3743  0.6161  0.5518
  0.1915

 Free energy of the ion-electron system (eV)
  ---------------------------------------------------
  alpha Z        PSCENC =        36.11812820
  Ewald energy   TEWEN  =      7529.91642125
  -Hartree energ DENC   =    -10512.68161475
  -exchange      EXHF   =         0.00000000
  -V(xc)+E(xc)   XCENC  =         0.50212105
  PAW double counting   =      1940.94593665    -1920.38735231
  entropy T*S    EENTRO =         0.00000000
  eigenvalues    EBANDS =      -503.18303415
  atomic energy  EATOM  =      3390.65143248
  Solvation  Ediel_sol  =         0.00000000
  ---------------------------------------------------
  free energy    TOTEN  =       -38.11796158 eV

  energy without entropy =      -38.11796158  energy(sigma->0) =      -38.11796158


--------------------------------------------------------------------------------------------------------




--------------------------------------- Iteration      1(  17)  ---------------------------------------


    POTLOK:  cpu time   51.0280: real time   51.1281
    SETDIJ:  cpu time    0.0440: real time    0.0445
     EDDAV:  cpu time   24.0440: real time   24.1088
 BZINTS: Fermi energy: -4.136179; 62.000000 electrons
         Band energy:-504.172704;  BLOECHL correction: -0.019917
       DOS:  cpu time    0.0080: real time    0.0067
    CHARGE:  cpu time    2.0440: real time    2.0660
    MIXING:  cpu time    0.0480: real time    0.0485
    --------------------------------------------
      LOOP:  cpu time   77.2160: real time   77.4026

 eigenvalue-minimisations  :  1040
 total energy-change (2. order) : 0.2395613E+00  (-0.3629598E-01)
 number of electron      61.9999988 magnetization       3.4212478
 augmentation part        4.2844216 magnetization       3.8919367

 Broyden mixing:
  rms(total) = 0.98925E+00    rms(broyden)= 0.98924E+00
  rms(prec ) = 0.10483E+01
  weight for this iteration     100.00

 eigenvalues of (default mixing * dielectric matrix)
  average eigenvalue GAMMA=   1.2203
  5.3933  2.4616  1.1546  1.1546  0.8792  0.8792  0.3743  0.3743  0.6139  0.6139
  0.5527  0.1915

 Free energy of the ion-electron system (eV)
  ---------------------------------------------------
  alpha Z        PSCENC =        36.11812820
  Ewald energy   TEWEN  =      7529.91642125
  -Hartree energ DENC   =    -10510.65745314
  -exchange      EXHF   =         0.00000000
  -V(xc)+E(xc)   XCENC  =         0.18475718
  PAW double counting   =      1942.58586646    -1922.50484860
  entropy T*S    EENTRO =         0.00000000
  eigenvalues    EBANDS =      -504.17270409
  atomic energy  EATOM  =      3390.65143248
  Solvation  Ediel_sol  =         0.00000000
  ---------------------------------------------------
  free energy    TOTEN  =       -37.87840025 eV

  energy without entropy =      -37.87840025  energy(sigma->0) =      -37.87840025


--------------------------------------------------------------------------------------------------------




--------------------------------------- Iteration      1(  18)  ---------------------------------------


    POTLOK:  cpu time   50.8800: real time   50.9977
    SETDIJ:  cpu time    0.0400: real time    0.0419
     EDDAV:  cpu time   30.9040: real time   31.1025
 BZINTS: Fermi energy: -4.136512; 62.000000 electrons
         Band energy:-505.993793;  BLOECHL correction: -0.012746
       DOS:  cpu time    0.0040: real time    0.0073
    CHARGE:  cpu time    1.9600: real time    2.0343
    MIXING:  cpu time    0.0520: real time    0.0491
    --------------------------------------------
      LOOP:  cpu time   83.8400: real time   84.2328

 eigenvalue-minimisations  :  1376
 total energy-change (2. order) : 0.3721961E-01  (-0.1473323E-01)
 number of electron      61.9999988 magnetization       2.7413522
 augmentation part        4.0107294 magnetization       3.1259116

 Broyden mixing:
  rms(total) = 0.72896E+00    rms(broyden)= 0.72896E+00
  rms(prec ) = 0.77434E+00
  weight for this iteration     100.00

 eigenvalues of (default mixing * dielectric matrix)
  average eigenvalue GAMMA=   1.4571
  8.3838  2.6370  1.1806  1.1806  1.0321  1.0321  0.3743  0.3743  0.7029  0.7029
  0.5752  0.5752  0.1915

 Free energy of the ion-electron system (eV)
  ---------------------------------------------------
  alpha Z        PSCENC =        36.11812820
  Ewald energy   TEWEN  =      7529.91642125
  -Hartree energ DENC   =    -10508.32313195
  -exchange      EXHF   =         0.00000000
  -V(xc)+E(xc)   XCENC  =        -0.09443649
  PAW double counting   =      1944.26776180    -1924.38356305
  entropy T*S    EENTRO =         0.00000000
  eigenvalues    EBANDS =      -505.99379288
  atomic energy  EATOM  =      3390.65143248
  Solvation  Ediel_sol  =         0.00000000
  ---------------------------------------------------
  free energy    TOTEN  =       -37.84118064 eV

  energy without entropy =      -37.84118064  energy(sigma->0) =      -37.84118064


--------------------------------------------------------------------------------------------------------




--------------------------------------- Iteration      1(  19)  ---------------------------------------


    POTLOK:  cpu time   51.0480: real time   51.2033
    SETDIJ:  cpu time    0.0440: real time    0.0427
     EDDAV:  cpu time   25.9520: real time   26.2549
 BZINTS: Fermi energy: -4.146248; 62.000000 electrons
         Band energy:-506.245452;  BLOECHL correction: -0.024025
       DOS:  cpu time    0.0040: real time    0.0087
    CHARGE:  cpu time    2.0120: real time    2.0749
    MIXING:  cpu time    0.0480: real time    0.0505
    --------------------------------------------
      LOOP:  cpu time   79.1080: real time   79.6351

 eigenvalue-minimisations  :  1152
 total energy-change (2. order) :-0.1648977E-01  (-0.4572167E-02)
 number of electron      61.9999988 magnetization       2.3043873
 augmentation part        4.0001187 magnetization       2.8345699

 Broyden mixing:
  rms(total) = 0.72559E+00    rms(broyden)= 0.72558E+00
  rms(prec ) = 0.76900E+00
  weight for this iteration     100.00

 eigenvalues of (default mixing * dielectric matrix)
  average eigenvalue GAMMA=   1.5976
 10.7789  2.6826  1.1716  1.1716  1.1452  1.1452  0.3743  0.3743  0.1915  0.7749
  0.7749  0.5771  0.5771  0.6271

 Free energy of the ion-electron system (eV)
  ---------------------------------------------------
  alpha Z        PSCENC =        36.11812820
  Ewald energy   TEWEN  =      7529.91642125
  -Hartree energ DENC   =    -10508.16917840
  -exchange      EXHF   =         0.00000000
  -V(xc)+E(xc)   XCENC  =        -0.21641154
  PAW double counting   =      1949.09231695    -1929.00492687
  entropy T*S    EENTRO =         0.00000000
  eigenvalues    EBANDS =      -506.24545249
  atomic energy  EATOM  =      3390.65143248
  Solvation  Ediel_sol  =         0.00000000
  ---------------------------------------------------
  free energy    TOTEN  =       -37.85767041 eV

  energy without entropy =      -37.85767041  energy(sigma->0) =      -37.85767041


--------------------------------------------------------------------------------------------------------




--------------------------------------- Iteration      1(  20)  ---------------------------------------


    POTLOK:  cpu time   51.1960: real time   51.3415
    SETDIJ:  cpu time    0.0680: real time    0.0672
     EDDAV:  cpu time   27.4760: real time   27.6042
 BZINTS: Fermi energy: -4.184878; 62.000000 electrons
         Band energy:-507.680291;  BLOECHL correction: -0.025324
       DOS:  cpu time    0.0040: real time    0.0087
    CHARGE:  cpu time    2.0600: real time    2.0695
    MIXING:  cpu time    0.0520: real time    0.0516
    --------------------------------------------
      LOOP:  cpu time   80.8560: real time   81.1426

 eigenvalue-minimisations  :  1216
 total energy-change (2. order) :-0.2196109E-01  (-0.1217801E-02)
 number of electron      61.9999988 magnetization       2.1212094
 augmentation part        4.0976191 magnetization       2.8768772

 Broyden mixing:
  rms(total) = 0.81385E+00    rms(broyden)= 0.81384E+00
  rms(prec ) = 0.86188E+00
  weight for this iteration     100.00

 eigenvalues of (default mixing * dielectric matrix)
  average eigenvalue GAMMA=   1.6130
 11.7887  2.6278  1.1604  1.1604  1.2314  1.2314  0.8141  0.8141  0.3743  0.3743
  0.6240  0.6240  0.6241  0.5550  0.1915

 Free energy of the ion-electron system (eV)
  ---------------------------------------------------
  alpha Z        PSCENC =        36.11812820
  Ewald energy   TEWEN  =      7529.91642125
  -Hartree energ DENC   =    -10506.75527993
  -exchange      EXHF   =         0.00000000
  -V(xc)+E(xc)   XCENC  =        -0.31919447
  PAW double counting   =      1950.80441983    -1930.61526825
  entropy T*S    EENTRO =         0.00000000
  eigenvalues    EBANDS =      -507.68029061
  atomic energy  EATOM  =      3390.65143248
  Solvation  Ediel_sol  =         0.00000000
  ---------------------------------------------------
  free energy    TOTEN  =       -37.87963150 eV

  energy without entropy =      -37.87963150  energy(sigma->0) =      -37.87963150


--------------------------------------------------------------------------------------------------------




--------------------------------------- Iteration      1(  21)  ---------------------------------------


    POTLOK:  cpu time   50.8840: real time   51.0932
    SETDIJ:  cpu time    0.0440: real time    0.0428
     EDDAV:  cpu time   26.6120: real time   26.9937
 BZINTS: Fermi energy: -4.210808; 62.000000 electrons
         Band energy:-508.473893;  BLOECHL correction: -0.022861
       DOS:  cpu time    0.0080: real time    0.0068
    CHARGE:  cpu time    2.0760: real time    2.0841
    MIXING:  cpu time    0.0520: real time    0.0535
    --------------------------------------------
      LOOP:  cpu time   79.6760: real time   80.2741

 eigenvalue-minimisations  :  1184
 total energy-change (2. order) :-0.4255237E-02  (-0.3841568E-03)
 number of electron      61.9999988 magnetization       1.8669200
 augmentation part        4.1303379 magnetization       2.6969673

 Broyden mixing:
  rms(total) = 0.83868E+00    rms(broyden)= 0.83868E+00
  rms(prec ) = 0.88857E+00
  weight for this iteration     100.00

 eigenvalues of (default mixing * dielectric matrix)
  average eigenvalue GAMMA=   1.5955
 12.2311  2.6297  1.1488  1.1488  1.2524  1.2524  0.8762  0.8762  0.3743  0.3743
  0.1915  0.7130  0.7130  0.5684  0.5684  0.6104

 Free energy of the ion-electron system (eV)
  ---------------------------------------------------
  alpha Z        PSCENC =        36.11812820
  Ewald energy   TEWEN  =      7529.91642125
  -Hartree energ DENC   =    -10505.92986364
  -exchange      EXHF   =         0.00000000
  -V(xc)+E(xc)   XCENC  =        -0.37079341
  PAW double counting   =      1951.32391603    -1931.11923428
  entropy T*S    EENTRO =         0.00000000
  eigenvalues    EBANDS =      -508.47389337
  atomic energy  EATOM  =      3390.65143248
  Solvation  Ediel_sol  =         0.00000000
  ---------------------------------------------------
  free energy    TOTEN  =       -37.88388674 eV

  energy without entropy =      -37.88388674  energy(sigma->0) =      -37.88388674


--------------------------------------------------------------------------------------------------------




--------------------------------------- Iteration      1(  22)  ---------------------------------------


    POTLOK:  cpu time   51.2800: real time   51.5450
    SETDIJ:  cpu time    0.0440: real time    0.0432
     EDDAV:  cpu time   23.5840: real time   23.7408
 BZINTS: Fermi energy: -4.242665; 62.000000 electrons
         Band energy:-509.543035;  BLOECHL correction: -0.019559
       DOS:  cpu time    0.0080: real time    0.0080
    CHARGE:  cpu time    1.9960: real time    2.0234
    MIXING:  cpu time    0.0680: real time    0.0672
    --------------------------------------------
      LOOP:  cpu time   76.9800: real time   77.4276

 eigenvalue-minimisations  :  1024
 total energy-change (2. order) :-0.1894229E-02  (-0.8100192E-03)
 number of electron      61.9999988 magnetization       1.6085486
 augmentation part        4.1279787 magnetization       2.5250764

 Broyden mixing:
  rms(total) = 0.83992E+00    rms(broyden)= 0.83992E+00
  rms(prec ) = 0.88922E+00
  weight for this iteration     100.00

 eigenvalues of (default mixing * dielectric matrix)
  average eigenvalue GAMMA=   1.6328
 12.7976  2.6282  1.3508  1.3508  1.2059  1.2059  1.1634  1.1634  0.3743  0.3743
  0.1915  0.7796  0.7796  0.6105  0.6105  0.5608  0.6109

 Free energy of the ion-electron system (eV)
  ---------------------------------------------------
  alpha Z        PSCENC =        36.11812820
  Ewald energy   TEWEN  =      7529.91642125
  -Hartree energ DENC   =    -10504.83527981
  -exchange      EXHF   =         0.00000000
  -V(xc)+E(xc)   XCENC  =        -0.45200764
  PAW double counting   =      1952.62208363    -1932.36352359
  entropy T*S    EENTRO =         0.00000000
  eigenvalues    EBANDS =      -509.54303549
  atomic energy  EATOM  =      3390.65143248
  Solvation  Ediel_sol  =         0.00000000
  ---------------------------------------------------
  free energy    TOTEN  =       -37.88578097 eV

  energy without entropy =      -37.88578097  energy(sigma->0) =      -37.88578097


--------------------------------------------------------------------------------------------------------




--------------------------------------- Iteration      1(  23)  ---------------------------------------


    POTLOK:  cpu time   50.4200: real time   51.0306
    SETDIJ:  cpu time    0.0440: real time    0.0442
     EDDAV:  cpu time   25.4080: real time   25.6704
 BZINTS: Fermi energy: -4.293067; 62.000000 electrons
         Band energy:-511.093592;  BLOECHL correction: -0.014633
       DOS:  cpu time    0.0080: real time    0.0086
    CHARGE:  cpu time    2.0560: real time    2.0582
    MIXING:  cpu time    0.0560: real time    0.0569
    --------------------------------------------
      LOOP:  cpu time   77.9920: real time   78.8689

 eigenvalue-minimisations  :  1120
 total energy-change (2. order) :-0.2231863E-01  (-0.1052869E-02)
 number of electron      61.9999988 magnetization       1.2842123
 augmentation part        4.1482965 magnetization       2.2810826

 Broyden mixing:
  rms(total) = 0.85262E+00    rms(broyden)= 0.85262E+00
  rms(prec ) = 0.90312E+00
  weight for this iteration     100.00

 eigenvalues of (default mixing * dielectric matrix)
  average eigenvalue GAMMA=   1.6666
 12.2470  2.7296  2.6982  1.4907  1.4907  1.1658  1.1658  1.0526  1.0526  0.3743
  0.3743  0.1915  0.7699  0.7699  0.6215  0.6215  0.5646  0.6178

 Free energy of the ion-electron system (eV)
  ---------------------------------------------------
  alpha Z        PSCENC =        36.11812820
  Ewald energy   TEWEN  =      7529.91642125
  -Hartree energ DENC   =    -10503.26099179
  -exchange      EXHF   =         0.00000000
  -V(xc)+E(xc)   XCENC  =        -0.55089143
  PAW double counting   =      1953.32703309    -1933.01563922
  entropy T*S    EENTRO =         0.00000000
  eigenvalues    EBANDS =      -511.09359219
  atomic energy  EATOM  =      3390.65143248
  Solvation  Ediel_sol  =         0.00000000
  ---------------------------------------------------
  free energy    TOTEN  =       -37.90809960 eV

  energy without entropy =      -37.90809960  energy(sigma->0) =      -37.90809960


--------------------------------------------------------------------------------------------------------




--------------------------------------- Iteration      1(  24)  ---------------------------------------


    POTLOK:  cpu time   50.7200: real time   51.0663
    SETDIJ:  cpu time    0.0440: real time    0.0443
     EDDAV:  cpu time   35.3880: real time   35.7054
 BZINTS: Fermi energy: -4.514261; 62.000000 electrons
         Band energy:-617.693616;  BLOECHL correction: -0.000439
       DOS:  cpu time    0.0040: real time    0.0059
    CHARGE:  cpu time    2.0120: real time    2.0300
    MIXING:  cpu time    0.0640: real time    0.0617
    --------------------------------------------
      LOOP:  cpu time   88.2320: real time   88.9135

 eigenvalue-minimisations  :  1584
 total energy-change (2. order) :-0.1045248E+03  (-0.8507726E+02)
 number of electron      61.9999988 magnetization       1.2879267
 augmentation part        2.9210821 magnetization       3.5602446

 Broyden mixing:
  rms(total) = 0.33496E+01    rms(broyden)= 0.33302E+01
  rms(prec ) = 0.34415E+01
  weight for this iteration     100.00

 eigenvalues of (default mixing * dielectric matrix)
  average eigenvalue GAMMA=   1.5789
[...]
     34      -1.6124      0.00000
     35      -1.3720      0.00000
     36       0.2564      0.00000
     37       0.4448      0.00000
     38       1.1283      0.00000
     39       1.2257      0.00000
     40       1.8791      0.00000
     41       2.0450      0.00000
     42       2.2795      0.00000
     43       2.3223      0.00000
     44       2.4582      0.00000
     45       3.0065      0.00000
     46       3.0504      0.00000
     47       3.4846      0.00000
     48       3.6459      0.00000

 k-point     5 :      -0.4000    0.2000    0.0000
  band No.  band energies     occupation 
      1     -16.4704      1.00000
      2     -16.2499      1.00000
      3     -15.8472      1.00000
      4     -15.7771      1.00000
      5     -15.6179      1.00000
      6     -15.4401      1.00000
      7     -10.9296      1.00000
      8      -9.2696      1.00000
      9      -7.8906      1.00000
     10      -7.3957      1.00000
     11      -7.3445      1.00000
     12      -6.8769      1.00000
     13      -6.5881      1.00000
     14      -6.2853      1.00000
     15      -5.9218      1.00000
     16      -5.6306      1.00000
     17      -5.5627      1.00000
     18      -5.4505      1.00000
     19      -5.4021      1.00000
     20      -5.1265      1.00000
     21      -5.0270      1.00000
     22      -4.3064      1.00000
     23      -4.1511      1.00000
     24      -4.0426      1.00000
     25      -4.0148      1.00000
     26      -3.5434      1.00000
     27      -3.4811      1.00000
     28      -3.3045      1.00000
     29      -3.2082      1.00000
     30      -3.1353      1.00000
     31      -3.1293      1.00000
     32      -1.9544      0.00000
     33      -1.8736      0.00000
     34      -1.6095      0.00000
     35      -1.2551      0.00000
     36      -0.2605      0.00000
     37       0.3581      0.00000
     38       0.6845      0.00000
     39       1.0258      0.00000
     40       1.6160      0.00000
     41       1.8634      0.00000
     42       2.1098      0.00000
     43       2.7253      0.00000
     44       2.8760      0.00000
     45       2.9598      0.00000
     46       2.9883      0.00000
     47       3.3403      0.00000
     48       3.7446      0.00000


--------------------------------------------------------------------------------------------------------


 soft charge-density along one line, spin component           1
         0         1         2         3         4         5         6         7         8         9
 total charge-density along one line

 soft charge-density along one line, spin component           2
         0         1         2         3         4         5         6         7         8         9
 total charge-density along one line

 pseudopotential strength for first ion, spin component:           1
-10.144  -0.098  -0.000   0.000  -0.000   0.913   0.035   0.000
 -0.098 -10.281   0.000  -0.000   0.000   0.035   0.961  -0.000
 -0.000   0.000 -10.131   0.000   0.000   0.000  -0.000   0.908
  0.000  -0.000   0.000 -10.281   0.098  -0.000   0.000  -0.000
 -0.000   0.000   0.000   0.098 -10.144   0.000  -0.000  -0.000
  0.913   0.035   0.000  -0.000   0.000   0.700  -0.013  -0.000
  0.035   0.961  -0.000   0.000  -0.000  -0.013   0.682   0.000
  0.000  -0.000   0.908  -0.000  -0.000  -0.000   0.000   0.702
 -0.000   0.000  -0.000   0.961  -0.035   0.000  -0.000   0.000
  0.000  -0.000  -0.000  -0.035   0.913  -0.000   0.000   0.000
  0.000  -0.000   0.008  -0.000   0.000  -0.000  -0.000  -0.002
 -0.000   0.000  -0.001   0.000  -0.000   0.000  -0.000   0.000
  0.000   0.000   0.000  -0.000   0.001  -0.000  -0.000  -0.000
 -0.000  -0.000   0.000  -0.000   0.000  -0.000   0.000  -0.000
  0.001  -0.000   0.000   0.000  -0.000   0.000  -0.000  -0.000
 -0.000  -0.000  -0.000   0.000  -0.001   0.000   0.000   0.000
  0.000   0.000  -0.000   0.000  -0.000  -0.000  -0.000   0.000
 -0.001   0.000  -0.000  -0.000   0.000   0.000  -0.000   0.000
 pseudopotential strength for first ion, spin component:           2
-10.144  -0.098  -0.000   0.000  -0.000   0.913   0.035   0.000
 -0.098 -10.281   0.000  -0.000   0.000   0.035   0.961  -0.000
 -0.000   0.000 -10.131   0.000   0.000   0.000  -0.000   0.908
  0.000  -0.000   0.000 -10.281   0.098  -0.000   0.000  -0.000
 -0.000   0.000   0.000   0.098 -10.144   0.000  -0.000  -0.000
  0.913   0.035   0.000  -0.000   0.000   0.700  -0.013  -0.000
  0.035   0.961  -0.000   0.000  -0.000  -0.013   0.682   0.000
  0.000  -0.000   0.908  -0.000  -0.000  -0.000   0.000   0.702
 -0.000   0.000  -0.000   0.961  -0.035   0.000  -0.000   0.000
  0.000  -0.000  -0.000  -0.035   0.913  -0.000   0.000   0.000
  0.000  -0.000   0.008  -0.000   0.000  -0.000  -0.000  -0.002
 -0.000   0.000  -0.001   0.000  -0.000   0.000  -0.000   0.000
  0.000   0.000   0.000  -0.000   0.001  -0.000  -0.000  -0.000
 -0.000  -0.000   0.000  -0.000   0.000  -0.000   0.000  -0.000
  0.001  -0.000   0.000   0.000  -0.000   0.000  -0.000  -0.000
 -0.000  -0.000  -0.000   0.000  -0.001   0.000   0.000   0.000
  0.000   0.000  -0.000   0.000  -0.000  -0.000  -0.000   0.000
 -0.001   0.000  -0.000  -0.000   0.000   0.000  -0.000   0.000
 total augmentation occupancy for first ion, spin component:           1
  1.690  -0.335   0.000   0.001  -0.000   0.068   0.162   0.000  -0.000   0.000  -0.000  -0.000   0.000   0.000   0.006  -0.000
 -0.335   1.387  -0.000  -0.000   0.001   0.156   0.222   0.000   0.000  -0.000   0.000  -0.000   0.000  -0.000   0.006  -0.000
  0.000  -0.000   1.934  -0.000  -0.000   0.000   0.000  -0.057   0.000  -0.000  -0.016  -0.001  -0.000   0.000   0.000   0.000
  0.001  -0.000  -0.000   1.387   0.335  -0.000  -0.000   0.000   0.222  -0.156   0.000   0.000  -0.006   0.000   0.000   0.000
 -0.000   0.001  -0.000   0.335   1.690  -0.000  -0.000  -0.000  -0.162   0.068   0.000   0.000   0.006  -0.000  -0.000  -0.000
  0.068   0.156   0.000  -0.000  -0.000   0.082   0.042   0.000  -0.000  -0.000   0.000  -0.000  -0.000   0.000   0.012   0.000
  0.162   0.222   0.000  -0.000  -0.000   0.042   0.129   0.000  -0.000  -0.000   0.000  -0.000   0.000   0.000  -0.003  -0.000
  0.000   0.000  -0.057   0.000  -0.000   0.000   0.000   0.079   0.000  -0.000   0.036  -0.015  -0.000   0.000   0.000   0.000
 -0.000   0.000   0.000   0.222  -0.162  -0.000  -0.000   0.000   0.129  -0.042   0.000  -0.000   0.003  -0.000   0.000  -0.000
  0.000  -0.000  -0.000  -0.156   0.068  -0.000  -0.000  -0.000  -0.042   0.082  -0.000   0.000   0.012  -0.000   0.000  -0.002
 -0.000  -0.000  -0.016   0.000   0.000   0.000   0.000   0.036  -0.000  -0.000   1.016  -0.286   0.000   0.001   0.000   0.000
 -0.000  -0.000  -0.001   0.000   0.000  -0.000  -0.000  -0.015   0.000   0.000  -0.286   0.141  -0.000  -0.000   0.000   0.000
  0.000   0.000  -0.000  -0.006   0.006  -0.000   0.000  -0.000   0.003   0.012  -0.000   0.000   0.185   0.000  -0.000  -0.014
  0.000  -0.000   0.000  -0.000  -0.000   0.000   0.000   0.000  -0.000  -0.000   0.001  -0.000   0.000   0.193   0.000   0.000
  0.006   0.006   0.000   0.000  -0.000   0.012  -0.003   0.000   0.000   0.000   0.000   0.000  -0.000   0.000   0.185   0.000
 -0.000  -0.000   0.000   0.000  -0.000   0.000  -0.000   0.000  -0.000  -0.002  -0.000  -0.000  -0.014   0.000   0.000   0.002
  0.000   0.000   0.000  -0.000  -0.000  -0.000   0.000  -0.000   0.000   0.000  -0.000   0.000   0.000  -0.015  -0.000  -0.000
 -0.000  -0.000  -0.000  -0.000   0.000  -0.002   0.000  -0.000  -0.000  -0.000  -0.000  -0.000  -0.000   0.000  -0.014  -0.000
 total augmentation occupancy for first ion, spin component:           2
  0.000   0.000   0.000   0.000   0.000   0.000  -0.000   0.000  -0.000   0.000  -0.000  -0.000  -0.000  -0.000   0.000  -0.000
  0.000   0.000   0.000  -0.000   0.000  -0.000   0.000  -0.000   0.000  -0.000   0.000   0.000  -0.000  -0.000   0.000  -0.000
  0.000   0.000  -0.000   0.000  -0.000   0.000  -0.000   0.000  -0.000  -0.000  -0.000  -0.000  -0.000  -0.000   0.000  -0.000
  0.000  -0.000   0.000   0.000  -0.000  -0.000  -0.000  -0.000   0.000   0.000  -0.000   0.000  -0.000   0.000  -0.000   0.000
 -0.000   0.000  -0.000  -0.000   0.000  -0.000  -0.000  -0.000   0.000   0.000   0.000   0.000   0.000   0.000   0.000   0.000
  0.000  -0.000   0.000  -0.000  -0.000  -0.000   0.000   0.000  -0.000  -0.000   0.000   0.000  -0.000   0.000   0.000  -0.000
 -0.000   0.000  -0.000  -0.000  -0.000   0.000   0.000   0.000  -0.000  -0.000   0.000   0.000   0.000   0.000  -0.000  -0.000
  0.000  -0.000   0.000  -0.000  -0.000   0.000   0.000   0.000   0.000  -0.000   0.000   0.000  -0.000   0.000  -0.000  -0.000
 -0.000   0.000  -0.000   0.000   0.000  -0.000  -0.000   0.000   0.000  -0.000  -0.000   0.000   0.000  -0.000   0.000  -0.000
  0.000  -0.000  -0.000   0.000   0.000   0.000  -0.000  -0.000  -0.000  -0.000  -0.000  -0.000   0.000  -0.000   0.000   0.000
 -0.000   0.000  -0.000  -0.000   0.000   0.000  -0.000   0.000  -0.000  -0.000   0.000  -0.000  -0.000   0.000   0.000   0.000
 -0.000   0.000  -0.000   0.000   0.000   0.000   0.000   0.000   0.000  -0.000  -0.000   0.000   0.000   0.000  -0.000   0.000
 -0.000  -0.000  -0.000  -0.000   0.000  -0.000   0.000  -0.000   0.000   0.000  -0.000   0.000   0.000  -0.000  -0.000  -0.000
 -0.000  -0.000  -0.000   0.000   0.000   0.000   0.000   0.000  -0.000  -0.000   0.000   0.000   0.000   0.000   0.000   0.000
  0.000   0.000   0.000  -0.000   0.000   0.000  -0.000  -0.000   0.000   0.000   0.000  -0.000  -0.000   0.000   0.000   0.000
 -0.000  -0.000  -0.000   0.000   0.000  -0.000  -0.000  -0.000  -0.000   0.000   0.000   0.000  -0.000   0.000   0.000   0.000
 -0.000   0.000  -0.000   0.000   0.000  -0.000   0.000  -0.000  -0.000   0.000  -0.000  -0.000  -0.000  -0.000   0.000   0.000
  0.000  -0.000   0.000  -0.000   0.000   0.000   0.000  -0.000  -0.000   0.000  -0.000   0.000  -0.000   0.000  -0.000  -0.000


------------------------ aborting loop because EDIFF is reached ----------------------------------------





 total charge     

# of ion       s       p       d       tot
------------------------------------------
    1        0.363   0.426   7.366   8.154
    2        0.363   0.426   7.366   8.154
    3        0.762   0.903   0.000   1.665
    4        0.762   0.903   0.000   1.665
    5        1.482   2.287   0.049   3.818
    6        1.477   2.328   0.050   3.854
    7        1.481   2.296   0.050   3.827
    8        1.482   2.287   0.049   3.818
    9        1.477   2.328   0.050   3.854
   10        1.481   2.296   0.050   3.827
--------------------------------------------------
tot         11.130  16.479  15.029  42.638



 magnetization (x)

# of ion       s       p       d       tot
------------------------------------------
    1       -0.000  -0.000   0.000   0.000
    2       -0.000  -0.000   0.000   0.000
    3        0.000   0.000   0.000   0.000
    4        0.000   0.000   0.000   0.000
    5       -0.000   0.000  -0.000   0.000
    6       -0.000   0.000  -0.000   0.000
    7       -0.000   0.000  -0.000   0.000
    8       -0.000   0.000  -0.000   0.000
    9       -0.000   0.000  -0.000   0.000
   10       -0.000   0.000  -0.000   0.000
--------------------------------------------------
tot         -0.000   0.000   0.000   0.000

    CHARGE:  cpu time    2.0840: real time    2.0891
    FORLOC:  cpu time    0.0560: real time    0.0550
    FORNL :  cpu time    6.8840: real time    6.8942
    STRESS:  cpu time   20.5720: real time   20.6024
    FORCOR:  cpu time   51.7480: real time   51.7802
    FORHAR:  cpu time    0.3200: real time    0.3211
    MIXING:  cpu time    0.0440: real time    0.0444
    OFIELD:  cpu time    0.0000: real time    0.0001

  FORCE on cell =-STRESS in cart. coord.  units (eV):
  Direction    XX          YY          ZZ          XY          YZ          ZX
  --------------------------------------------------------------------------------------
  Alpha Z    49.96032    49.96032    49.96032
  Ewald   11088.01345 11088.01097-13117.65655    -0.00200    -0.00057    -0.00103
  Hartree 11677.52752 11677.52843-11247.36591    -0.00034     0.00007     0.00012
  E(xc)    -255.10589  -255.10591  -254.73389     0.00004     0.00000     0.00001
  Local  -23509.50468-23509.50443 23591.92127     0.00193     0.00030     0.00057
  n-local   263.40823   263.33888   266.53665    -0.09636     0.70930     0.52292
  augment    59.21881    59.21881    55.07530     0.00024     0.00003     0.00004
  Kinetic   629.38760   624.12510   656.51925    -3.44727     0.94418     1.13480
  Fock        0.00000     0.00000     0.00000     0.00000     0.00000     0.00000
  -------------------------------------------------------------------------------------
  Total       0.23876     0.23876     0.25642     0.00000    -0.00000     0.00000
  in kB       0.54615     0.54615     0.58656     0.00000    -0.00000     0.00000
  external pressure =        0.56 kB  Pullay stress =        0.00 kB


 VOLUME and BASIS-vectors are now :
 -----------------------------------------------------------------------------
  energy-cutoff  :      520.00
  volume of cell :      700.41
      direct lattice vectors                 reciprocal lattice vectors
     6.134364681  0.000000038  0.000000000     0.163016067 -0.094117363 -0.000000000
     3.067181976  5.312515426  0.000000000    -0.000000001  0.188234748  0.000000000
     0.000000000 -0.000000000 21.492161337     0.000000000  0.000000000  0.046528592

  length of vectors
     6.134364681  6.134364305 21.492161337     0.188234737  0.188234748  0.046528592


 FORCES acting on ions
    electron-ion (+dipol)            ewald-force                    non-local-force                 convergence-correction
 -----------------------------------------------------------------------------------------------
   -.120E-03 -.739E-04 0.115E+01   0.706E-03 0.421E-03 -.117E+01   0.694E-17 -.729E-21 0.188E-01   0.136E-07 0.102E-07 -.979E-04
   0.120E-03 0.739E-04 -.115E+01   -.706E-03 -.421E-03 0.117E+01   0.694E-17 0.729E-21 -.188E-01   -.136E-07 -.102E-07 0.979E-04
   -.504E-04 -.144E-05 0.239E+03   -.187E-03 -.104E-03 -.232E+03   -.173E-16 -.136E-16 -.805E+01   0.795E-08 -.444E-08 -.451E-01
   0.504E-04 0.144E-05 -.239E+03   0.187E-03 0.104E-03 0.232E+03   0.382E-16 0.136E-16 0.805E+01   -.795E-08 0.444E-08 0.451E-01
   -.240E+02 0.183E+00 -.513E+03   0.217E+02 -.184E+00 0.516E+03   0.192E+01 -.101E-01 -.278E+01   0.848E-02 0.239E-05 0.991E-01
   0.122E+02 0.207E+02 -.513E+03   -.110E+02 -.187E+02 0.516E+03   -.968E+00 -.166E+01 -.278E+01   -.424E-02 -.735E-02 0.991E-01
   0.119E+02 -.209E+02 -.513E+03   -.107E+02 0.189E+02 0.516E+03   -.951E+00 0.167E+01 -.278E+01   -.424E-02 0.734E-02 0.991E-01
   0.240E+02 -.183E+00 0.513E+03   -.217E+02 0.184E+00 -.516E+03   -.192E+01 0.101E-01 0.278E+01   -.848E-02 -.239E-05 -.991E-01
   -.122E+02 -.207E+02 0.513E+03   0.110E+02 0.187E+02 -.516E+03   0.968E+00 0.166E+01 0.278E+01   0.424E-02 0.735E-02 -.991E-01
   -.119E+02 0.209E+02 0.513E+03   0.107E+02 -.189E+02 -.516E+03   0.951E+00 -.167E+01 0.278E+01   0.424E-02 -.734E-02 -.991E-01
 -----------------------------------------------------------------------------------------------
   0.694E-10 -.179E-10 0.908E-09   0.124E-13 0.000E+00 -.227E-12   0.000E+00 0.000E+00 -.888E-15   0.156E-13 -.165E-13 0.265E-10


 POSITION                                       TOTAL-FORCE (eV/Angst)
 -----------------------------------------------------------------------------------
      3.06718      1.77084     10.74477        -0.000000      0.000000     -0.000712
      6.13437      3.54168     10.74739        -0.000000     -0.000000      0.000712
     -0.00000     -0.00000      9.64609        -0.000000      0.000000     -0.497306
     -0.00000     -0.00000     11.84607        -0.000000     -0.000000      0.497306
      3.86805      0.00204     12.27552        -0.429771     -0.010753     -0.153083
      1.13493      1.96167     12.27552         0.205574      0.377569     -0.153083
      4.19858      3.34881     12.27552         0.224198     -0.366817     -0.153083
      5.33349      5.31047      9.21665         0.429771      0.010753      0.153083
      8.06662      3.35085      9.21665        -0.205574     -0.377569      0.153083
      5.00297      1.96370      9.21665        -0.224198      0.366817      0.153083
 -----------------------------------------------------------------------------------
    total drift:                                0.000000     -0.000000      0.000000


--------------------------------------------------------------------------------------------------------



  FREE ENERGIE OF THE ION-ELECTRON SYSTEM (eV)
  ---------------------------------------------------
  free  energy   TOTEN  =       -43.09460180 eV

  energy  without entropy=      -43.09460180  energy(sigma->0) =      -43.09460180

 d Force = 0.1649575E-01[ 0.393E-02, 0.291E-01]  d Energy = 0.1267082E+00-0.110E+00
 d Force = 0.2487743E+02[ 0.245E+02, 0.253E+02]  d Ewald  = 0.2257582E+03-0.201E+03


--------------------------------------------------------------------------------------------------------


    POTLOK:  cpu time   51.6800: real time   51.7855


--------------------------------------------------------------------------------------------------------




--------------------------------------------------------------------------------------------------------


  
 reached required accuracy - stopping structural energy minimisation
     LOOP+:  cpu time  853.3200: real time  858.4466
    4ORBIT:  cpu time    0.0000: real time    0.0000



 total charge     

# of ion       s       p       d       tot
------------------------------------------
    1        0.363   0.426   7.366   8.154
    2        0.363   0.426   7.366   8.154
    3        0.762   0.903   0.000   1.665
    4        0.762   0.903   0.000   1.665
    5        1.482   2.287   0.049   3.818
    6        1.477   2.328   0.050   3.854
    7        1.481   2.296   0.050   3.827
    8        1.482   2.287   0.049   3.818
    9        1.477   2.328   0.050   3.854
   10        1.481   2.296   0.050   3.827
--------------------------------------------------
tot         11.130  16.479  15.029  42.638



 magnetization (x)

# of ion       s       p       d       tot
------------------------------------------
    1       -0.000  -0.000   0.000   0.000
    2       -0.000  -0.000   0.000   0.000
    3        0.000   0.000   0.000   0.000
    4        0.000   0.000   0.000   0.000
    5       -0.000   0.000  -0.000   0.000
    6       -0.000   0.000  -0.000   0.000
    7       -0.000   0.000  -0.000   0.000
    8       -0.000   0.000  -0.000   0.000
    9       -0.000   0.000  -0.000   0.000
   10       -0.000   0.000  -0.000   0.000
--------------------------------------------------
tot         -0.000   0.000   0.000   0.000

 BZINTS: Fermi energy: -2.958697; 62.000000 electrons
         Band energy:-465.298297;  BLOECHL correction:  0.000000

 total amount of memory used by VASP MPI-rank0   131489. kBytes
=======================================================================

   base      :      30000. kBytes
   nonlr-proj:      11179. kBytes
   fftplans  :      11247. kBytes
   grid      :      66142. kBytes
   one-center:        311. kBytes
   wavefun   :      12610. kBytes

  
  
 General timing and accounting informations for this job:
 ========================================================
  
                  Total CPU time used (sec):    10222.864
                            User time (sec):     9987.984
                          System time (sec):      234.880
                         Elapsed time (sec):    10287.507
  
                   Maximum memory used (kb):      385616.
                   Average memory used (kb):           0.
  
                          Minor page faults:      7658001
                          Major page faults:            9
                 Voluntary context switches:         1062
