       N       E                     dE             d eps       ncg     rms          rms(c)
DAV:   1     0.411856032041E+03    0.41186E+03   -0.19642E+04   960   0.948E+02
DAV:   2     0.317222847399E+02   -0.38013E+03   -0.36001E+03  1488   0.198E+02
DAV:   3    -0.405912896195E+02   -0.72314E+02   -0.68996E+02  1248   0.773E+01
DAV:   4    -0.434224301250E+02   -0.28311E+01   -0.28121E+01  1168   0.204E+01
DAV:   5    -0.435045980143E+02   -0.82168E-01   -0.82185E-01  1280   0.372E+00    0.446E+01
DAV:   6    -0.103404133688E+03   -0.59900E+02   -0.81141E+02  1344   0.192E+02    0.655E+01
DAV:   7    -0.542372863320E+02    0.49167E+02   -0.87239E+01  1408   0.509E+01    0.362E+01
DAV:   8    -0.432738946917E+02    0.10963E+02   -0.43770E+02  1120   0.800E+01    0.293E+01
DAV:   9    -0.366481698118E+02    0.66257E+01   -0.73652E+00  1120   0.245E+01    0.183E+01
DAV:  10    -0.351224962237E+02    0.15257E+01   -0.20639E+00  1488   0.165E+01    0.974E+00
DAV:  11    -0.351003146474E+02    0.22182E-01   -0.69476E-01  1104   0.387E+00    0.980E+00
DAV:  12    -0.351263645465E+02   -0.26050E-01   -0.15072E-02  1392   0.896E-01    0.100E+01
DAV:  13    -0.353020205776E+02   -0.17566E+00   -0.27896E-01  1184   0.343E+00    0.927E+00
DAV:  14    -0.357281839372E+02   -0.42616E+00   -0.91906E-01  1152   0.118E+01    0.930E+00
DAV:  15    -0.356792984652E+02    0.48885E-01   -0.34623E-01  1376   0.895E+00    0.821E+00
DAV:  16    -0.352662380419E+02    0.41306E+00   -0.94256E-01  1376   0.112E+01    0.349E+00
DAV:  17    -0.352988932300E+02   -0.32655E-01   -0.14058E+00  1168   0.649E+00    0.246E+00
DAV:  18    -0.353462086635E+02   -0.47315E-01   -0.86795E-02  1360   0.259E+00    0.133E+00
DAV:  19    -0.354173127244E+02   -0.71104E-01   -0.70410E-02  1328   0.253E+00    0.108E+00
DAV:  20    -0.354436755004E+02   -0.26363E-01   -0.66629E-02  1408   0.305E+00    0.163E+00
DAV:  21    -0.354556095149E+02   -0.11934E-01   -0.35159E-02  1344   0.152E+00    0.215E+00
DAV:  22    -0.354351776828E+02    0.20432E-01   -0.28459E-02  1264   0.136E+00    0.148E+00
DAV:  23    -0.354278356549E+02    0.73420E-02   -0.47826E-02  1072   0.282E+00    0.353E-01
DAV:  24    -0.354302514580E+02   -0.24158E-02   -0.16577E-02   992   0.811E-01    0.203E-01
DAV:  25    -0.354285051031E+02    0.17464E-02   -0.12212E-02  1024   0.627E-01    0.180E-01
DAV:  26    -0.354300665022E+02   -0.15614E-02   -0.55263E-04  1088   0.129E-01    0.206E-01
DAV:  27    -0.354311459243E+02   -0.10794E-02   -0.26813E-04  1072   0.120E-01    0.173E-01
DAV:  28    -0.354335648526E+02   -0.24189E-02   -0.54583E-04  1136   0.228E-01    0.601E-02
DAV:  29    -0.354354747102E+02   -0.19099E-02   -0.28240E-04  1024   0.836E-02    0.434E-02
DAV:  30    -0.354366107151E+02   -0.11360E-02   -0.18019E-04   992   0.690E-02    0.352E-02
DAV:  31    -0.354369683388E+02   -0.35762E-03   -0.13171E-04  1024   0.718E-02    0.113E-02
DAV:  32    -0.354371582476E+02   -0.18991E-03   -0.11166E-04   848   0.677E-02    0.124E-02
DAV:  33    -0.354370815923E+02    0.76655E-04   -0.66543E-05   864   0.386E-02
   1 F= -.35437082E+02 E0= -.35437082E+02  d E =-.354371E+02  mag=     1.9990
       N       E                     dE             d eps       ncg     rms          rms(c)
DAV:   1    -0.160008666256E+03   -0.12457E+03   -0.12577E+03  1328   0.293E+02    0.107E+02
DAV:   2    -0.354178141486E+03   -0.19417E+03   -0.26370E+03  1472   0.339E+02    0.655E+01
DAV:   3    -0.772825908429E+02    0.27690E+03   -0.66415E+02  1152   0.138E+02    0.373E+01
DAV:   4    -0.553658767579E+02    0.21917E+02   -0.37968E+02  1424   0.262E+02    0.450E+01
DAV:   5    -0.104568729111E+03   -0.49203E+02   -0.70171E+02  1488   0.599E+01    0.277E+01
DAV:   6    -0.408155788563E+03   -0.30359E+03   -0.43852E+03  1376   0.348E+01    0.220E+01
DAV:   7    -0.419167698802E+02    0.36624E+03   -0.12330E+03  1280   0.286E+01    0.788E+00
DAV:   8    -0.427774720262E+02   -0.86070E+00   -0.56877E-01  1280   0.432E+00    0.681E+00
DAV:   9    -0.431653294797E+02   -0.38786E+00   -0.45718E+00  1360   0.143E+01    0.819E+00
DAV:  10    -0.431398279320E+02    0.25502E-01   -0.28078E+00  1296   0.176E+01    0.756E+00
DAV:  11    -0.428683111294E+02    0.27152E+00   -0.14641E+00  1248   0.107E+01    0.185E+00
DAV:  12    -0.428358009663E+02    0.32510E-01   -0.10084E-01  1200   0.259E+00    0.167E+00
DAV:  13    -0.428144372448E+02    0.21364E-01   -0.52022E-02  1424   0.349E+00    0.133E+00
DAV:  14    -0.428214500871E+02   -0.70128E-02   -0.22197E-02  1376   0.137E+00    0.146E+00
DAV:  15    -0.428166169256E+02    0.48332E-02   -0.15275E-02  1104   0.186E+00    0.120E+00
DAV:  16    -0.428201612284E+02   -0.35443E-02   -0.98977E-03  1200   0.811E-01    0.114E+00
DAV:  17    -0.428223443702E+02   -0.21831E-02   -0.74133E-03  1088   0.506E-01    0.109E+00
DAV:  18    -0.428273047251E+02   -0.49604E-02   -0.35535E-03  1328   0.338E-01    0.100E+00
DAV:  19    -0.428291618140E+02   -0.18571E-02   -0.10706E-03  1248   0.380E-01    0.954E-01
DAV:  20    -0.428323821140E+02   -0.32203E-02   -0.69170E-04  1168   0.233E-01    0.915E-01
DAV:  21    -0.428364347596E+02   -0.40526E-02   -0.10305E-03   992   0.240E-01    0.868E-01
DAV:  22    -0.428388680081E+02   -0.24332E-02   -0.91302E-04  1008   0.193E-01    0.832E-01
DAV:  23    -0.428427485555E+02   -0.38805E-02   -0.50906E-04   960   0.155E-01    0.770E-01
DAV:  24    -0.428478229193E+02   -0.50744E-02   -0.93216E-04  1024   0.189E-01    0.645E-01
DAV:  25    -0.428526533047E+02   -0.48304E-02   -0.17745E-03  1152   0.416E-01    0.545E-01
DAV:  26    -0.428620112107E+02   -0.93579E-02   -0.25715E-03  1168   0.281E-01    0.415E-01
DAV:  27    -0.428695171252E+02   -0.75059E-02   -0.11030E-03  1040   0.295E-01    0.353E-01
DAV:  28    -0.428722822631E+02   -0.27651E-02   -0.27167E-04   960   0.104E-01    0.322E-01
DAV:  29    -0.428714907727E+02    0.79149E-03   -0.17143E-04   896   0.910E-02    0.294E-01
DAV:  30    -0.428696516158E+02    0.18392E-02   -0.11390E-04  1088   0.660E-02    0.275E-01
DAV:  31    -0.428681117424E+02    0.15399E-02   -0.17091E-04   944   0.823E-02    0.254E-01
DAV:  32    -0.428677549043E+02    0.35684E-03   -0.13450E-04   896   0.605E-02    0.241E-01
DAV:  33    -0.428676696580E+02    0.85246E-04   -0.73996E-05   880   0.415E-02
   2 F= -.42867670E+02 E0= -.42867670E+02  d E =-.743059E+01  mag=     1.9881
       N       E                     dE             d eps       ncg     rms          rms(c)
DAV:   1    -0.431317690026E+02   -0.26401E+00   -0.29989E+00  1120   0.164E+01    0.453E+00
DAV:   2    -0.440584896850E+02   -0.92672E+00   -0.52587E+00  1120   0.351E+01    0.987E+00
DAV:   3    -0.429120022548E+02    0.11465E+01   -0.25776E+00  1072   0.313E+01    0.116E+00
DAV:   4    -0.429161396377E+02   -0.41374E-02   -0.29108E-01  1264   0.244E+00    0.126E+00
DAV:   5    -0.429031893019E+02    0.12950E-01   -0.29698E-02  1152   0.253E+00    0.276E-01
DAV:   6    -0.429037386530E+02   -0.54935E-03   -0.53917E-03  1536   0.583E-01    0.101E-01
DAV:   7    -0.429040447121E+02   -0.30606E-03   -0.17611E-03  1264   0.673E-01    0.154E-01
DAV:   8    -0.429039752953E+02    0.69417E-04   -0.71156E-04   880   0.455E-01
   3 F= -.42903975E+02 E0= -.42903975E+02  d E =-.746689E+01  mag=     1.9893
       N       E                     dE             d eps       ncg     rms          rms(c)
DAV:   1    -0.430339940488E+02   -0.12995E+00   -0.94772E+00   960   0.124E+01    0.195E+00
DAV:   2    -0.432035386140E+02   -0.16954E+00   -0.12951E+00  1328   0.141E+01    0.365E+00
DAV:   3    -0.430550135623E+02    0.14853E+00   -0.50910E-01  1104   0.130E+01    0.920E-01
DAV:   4    -0.430477823844E+02    0.72312E-02   -0.61162E-02  1264   0.151E+00    0.474E-01
DAV:   5    -0.430456726557E+02    0.21097E-02   -0.88641E-03  1376   0.132E+00    0.256E-01
DAV:   6    -0.430456709319E+02    0.17238E-05   -0.66071E-03  1264   0.134E+00    0.236E-01
DAV:   7    -0.430452496931E+02    0.42124E-03   -0.17903E-03  1184   0.679E-01    0.434E-02
DAV:   8    -0.430453002621E+02   -0.50569E-04   -0.20497E-04   800   0.102E-01
   4 F= -.43045300E+02 E0= -.43045300E+02  d E =-.141325E+00  mag=     1.9966
       N       E                     dE             d eps       ncg     rms          rms(c)
DAV:   1    -0.430638347432E+02   -0.18585E-01   -0.80531E+00   960   0.115E+01    0.180E+00
DAV:   2    -0.432066953270E+02   -0.14286E+00   -0.10946E+00  1360   0.132E+01    0.334E+00
DAV:   3    -0.430815824377E+02    0.12511E+00   -0.43893E-01  1040   0.121E+01    0.830E-01
DAV:   4    -0.430756020341E+02    0.59804E-02   -0.51018E-02  1184   0.138E+00    0.433E-01
DAV:   5    -0.430735398664E+02    0.20622E-02   -0.63751E-03  1312   0.104E+00    0.835E-02
DAV:   6    -0.430737386715E+02   -0.19881E-03   -0.21613E-03  1360   0.584E-01    0.163E-01
DAV:   7    -0.430736468521E+02    0.91819E-04   -0.11649E-03   976   0.583E-01    0.653E-02
DAV:   8    -0.430738127519E+02   -0.16590E-03   -0.28378E-04   864   0.176E-01    0.210E-02
DAV:   9    -0.430739042699E+02   -0.91518E-04   -0.18635E-04   848   0.705E-02
   5 F= -.43073904E+02 E0= -.43073904E+02  d E =-.169929E+00  mag=     1.9994
       N       E                     dE             d eps       ncg     rms          rms(c)
DAV:   1    -0.430884080010E+02   -0.14595E-01   -0.16158E+00  1056   0.660E+00    0.118E+00
DAV:   2    -0.431448723499E+02   -0.56464E-01   -0.32657E-01  1152   0.949E+00    0.235E+00
DAV:   3    -0.430814337401E+02    0.63439E-01   -0.17384E-01   960   0.753E+00    0.476E-01
DAV:   4    -0.430795340000E+02    0.18997E-02   -0.16481E-02  1120   0.899E-01    0.212E-01
DAV:   5    -0.430794649893E+02    0.69011E-04   -0.27859E-03  1184   0.845E-01    0.233E-01
DAV:   6    -0.430791595349E+02    0.30545E-03   -0.28030E-03  1168   0.885E-01    0.109E-01
DAV:   7    -0.430790599808E+02    0.99554E-04   -0.48534E-04   800   0.299E-01
   6 F= -.43079060E+02 E0= -.43079060E+02  d E =-.515571E-02  mag=     1.9998
       N       E                     dE             d eps       ncg     rms          rms(c)
DAV:   1    -0.430795535174E+02   -0.39398E-03   -0.50148E-02   960   0.112E+00    0.211E-01
DAV:   2    -0.430813546196E+02   -0.18011E-02   -0.10605E-02  1072   0.169E+00    0.424E-01
DAV:   3    -0.430793501384E+02    0.20045E-02   -0.57165E-03   960   0.142E+00    0.852E-02
DAV:   4    -0.430793550704E+02   -0.49319E-05   -0.65425E-04  1120   0.246E-01
   7 F= -.43079355E+02 E0= -.43079355E+02  d E =-.545080E-02  mag=     1.9998
       N       E                     dE             d eps       ncg     rms          rms(c)
DAV:   1    -0.430959221525E+02   -0.16572E-01   -0.11769E+00  1104   0.575E+00    0.130E+00
DAV:   2    -0.431679890127E+02   -0.72067E-01   -0.41098E-01  1008   0.108E+01    0.271E+00
DAV:   3    -0.430818054299E+02    0.86184E-01   -0.23171E-01   992   0.925E+00    0.436E-01
DAV:   4    -0.430829365934E+02   -0.11312E-02   -0.31801E-02  1280   0.192E+00    0.621E-01
DAV:   5    -0.430806339008E+02    0.23027E-02   -0.12264E-02  1264   0.178E+00    0.264E-01
DAV:   6    -0.430799485787E+02    0.68532E-03   -0.15719E-03   992   0.577E-01    0.753E-02
DAV:   7    -0.430799312159E+02    0.17363E-04   -0.47619E-04   896   0.180E-01
   8 F= -.43079931E+02 E0= -.43079931E+02  d E =-.576145E-03  mag=     1.9999
       N       E                     dE             d eps       ncg     rms          rms(c)
DAV:   1    -0.430842042266E+02   -0.42556E-02   -0.29991E-01  1136   0.292E+00    0.637E-01
DAV:   2    -0.431018791995E+02   -0.17675E-01   -0.97171E-02  1056   0.532E+00    0.134E+00
DAV:   3    -0.430810630790E+02    0.20816E-01   -0.54106E-02   960   0.429E+00    0.222E-01
DAV:   4    -0.430807907666E+02    0.27231E-03   -0.49484E-03  1120   0.400E-01    0.121E-01
DAV:   5    -0.430807026876E+02    0.88079E-04   -0.38023E-04   832   0.295E-01
   9 F= -.43080703E+02 E0= -.43080703E+02  d E =-.134762E-02  mag=     2.0000
       N       E                     dE             d eps       ncg     rms          rms(c)
DAV:   1    -0.430836859252E+02   -0.28952E-02   -0.23034E-01  1040   0.224E+00    0.449E-01
DAV:   2    -0.430917782595E+02   -0.80923E-02   -0.50900E-02  1184   0.358E+00    0.918E-01
DAV:   3    -0.430828451544E+02    0.89331E-02   -0.30283E-02   960   0.311E+00    0.269E-01
DAV:   4    -0.430830912411E+02   -0.24609E-03   -0.80962E-03  1280   0.134E+00    0.323E-01
DAV:   5    -0.430821897951E+02    0.90145E-03   -0.29298E-03  1424   0.864E-01    0.763E-02
DAV:   6    -0.430820951374E+02    0.94658E-04   -0.29488E-04   928   0.200E-01
  10 F= -.43082095E+02 E0= -.43082095E+02  d E =-.139245E-02  mag=     2.0000
       N       E                     dE             d eps       ncg     rms          rms(c)
DAV:   1    -0.430823785514E+02   -0.18876E-03   -0.24686E-02  1072   0.743E-01    0.140E-01
DAV:   2    -0.430830259016E+02   -0.64735E-03   -0.47360E-03  1136   0.106E+00    0.269E-01
DAV:   3    -0.430821845175E+02    0.84138E-03   -0.25097E-03  1024   0.909E-01    0.613E-02
DAV:   4    -0.430821852771E+02   -0.75960E-06   -0.32884E-04   976   0.162E-01
  11 F= -.43082185E+02 E0= -.43082185E+02  d E =-.148259E-02  mag=     2.0000
       N       E                     dE             d eps       ncg     rms          rms(c)
DAV:   1    -0.430910277241E+02   -0.88432E-02   -0.25545E-01  1312   0.321E+00    0.820E-01
DAV:   2    -0.431200852816E+02   -0.29058E-01   -0.15906E-01  1184   0.696E+00    0.178E+00
DAV:   3    -0.430839640556E+02    0.36121E-01   -0.92677E-02   992   0.554E+00    0.325E-01
DAV:   4    -0.430848593906E+02   -0.89534E-03   -0.15219E-02  1296   0.182E+00    0.512E-01
DAV:   5    -0.430828068309E+02    0.20526E-02   -0.75594E-03  1376   0.142E+00    0.117E-01
DAV:   6    -0.430827026721E+02    0.10416E-03   -0.52813E-04   928   0.272E-01    0.287E-02
DAV:   7    -0.430827345314E+02   -0.31859E-04   -0.94406E-05   736   0.712E-02
  12 F= -.43082735E+02 E0= -.43082735E+02  d E =-.549254E-03  mag=     2.0000
       N       E                     dE             d eps       ncg     rms          rms(c)
DAV:   1    -0.430836072769E+02   -0.90460E-03   -0.33142E-02  1280   0.112E+00    0.289E-01
DAV:   2    -0.430871999413E+02   -0.35927E-02   -0.19625E-02   960   0.242E+00    0.617E-01
DAV:   3    -0.430826633350E+02    0.45366E-02   -0.11075E-02  1088   0.199E+00    0.938E-02
DAV:   4    -0.430828243840E+02   -0.16105E-03   -0.76319E-04   976   0.165E-01    0.551E-02
DAV:   5    -0.430829115432E+02   -0.87159E-04   -0.16963E-04   672   0.234E-01
  13 F= -.43082912E+02 E0= -.43082912E+02  d E =-.726266E-03  mag=     2.0000
