 vasp.5.4.4.18Apr17-6-g9f103f2a35 (build May  1 2020 15:48:39) complex           
 executed on             LinuxGNU date 2020.06.21  19:56:02
 running on   16 total cores
 distrk:  each k-point on   16 cores,    1 groups
 distr:  one band on NCORES_PER_BAND=   1 cores,   16 groups


--------------------------------------------------------------------------------------------------------


 INCAR:
 POTCAR:   PAW_PBE Ni 06Sep2000                   
 POTCAR:   PAW_PBE Si 05Jan2001                   
 POTCAR:   PAW_PBE Ge 05Jan2001                   
 POTCAR:    PAW_PBE S 17Jan2003                   

 ----------------------------------------------------------------------------- 
|                                                                             |
|           W    W    AA    RRRRR   N    N  II  N    N   GGGG   !!!           |
|           W    W   A  A   R    R  NN   N  II  NN   N  G    G  !!!           |
|           W    W  A    A  R    R  N N  N  II  N N  N  G       !!!           |
|           W WW W  AAAAAA  RRRRR   N  N N  II  N  N N  G  GGG   !            |
|           WW  WW  A    A  R   R   N   NN  II  N   NN  G    G                |
|           W    W  A    A  R    R  N    N  II  N    N   GGGG   !!!           |
|                                                                             |
|      For optimal performance we recommend to set                            |
|        NCORE= 4 - approx SQRT( number of cores)                             |
|      NCORE specifies how many cores store one orbital (NPAR=cpu/NCORE).     |
|      This setting can  greatly improve the performance of VASP for DFT.     |
|      The default,   NCORE=1            might be grossly inefficient         |
|      on modern multi-core architectures or massively parallel machines.     |
|      Do your own testing !!!!                                               |
|      Unfortunately you need to use the default for GW and RPA calculations. |
|      (for HF NCORE is supported but not extensively tested yet)             |
|                                                                             |
 ----------------------------------------------------------------------------- 


 ----------------------------------------------------------------------------- 
|                                                                             |
|  ADVICE TO THIS USER RUNNING 'VASP/VAMP'   (HEAR YOUR MASTER'S VOICE ...):  |
|                                                                             |
|      You have switched on vdW-DFT.                                          |
|      This routine was written and supplied by Jiri Klimes.                  |
|      We recommed that you carefully read and cite the following             |
|      publication                                                            |
|      J. Klimes, D.R. Bowler, A. Michelides                                  |
|        J. Phys.: Cond Matt. 22 022201 (2010)                                |
|      J. Klimes, D.R. Bowler, A. Michelides                                  |
|        Phys. Rev. B. 83, 195131 (2011)                                      |
|      and references therein.                                                |
|                                                                             |
 ----------------------------------------------------------------------------- 

 POTCAR:   PAW_PBE Ni 06Sep2000                   
   VRHFIN =Ni:                                                                  
   LEXCH  = PE                                                                  
   EATOM  =  1077.9025 eV,   79.2236 Ry                                         
                                                                                
   TITEL  = PAW_PBE Ni 06Sep2000                                                
   LULTRA =        F    use ultrasoft PP ?                                      
   IUNSCR =        1    unscreen: 0-lin 1-nonlin 2-no                           
   RPACOR =    2.000    partial core radius                                     
   POMASS =   58.690; ZVAL   =   10.000    mass and valenz                      
   RCORE  =    2.300    outmost cutoff radius                                   
   RWIGS  =    2.430; RWIGS  =    1.286    wigner-seitz radius (au A)           
   ENMAX  =  269.533; ENMIN  =  202.150 eV                                      
   RCLOC  =    1.681    cutoff for local pot                                    
   LCOR   =        T    correct aug charges                                     
   LPAW   =        T    paw PP                                                  
   EAUG   =  544.565                                                            
   DEXC   =    -.009                                                            
   RMAX   =    2.808    core radius for proj-oper                               
   RAUG   =    1.300    factor for augmentation sphere                          
   RDEP   =    2.390    radius for radial grids                                 
   QCUT   =   -4.451; QGAM   =    8.902    optimization parameters              
                                                                                
   Description                                                                  
     l     E      TYP  RCUT    TYP  RCUT                                        
     2   .000     23  2.300                                                     
     2   .000     23  2.300                                                     
     0   .000     23  2.300                                                     
     0   .000     23  2.300                                                     
     1  -.200     23  2.300                                                     
     1   .000     23  2.300                                                     
     3   .000      7   .000                                                     
  local pseudopotential read in
  partial core-charges read in
  atomic valenz-charges read in
  non local Contribution for L=           2  read in
    real space projection operators read in
  non local Contribution for L=           2  read in
    real space projection operators read in
  non local Contribution for L=           0  read in
    real space projection operators read in
  non local Contribution for L=           0  read in
    real space projection operators read in
  non local Contribution for L=           1  read in
    real space projection operators read in
  non local Contribution for L=           1  read in
    real space projection operators read in
    PAW grid and wavefunctions read in

   number of l-projection  operators is LMAX  =           6
   number of lm-projection operators is LMMAX =          18

 POTCAR:   PAW_PBE Si 05Jan2001                   
   VRHFIN =Si: s2p2                                                             
   LEXCH  = PE                                                                  
   EATOM  =   103.0669 eV,    7.5752 Ry                                         
                                                                                
   TITEL  = PAW_PBE Si 05Jan2001                                                
   LULTRA =        F    use ultrasoft PP ?                                      
   IUNSCR =        1    unscreen: 0-lin 1-nonlin 2-no                           
   RPACOR =    1.500    partial core radius                                     
   POMASS =   28.085; ZVAL   =    4.000    mass and valenz                      
   RCORE  =    1.900    outmost cutoff radius                                   
   RWIGS  =    2.480; RWIGS  =    1.312    wigner-seitz radius (au A)           
   ENMAX  =  245.345; ENMIN  =  184.009 eV                                      
   ICORE  =        2    local potential                                         
   LCOR   =        T    correct aug charges                                     
   LPAW   =        T    paw PP                                                  
   EAUG   =  322.069                                                            
   DEXC   =    -.007                                                            
   RMAX   =    2.944    core radius for proj-oper                               
   RAUG   =    1.300    factor for augmentation sphere                          
   RDEP   =    1.993    radius for radial grids                                 
   QCUT   =   -4.246; QGAM   =    8.493    optimization parameters              
                                                                                
   Description                                                                  
     l     E      TYP  RCUT    TYP  RCUT                                        
     0   .000     23  1.900                                                     
     0   .000     23  1.900                                                     
     1   .000     23  1.900                                                     
     1   .000     23  1.900                                                     
     2   .000      7  1.900                                                     
  local pseudopotential read in
  partial core-charges read in
  atomic valenz-charges read in
  non local Contribution for L=           0  read in
    real space projection operators read in
  non local Contribution for L=           0  read in
    real space projection operators read in
  non local Contribution for L=           1  read in
    real space projection operators read in
  non local Contribution for L=           1  read in
    real space projection operators read in
    PAW grid and wavefunctions read in

   number of l-projection  operators is LMAX  =           4
   number of lm-projection operators is LMMAX =           8

 POTCAR:   PAW_PBE Ge 05Jan2001                   
   VRHFIN =Ge: s2p2                                                             
   LEXCH  = PE                                                                  
   EATOM  =   104.9960 eV,    7.7170 Ry                                         
                                                                                
   TITEL  = PAW_PBE Ge 05Jan2001                                                
   LULTRA =        F    use ultrasoft PP ?                                      
   IUNSCR =        1    unscreen: 0-lin 1-nonlin 2-no                           
   RPACOR =    2.170    partial core radius                                     
   POMASS =   72.610; ZVAL   =    4.000    mass and valenz                      
   RCORE  =    2.300    outmost cutoff radius                                   
   RWIGS  =    2.300; RWIGS  =    1.217    wigner-seitz radius (au A)           
   ENMAX  =  173.807; ENMIN  =  130.355 eV                                      
   ICORE  =        3    local potential                                         
   LCOR   =        T    correct aug charges                                     
   LPAW   =        T    paw PP                                                  
   EAUG   =  385.843                                                            
   DEXC   =    -.138                                                            
   RMAX   =    3.497    core radius for proj-oper                               
   RAUG   =    1.300    factor for augmentation sphere                          
   RDEP   =    2.318    radius for radial grids                                 
   QCUT   =   -3.574; QGAM   =    7.148    optimization parameters              
                                                                                
   Description                                                                  
     l     E      TYP  RCUT    TYP  RCUT                                        
     0   .000     23  2.300                                                     
     0   .000     23  2.300                                                     
     1   .000     23  2.300                                                     
     1   .000     23  2.300                                                     
     2   .000     23  2.300                                                     
     3  -.100      7  2.300                                                     
  local pseudopotential read in
  partial core-charges read in
  atomic valenz-charges read in
  non local Contribution for L=           0  read in
    real space projection operators read in
  non local Contribution for L=           0  read in
    real space projection operators read in
  non local Contribution for L=           1  read in
    real space projection operators read in
  non local Contribution for L=           1  read in
    real space projection operators read in
  non local Contribution for L=           2  read in
    real space projection operators read in
    PAW grid and wavefunctions read in

   number of l-projection  operators is LMAX  =           5
   number of lm-projection operators is LMMAX =          13

 POTCAR:    PAW_PBE S 17Jan2003                   
   VRHFIN =S : s2p4                                                             
   LEXCH  = PE                                                                  
   EATOM  =   276.8230 eV,   20.3459 Ry                                         
                                                                                
   TITEL  = PAW_PBE S 17Jan2003                                                 
   LULTRA =        F    use ultrasoft PP ?                                      
   IUNSCR =        1    unscreen: 0-lin 1-nonlin 2-no                           
   RPACOR =    1.500    partial core radius                                     
   POMASS =   32.066; ZVAL   =    6.000    mass and valenz                      
   RCORE  =    1.900    outmost cutoff radius                                   
   RWIGS  =    2.200; RWIGS  =    1.164    wigner-seitz radius (au A)           
   ENMAX  =  280.000; ENMIN  =  194.016 eV                                      
   ICORE  =        2    local potential                                         
   LCOR   =        T    correct aug charges                                     
   LPAW   =        T    paw PP                                                  
   EAUG   =  335.092                                                            
   DEXC   =     .000                                                            
   RMAX   =    2.867    core radius for proj-oper                               
   RAUG   =    1.300    factor for augmentation sphere                          
   RDEP   =    1.954    radius for radial grids                                 
   QCUT   =   -4.360; QGAM   =    8.721    optimization parameters              
                                                                                
   Description                                                                  
     l     E      TYP  RCUT    TYP  RCUT                                        
     0   .000     23  1.900                                                     
     0   .000     23  1.900                                                     
     1   .000     23  1.900                                                     
     1   .000     23  1.900                                                     
     2   .000     23  1.900                                                     
  local pseudopotential read in
  partial core-charges read in
  atomic valenz-charges read in
  non local Contribution for L=           0  read in
    real space projection operators read in
  non local Contribution for L=           0  read in
    real space projection operators read in
  non local Contribution for L=           1  read in
    real space projection operators read in
  non local Contribution for L=           1  read in
    real space projection operators read in
    PAW grid and wavefunctions read in

   number of l-projection  operators is LMAX  =           4
   number of lm-projection operators is LMMAX =           8

 Optimization of the real space projectors (new method)

 maximal supplied QI-value         = 16.25
 optimisation between [QCUT,QGAM] = [ 11.54, 23.24] = [ 37.28,151.24] Ry 
 Optimized for a Real-space Cutoff    1.49 Angstroem

   l    n(q)    QCUT    max X(q) W(low)/X(q) W(high)/X(q)  e(spline) 
   2      9    11.539     4.811    0.20E-04    0.14E-04    0.45E-07
   2      9    11.539    15.146    0.24E-03    0.12E-03    0.20E-06
   0     10    11.539    14.357    0.18E-04    0.12E-05    0.14E-07
   0     10    11.539    43.282    0.39E-04    0.17E-04    0.23E-06
   1     10    11.539     5.514    0.99E-05    0.13E-04    0.19E-07
   1     10    11.539     7.697    0.38E-04    0.79E-04    0.91E-07
 Optimization of the real space projectors (new method)

 maximal supplied QI-value         = 19.84
 optimisation between [QCUT,QGAM] = [ 11.51, 23.22] = [ 37.09,150.92] Ry 
 Optimized for a Real-space Cutoff    1.21 Angstroem

   l    n(q)    QCUT    max X(q) W(low)/X(q) W(high)/X(q)  e(spline) 
   0      8    11.508     8.708    0.18E-04    0.44E-05    0.47E-08
   0      8    11.508   106.241    0.70E-04    0.15E-03    0.51E-07
   1      8    11.508     5.901    0.63E-05    0.23E-04    0.21E-07
   1      8    11.508    73.241    0.15E-03    0.36E-04    0.79E-07
 Optimization of the real space projectors (new method)

 maximal supplied QI-value         = 16.25
 optimisation between [QCUT,QGAM] = [ 11.54, 23.24] = [ 37.28,151.24] Ry 
 Optimized for a Real-space Cutoff    1.28 Angstroem

   l    n(q)    QCUT    max X(q) W(low)/X(q) W(high)/X(q)  e(spline) 
   0      9    11.539     8.651    0.22E-04    0.16E-04    0.10E-07
   0      9    11.539    33.192    0.11E-03    0.16E-03    0.65E-07
   1      8    11.539     5.899    0.37E-04    0.28E-04    0.43E-07
   1      8    11.539    27.289    0.22E-03    0.28E-04    0.14E-06
   2      8    11.539     4.673    0.11E-03    0.18E-03    0.58E-07
 Optimization of the real space projectors (new method)

 maximal supplied QI-value         = 19.84
 optimisation between [QCUT,QGAM] = [ 11.51, 23.22] = [ 37.09,150.92] Ry 
 Optimized for a Real-space Cutoff    1.21 Angstroem

   l    n(q)    QCUT    max X(q) W(low)/X(q) W(high)/X(q)  e(spline) 
   0      8    11.508     5.487    0.18E-04    0.22E-05    0.47E-08
   0      8    11.508    85.627    0.96E-04    0.18E-03    0.54E-07
   1      8    11.508     3.530    0.17E-04    0.28E-04    0.21E-07
   1      8    11.508    42.714    0.18E-03    0.63E-04    0.92E-07

 ----------------------------------------------------------------------------- 
|                                                                             |
|  ADVICE TO THIS USER RUNNING 'VASP/VAMP'   (HEAR YOUR MASTER'S VOICE ...):  |
|                                                                             |
|      You enforced a specific xc-type in the INCAR file,                     |
|      a different type was found on the POTCAR file                          |
|          I HOPE YOU KNOW, WHAT YOU ARE  DOING                               |
|                                                                             |
 ----------------------------------------------------------------------------- 

 PAW_PBE Ni 06Sep2000                   :
 energy of atom  1       EATOM=-1077.9025
 kinetic energy error for atom=    0.0030 (will be added to EATOM!!)
 PAW_PBE Si 05Jan2001                   :
 energy of atom  2       EATOM= -103.0669
 kinetic energy error for atom=    0.0005 (will be added to EATOM!!)
 PAW_PBE Ge 05Jan2001                   :
 energy of atom  3       EATOM= -104.9960
 kinetic energy error for atom=    0.0002 (will be added to EATOM!!)
  PAW_PBE S 17Jan2003                   :
 energy of atom  4       EATOM= -276.8230
 kinetic energy error for atom=    0.0016 (will be added to EATOM!!)


 POSCAR: Ni2 Si Ge S6                            
  positions in direct lattice
  velocities in cartesian coordinates
  No initial velocities read in
 exchange correlation table for  LEXCH =       42
   RHO(1)=    0.500       N(1)  =     2000
   RHO(2)=  100.500       N(2)  =     4000



--------------------------------------------------------------------------------------------------------


 ion  position               nearest neighbor table
   1  0.333  0.333  0.500-   6 2.78   5 2.78   7 2.78   8 2.78  10 2.78   9 2.78
   2  0.667  0.667  0.500-   9 2.78   8 2.78  10 2.78   5 2.78   7 2.78   6 2.78
   3  0.000  0.000  0.448-   4 2.43   8 2.63  10 2.63   9 2.63
   4  0.000  0.000  0.552-   3 2.43   5 2.63   7 2.63   6 2.63
   5  0.626  0.000  0.574-   4 2.63   1 2.78   2 2.78
   6  0.000  0.373  0.574-   4 2.63   1 2.78   2 2.78
   7  0.373  0.626  0.574-   4 2.63   1 2.78   2 2.78
   8  0.374  1.000  0.426-   3 2.63   2 2.78   1 2.78
   9  1.000  0.627  0.426-   3 2.63   2 2.78   1 2.78
  10  0.627  0.374  0.426-   3 2.63   2 2.78   1 2.78

  LATTYP: Found a hexagonal cell.
 ALAT       =     6.9077769333
 C/A-ratio  =     3.3939410937
  
  Lattice vectors:
  
 A1 = (   3.4538890000,  -5.9823100000,   0.0000000000)
 A2 = (  -6.9077770000,   0.0000000000,   0.0000000000)
 A3 = (   0.0000000000,   0.0000000000, -23.4445880000)


Analysis of symmetry for initial positions (statically):
=====================================================================
 Subroutine PRICEL returns:
 Original cell was already a primitive cell.
 

 Routine SETGRP: Setting up the symmetry group for a 
 hexagonal supercell.


 Subroutine GETGRP returns: Found  3 space group operations
 (whereof  3 operations were pure point group operations)
 out of a pool of 24 trial point group operations.


The static configuration has the point symmetry C_3 .


Analysis of symmetry for dynamics (positions and initial velocities):
=====================================================================
 Subroutine PRICEL returns:
 Original cell was already a primitive cell.
 

 Routine SETGRP: Setting up the symmetry group for a 
 hexagonal supercell.


 Subroutine GETGRP returns: Found  3 space group operations
 (whereof  3 operations were pure point group operations)
 out of a pool of 24 trial point group operations.


The dynamic configuration has the point symmetry C_3 .


Analysis of constrained symmetry for selective dynamics:
=====================================================================
 Subroutine PRICEL returns:
 Original cell was already a primitive cell.
 

 Routine SETGRP: Setting up the symmetry group for a 
 hexagonal supercell.


 Subroutine GETGRP returns: Found  3 space group operations
 (whereof  3 operations were pure point group operations)
 out of a pool of 24 trial point group operations.


The constrained configuration has the point symmetry C_3 .


Analysis of structural, dynamic, and magnetic symmetry:
=====================================================================
 Subroutine PRICEL returns:
 Original cell was already a primitive cell.
 

 Routine SETGRP: Setting up the symmetry group for a 
 hexagonal supercell.


 Subroutine GETGRP returns: Found  3 space group operations
 (whereof  3 operations were pure point group operations)
 out of a pool of 24 trial point group operations.


The magnetic configuration has the point symmetry C_3 .


 Subroutine INISYM returns: Found  3 space group operations
 (whereof  3 operations are pure point group operations),
 and found     1 'primitive' translations



 KPOINTS: Kpoints from vasprun.xml                

Automatic generation of k-mesh.
Space group operators:
 irot       det(A)        alpha          n_x          n_y          n_z        tau_x        tau_y        tau_z
    1     1.000000     0.000000     1.000000     0.000000     0.000000     0.000000     0.000000     0.000000
    2     1.000000   120.000000     0.000000     0.000000     1.000000     0.000000     0.000000     0.000000
    3     1.000000   120.000000     0.000000     0.000000    -1.000000     0.000000     0.000000     0.000000
 
 Subroutine IBZKPT returns following result:
 ===========================================
 
 Found      5 irreducible k-points:
 
 Following reciprocal coordinates:
            Coordinates               Weight
  0.000000  0.000000  0.000000      1.000000
  0.200000  0.000000  0.000000      6.000000
  0.400000  0.000000  0.000000      6.000000
  0.400000  0.200000  0.000000      6.000000
 -0.400000  0.200000  0.000000      6.000000
 
 Following cartesian coordinates:
            Coordinates               Weight
  0.000000  0.000000  0.000000      1.000000
  0.028953 -0.016716  0.000000      6.000000
  0.057906 -0.033432  0.000000      6.000000
  0.057906  0.000000  0.000000      6.000000
 -0.057906  0.066864  0.000000      6.000000
 
 TETIRR: Found     15 inequivalent tetrahedra from      150


--------------------------------------------------------------------------------------------------------




 Dimension of arrays:
   k-points           NKPTS =      5   k-points in BZ     NKDIM =      5   number of bands    NBANDS=     48
   number of dos      NEDOS =    301   number of ions     NIONS =     10
   non local maximal  LDIM  =      6   non local SUM 2l+1 LMDIM =     18
   total plane-waves  NPLWV = 524880
   max r-space proj   IRMAX =   7543   max aug-charges    IRDMAX=  29641
   dimension x,y,z NGX =    54 NGY =   54 NGZ =  180
   dimension x,y,z NGXF=   108 NGYF=  108 NGZF=  360
   support grid    NGXF=   108 NGYF=  108 NGZF=  360
   ions per type =               2   1   1   6
   NGX,Y,Z   is equivalent  to a cutoff of  13.00, 13.00, 12.76 a.u.
   NGXF,Y,Z  is equivalent  to a cutoff of  25.99, 25.99, 25.53 a.u.

 SYSTEM =  unknown system                          
 POSCAR =  Ni2 Si Ge S6                            

 Startparameter for this run:
   NWRITE =      2    write-flag & timer
   PREC   = accura    normal or accurate (medium, high low for compatibility)
   ISTART =      0    job   : 0-new  1-cont  2-samecut
   ICHARG =      2    charge: 1-file 2-atom 10-const
   ISPIN  =      2    spin polarized calculation?
   LNONCOLLINEAR =      F non collinear calculations
   LSORBIT =      F    spin-orbit coupling
   INIWAV =      1    electr: 0-lowe 1-rand  2-diag
   LASPH  =      F    aspherical Exc in radial PAW
   METAGGA=      F    non-selfconsistent MetaGGA calc.

 Electronic Relaxation 1
   ENCUT  =  520.0 eV  38.22 Ry    6.18 a.u.  12.84 12.84 43.59*2*pi/ulx,y,z
   ENINI  =  520.0     initial cutoff
   ENAUG  =  544.6 eV  augmentation charge cutoff
   NELM   =    400;   NELMIN=  2; NELMDL=  0     # of ELM steps 
   EDIFF  = 0.1E-03   stopping-criterion for ELM
   LREAL  =      T    real-space projection
   NLSPLINE    = F    spline interpolate recip. space projectors
   LCOMPAT=      F    compatible to vasp.4.4
   GGA_COMPAT  = T    GGA compatible to vasp.4.4-vasp.4.6
   LMAXPAW     = -100 max onsite density
   LMAXMIX     =    2 max onsite mixed and CHGCAR
   VOSKOWN=      0    Vosko Wilk Nusair interpolation
   ROPT   =   -0.00025  -0.00025  -0.00025  -0.00025
 Ionic relaxation
   EDIFFG = 0.1E-02   stopping-criterion for IOM
   NSW    =     99    number of steps for IOM
   NBLOCK =      1;   KBLOCK =     99    inner block; outer block 
   IBRION =      2    ionic relax: 0-MD 1-quasi-New 2-CG
   NFREE  =      1    steps in history (QN), initial steepest desc. (CG)
   ISIF   =      3    stress and relaxation
   IWAVPR =     11    prediction:  0-non 1-charg 2-wave 3-comb
   ISYM   =      2    0-nonsym 1-usesym 2-fastsym
   LCORR  =      T    Harris-Foulkes like correction to forces

   POTIM  = 0.5000    time-step for ionic-motion
   TEIN   =    0.0    initial temperature
   TEBEG  =    0.0;   TEEND  =   0.0 temperature during run
   SMASS  =  -3.00    Nose mass-parameter (am)
   estimated Nose-frequenzy (Omega)   =  0.10E-29 period in steps =****** mass=  -0.109E-26a.u.
   SCALEE = 1.0000    scale energy and forces
   NPACO  =    256;   APACO  = 16.0  distance and # of slots for P.C.
   PSTRESS=    0.0 pullay stress

  Mass of Ions in am
   POMASS =  58.69 28.09 72.61 32.07
  Ionic Valenz
   ZVAL   =  10.00  4.00  4.00  6.00
  Atomic Wigner-Seitz radii
   RWIGS  =  -1.00 -1.00 -1.00 -1.00
  virtual crystal weights 
   VCA    =   1.00  1.00  1.00  1.00
   NELECT =      64.0000    total number of electrons
   NUPDOWN=      -1.0000    fix difference up-down

 DOS related values:
   EMIN   =  10.00;   EMAX   =-10.00  energy-range for DOS
   EFERMI =   0.00
   ISMEAR =    -5;   SIGMA  =   0.05  broadening in eV -4-tet -1-fermi 0-gaus

 Electronic relaxation 2 (details)
   IALGO  =     38    algorithm
   LDIAG  =      T    sub-space diagonalisation (order eigenvalues)
   LSUBROT=      F    optimize rotation matrix (better conditioning)
   TURBO    =      0    0=normal 1=particle mesh
   IRESTART =      0    0=no restart 2=restart with 2 vectors
   NREBOOT  =      0    no. of reboots
   NMIN     =      0    reboot dimension
   EREF     =   0.00    reference energy to select bands
   IMIX   =      4    mixing-type and parameters
     AMIX     =   0.40;   BMIX     =  1.00
     AMIX_MAG =   1.60;   BMIX_MAG =  1.00
     AMIN     =   0.01
     WC   =   100.;   INIMIX=   1;  MIXPRE=   1;  MAXMIX= -45

 Intra band minimization:
   WEIMIN = 0.0010     energy-eigenvalue tresh-hold
   EBREAK =  0.52E-06  absolut break condition
   DEPER  =   0.30     relativ break condition  

   TIME   =   0.40     timestep for ELM

  volume/ion in A,a.u.               =      96.88       653.80
  Fermi-wavevector in a.u.,A,eV,Ry     =   0.661787  1.250596  5.958835  0.437962
  Thomas-Fermi vector in A             =   1.734655

 Write flags
   LWAVE        =      F    write WAVECAR
   LDOWNSAMPLE  =      F    k-point downsampling of WAVECAR
   LCHARG       =      T    write CHGCAR
   LVTOT        =      F    write LOCPOT, total local potential
   LVHAR        =      F    write LOCPOT, Hartree potential only
   LELF         =      F    write electronic localiz. function (ELF)
   LORBIT       =     11    0 simple, 1 ext, 2 COOP (PROOUT), +10 PAW based schemes


 Dipole corrections
   LMONO  =      F    monopole corrections only (constant potential shift)
   LDIPOL =      F    correct potential (dipole corrections)
   IDIPOL =      0    1-x, 2-y, 3-z, 4-all directions 
   EPSILON=  1.0000000 bulk dielectric constant

 Exchange correlation treatment:
   GGA     =    BO    GGA type
   LEXCH   =    42    internal setting for exchange type
   VOSKOWN=      0    Vosko Wilk Nusair interpolation
   LHFCALC =     F    Hartree Fock is set to
   LHFONE  =     F    Hartree Fock one center treatment
   AEXX    =    0.0000 exact exchange contribution

 vdW DFT:
   LUSE_VDW   =     T    switch on vdW DFT
   Zab_VDW    =-.8491    correlation parameter
   PARAM1     =0.1833
   PARAM2     =0.2200
   PARAM3     =0.0000
   -- rVV10 --
   BPARAM     = 6.3000
   CPARAM     = 0.0093

 Linear response parameters
   LEPSILON=     F    determine dielectric tensor
   LRPA    =     F    only Hartree local field effects (RPA)
   LNABLA  =     F    use nabla operator in PAW spheres
   LVEL    =     F    velocity operator in full k-point grid
   LINTERFAST=   F  fast interpolation
   KINTER  =     0    interpolate to denser k-point grid
   CSHIFT  =0.1000    complex shift for real part using Kramers Kronig
   OMEGAMAX=  -1.0    maximum frequency
   DEG_THRESHOLD= 0.2000000E-02 threshold for treating states as degnerate
   RTIME   =   -0.100 relaxation time in fs
  (WPLASMAI=    0.000 imaginary part of plasma frequency in eV, 0.658/RTIME)
   DFIELD  = 0.0000000 0.0000000 0.0000000 field for delta impulse in time

 Orbital magnetization related:
   ORBITALMAG=     F  switch on orbital magnetization
   LCHIMAG   =     F  perturbation theory with respect to B field
   DQ        =  0.001000  dq finite difference perturbation B field
   LLRAUG    =     F  two centre corrections for induced B field



--------------------------------------------------------------------------------------------------------


 conjugate gradient relaxation of ions
   using selective dynamics as specified on POSCAR
 charge density and potential will be updated during run
 spin polarized calculation
 Variant of blocked Davidson
 Davidson routine will perform the subspace rotation
 perform sub-space diagonalisation
    after iterative eigenvector-optimisation
 modified Broyden-mixing scheme, WC =      100.0
 initial mixing is a Kerker type mixing with AMIX =  0.4000 and BMIX =      1.0000
 Hartree-type preconditioning will be used
 using additional bands           16
 real space projection scheme for non local part
 use partial core corrections
 calculate Harris-corrections to forces   (improved forces if not selfconsistent)
 use gradient corrections 
 use of overlap-Matrix (Vanderbilt PP)
 Fermi weights with tetrahedron method with Bloechl corrections


--------------------------------------------------------------------------------------------------------


  energy-cutoff  :      520.00
  volume of cell :      968.84
      direct lattice vectors                 reciprocal lattice vectors
     6.907777000 -0.000000000  0.000000000     0.144764372 -0.083579742  0.000000000
     3.453888000  5.982310000  0.000000000     0.000000000  0.167159509 -0.000000000
     0.000000000  0.000000000 23.444588000    -0.000000000  0.000000000  0.042653767

  length of vectors
     6.907777000  6.907776433 23.444588000     0.167159495  0.167159509  0.042653767



 k-points in units of 2pi/SCALE and weight: Kpoints from vasprun.xml                
   0.00000000  0.00000000  0.00000000       0.040
   0.02895287 -0.01671595  0.00000000       0.240
   0.05790575 -0.03343190  0.00000000       0.240
   0.05790575  0.00000000  0.00000000       0.240
  -0.05790575  0.06686380  0.00000000       0.240

 k-points in reciprocal lattice and weights: Kpoints from vasprun.xml                
   0.00000000  0.00000000  0.00000000       0.040
   0.20000000  0.00000000  0.00000000       0.240
   0.40000000  0.00000000  0.00000000       0.240
   0.40000000  0.20000000  0.00000000       0.240
  -0.40000000  0.20000000  0.00000000       0.240

 position of ions in fractional coordinates (direct lattice) 
   0.33333300  0.33333300  0.49992500
   0.66666700  0.66666700  0.50007500
   0.00000000  0.00000000  0.44821600
   0.00000000  0.00000000  0.55178400
   0.62635700  0.00042000  0.57375200
   0.00042000  0.37322400  0.57375200
   0.37322400  0.62635700  0.57375200
   0.37364300  0.99958000  0.42624800
   0.99958000  0.62677600  0.42624800
   0.62677600  0.37364300  0.42624800

 position of ions in cartesian coordinates  (Angst):
   3.45388488  1.99410134 11.72053566
   6.90778012  3.98820866 11.72405234
   0.00000000  0.00000000 10.50823946
   0.00000000  0.00000000 12.93634854
   4.32818511  0.00251257 13.45137925
   1.29197516  2.23274167 13.45137925
   4.74151509  3.74706174 13.45137925
   6.03347989  5.97979743  9.99320875
   9.06968984  3.74956833  9.99320875
   5.62014991  2.23524826  9.99320875



--------------------------------------------------------------------------------------------------------


 k-point  1 :   0.0000 0.0000 0.0000  plane waves:   26073
 k-point  2 :   0.2000 0.0000 0.0000  plane waves:   26070
 k-point  3 :   0.4000 0.0000 0.0000  plane waves:   26086
 k-point  4 :   0.4000 0.2000 0.0000  plane waves:   26085
 k-point  5 :  -0.4000 0.2000 0.0000  plane waves:   26115

 maximum and minimum number of plane-waves per node :     26115    26070

 maximum number of plane-waves:     26115
 maximum index in each direction: 
   IXMAX=   13   IYMAX=   12   IZMAX=   43
   IXMIN=  -13   IYMIN=  -13   IZMIN=  -43


 serial   3D FFT for wavefunctions
 parallel 3D FFT for charge:
    minimum data exchange during FFTs selected (reduces bandwidth)


 total amount of memory used by VASP MPI-rank0   128521. kBytes
=======================================================================

   base      :      30000. kBytes
   nonlr-proj:       6036. kBytes
   fftplans  :      11247. kBytes
   grid      :      68332. kBytes
   one-center:        311. kBytes
   wavefun   :      12595. kBytes

     INWAV:  cpu time    0.0000: real time    0.0005
 Broyden mixing: mesh for mixing (old mesh)
   NGX = 25   NGY = 25   NGZ = 87
  (NGX  =108   NGY  =108   NGZ  =360)
  gives a total of  54375 points

 initial charge density was supplied:
 charge density of overlapping atoms calculated
 number of electron      64.0000000 magnetization       7.3200000
 keeping initial charge density in first step


--------------------------------------------------------------------------------------------------------


 Maximum index for non-local projection operator         7247
 Maximum index for augmentation-charges         2133 (set IRDMAX)


--------------------------------------------------------------------------------------------------------


 First call to EWALD:  gamma=   0.179
 Maximum number of real-space cells 4x 4x 1
 Maximum number of reciprocal cells 2x 2x 6

    FEWALD:  cpu time    0.0040: real time    0.0015


--------------------------------------- Iteration      1(   1)  ---------------------------------------


vdW kernel read from vdw_kernel.bindat
  0.0000  0.2424  0.5071  0.7962  1.1119  1.4567  1.8333  2.2446  2.6937  3.1842
  3.7199  4.3049  4.9438  5.6415  6.4036  7.2358  8.1446  9.1372 10.2212 11.4050
 12.6979 14.1099 15.6519 17.3360 19.1751 21.1837 23.3773 25.7729 28.3892 31.2465
 34.3669 37.7748 41.4965 45.5611 50.0000

    POTLOK:  cpu time   52.5160: real time   53.0577
    SETDIJ:  cpu time    0.0440: real time    0.0432
     EDDAV:  cpu time   22.3200: real time   22.6355
 BZINTS: Fermi energy:  4.419125; 64.000000 electrons
         Band energy: -48.066527;  BLOECHL correction: -0.043762
       DOS:  cpu time    0.0040: real time    0.0048
    --------------------------------------------
      LOOP:  cpu time   74.8840: real time   75.7412

 eigenvalue-minimisations  :   960
 total energy-change (2. order) : 0.4118560E+03  (-0.1964155E+04)
 number of electron      64.0000000 magnetization       7.3200000
 augmentation part       64.0000000 magnetization       7.3200000

 Free energy of the ion-electron system (eV)
  ---------------------------------------------------
  alpha Z        PSCENC =        27.00337869
  Ewald energy   TEWEN  =      8065.03639907
  -Hartree energ DENC   =    -11704.37651216
  -exchange      EXHF   =         0.00000000
  -V(xc)+E(xc)   XCENC  =       109.28507720
  PAW double counting   =      2410.24412492    -2487.53356943
  entropy T*S    EENTRO =         0.00000000
  eigenvalues    EBANDS =       -48.06652694
  atomic energy  EATOM  =      4040.26366069
  Solvation  Ediel_sol  =         0.00000000
  ---------------------------------------------------
  free energy    TOTEN  =       411.85603204 eV

  energy without entropy =      411.85603204  energy(sigma->0) =      411.85603204


--------------------------------------------------------------------------------------------------------




--------------------------------------- Iteration      1(   2)  ---------------------------------------


     EDDAV:  cpu time   32.8600: real time   33.5800
 BZINTS: Fermi energy: -2.278404; 64.000000 electrons
         Band energy:-428.200274;  BLOECHL correction: -0.024438
       DOS:  cpu time    0.0080: real time    0.0052
    --------------------------------------------
      LOOP:  cpu time   32.8680: real time   33.5852

 eigenvalue-minimisations  :  1488
 total energy-change (2. order) :-0.3801337E+03  (-0.3600094E+03)
 number of electron      64.0000000 magnetization       7.3200000
 augmentation part       64.0000000 magnetization       7.3200000

 Free energy of the ion-electron system (eV)
  ---------------------------------------------------
  alpha Z        PSCENC =        27.00337869
  Ewald energy   TEWEN  =      8065.03639907
  -Hartree energ DENC   =    -11704.37651216
  -exchange      EXHF   =         0.00000000
  -V(xc)+E(xc)   XCENC  =       109.28507720
  PAW double counting   =      2410.24412492    -2487.53356943
  entropy T*S    EENTRO =         0.00000000
  eigenvalues    EBANDS =      -428.20027424
  atomic energy  EATOM  =      4040.26366069
  Solvation  Ediel_sol  =         0.00000000
  ---------------------------------------------------
  free energy    TOTEN  =        31.72228474 eV

  energy without entropy =       31.72228474  energy(sigma->0) =       31.72228474


--------------------------------------------------------------------------------------------------------




--------------------------------------- Iteration      1(   3)  ---------------------------------------


     EDDAV:  cpu time   27.0520: real time   28.5710
 BZINTS: Fermi energy: -2.847018; 64.000000 electrons
         Band energy:-500.513849;  BLOECHL correction: -0.008617
       DOS:  cpu time    0.0080: real time    0.0051
    --------------------------------------------
      LOOP:  cpu time   27.0600: real time   28.5761

 eigenvalue-minimisations  :  1248
 total energy-change (2. order) :-0.7231357E+02  (-0.6899575E+02)
 number of electron      64.0000000 magnetization       7.3200000
 augmentation part       64.0000000 magnetization       7.3200000

 Free energy of the ion-electron system (eV)
  ---------------------------------------------------
  alpha Z        PSCENC =        27.00337869
  Ewald energy   TEWEN  =      8065.03639907
  -Hartree energ DENC   =    -11704.37651216
  -exchange      EXHF   =         0.00000000
  -V(xc)+E(xc)   XCENC  =       109.28507720
  PAW double counting   =      2410.24412492    -2487.53356943
  entropy T*S    EENTRO =         0.00000000
  eigenvalues    EBANDS =      -500.51384860
  atomic energy  EATOM  =      4040.26366069
  Solvation  Ediel_sol  =         0.00000000
  ---------------------------------------------------
  free energy    TOTEN  =       -40.59128962 eV

  energy without entropy =      -40.59128962  energy(sigma->0) =      -40.59128962


--------------------------------------------------------------------------------------------------------




--------------------------------------- Iteration      1(   4)  ---------------------------------------


     EDDAV:  cpu time   26.8360: real time   26.9604
 BZINTS: Fermi energy: -2.864059; 64.000000 electrons
         Band energy:-503.344989;  BLOECHL correction: -0.010433
       DOS:  cpu time    0.0040: real time    0.0047
    --------------------------------------------
      LOOP:  cpu time   26.8400: real time   26.9652

 eigenvalue-minimisations  :  1168
 total energy-change (2. order) :-0.2831141E+01  (-0.2812067E+01)
 number of electron      64.0000000 magnetization       7.3200000
 augmentation part       64.0000000 magnetization       7.3200000

 Free energy of the ion-electron system (eV)
  ---------------------------------------------------
  alpha Z        PSCENC =        27.00337869
  Ewald energy   TEWEN  =      8065.03639907
  -Hartree energ DENC   =    -11704.37651216
  -exchange      EXHF   =         0.00000000
  -V(xc)+E(xc)   XCENC  =       109.28507720
  PAW double counting   =      2410.24412492    -2487.53356943
  entropy T*S    EENTRO =         0.00000000
  eigenvalues    EBANDS =      -503.34498910
  atomic energy  EATOM  =      4040.26366069
  Solvation  Ediel_sol  =         0.00000000
  ---------------------------------------------------
  free energy    TOTEN  =       -43.42243013 eV

  energy without entropy =      -43.42243013  energy(sigma->0) =      -43.42243013


--------------------------------------------------------------------------------------------------------




--------------------------------------- Iteration      1(   5)  ---------------------------------------


     EDDAV:  cpu time   29.1120: real time   29.1985
 BZINTS: Fermi energy: -2.864846; 64.000000 electrons
         Band energy:-503.427157;  BLOECHL correction: -0.010380
       DOS:  cpu time    0.0040: real time    0.0057
    CHARGE:  cpu time    2.1120: real time    2.1096
    MIXING:  cpu time    0.0600: real time    0.0619
    --------------------------------------------
      LOOP:  cpu time   31.2880: real time   31.3758

 eigenvalue-minimisations  :  1280
 total energy-change (2. order) :-0.8216789E-01  (-0.8218485E-01)
 number of electron      63.9999995 magnetization       7.4325069
 augmentation part        1.8145590 magnetization       4.6811605

 Broyden mixing:
  rms(total) = 0.44596E+01    rms(broyden)= 0.44595E+01
  rms(prec ) = 0.47367E+01
  weight for this iteration     100.00

 Free energy of the ion-electron system (eV)
  ---------------------------------------------------
  alpha Z        PSCENC =        27.00337869
  Ewald energy   TEWEN  =      8065.03639907
  -Hartree energ DENC   =    -11704.37651216
  -exchange      EXHF   =         0.00000000
  -V(xc)+E(xc)   XCENC  =       109.28507720
  PAW double counting   =      2410.24412492    -2487.53356943
  entropy T*S    EENTRO =         0.00000000
  eigenvalues    EBANDS =      -503.42715699
  atomic energy  EATOM  =      4040.26366069
  Solvation  Ediel_sol  =         0.00000000
  ---------------------------------------------------
  free energy    TOTEN  =       -43.50459801 eV

  energy without entropy =      -43.50459801  energy(sigma->0) =      -43.50459801


--------------------------------------------------------------------------------------------------------




--------------------------------------- Iteration      1(   6)  ---------------------------------------


    POTLOK:  cpu time   52.2720: real time   52.7355
    SETDIJ:  cpu time    0.0440: real time    0.0422
     EDDAV:  cpu time   29.9280: real time   30.5514
 BZINTS: Fermi energy: -4.390158; 64.000000 electrons
         Band energy:-805.516249;  BLOECHL correction: -0.023354
       DOS:  cpu time    0.0080: real time    0.0062
    CHARGE:  cpu time    2.1600: real time    2.1765
    MIXING:  cpu time    0.0440: real time    0.0434
    --------------------------------------------
      LOOP:  cpu time   84.4560: real time   85.5552

 eigenvalue-minimisations  :  1344
 total energy-change (2. order) :-0.5989954E+02  (-0.8114057E+02)
 number of electron      63.9999993 magnetization       7.0895852
 augmentation part       10.8819486 magnetization       7.6154587

 Broyden mixing:
  rms(total) = 0.65491E+01    rms(broyden)= 0.65490E+01
  rms(prec ) = 0.67997E+01
  weight for this iteration     100.00

 eigenvalues of (default mixing * dielectric matrix)
  average eigenvalue GAMMA=   0.3764
  0.3764

 Free energy of the ion-electron system (eV)
  ---------------------------------------------------
  alpha Z        PSCENC =        27.00337869
  Ewald energy   TEWEN  =      8065.03639907
  -Hartree energ DENC   =    -11499.81999716
  -exchange      EXHF   =         0.00000000
  -V(xc)+E(xc)   XCENC  =       111.04177068
  PAW double counting   =      2057.70125191    -2099.11434839
  entropy T*S    EENTRO =         0.00000000
  eigenvalues    EBANDS =      -805.51624918
  atomic energy  EATOM  =      4040.26366069
  Solvation  Ediel_sol  =         0.00000000
  ---------------------------------------------------
  free energy    TOTEN  =      -103.40413369 eV

  energy without entropy =     -103.40413369  energy(sigma->0) =     -103.40413369


--------------------------------------------------------------------------------------------------------




--------------------------------------- Iteration      1(   7)  ---------------------------------------


    POTLOK:  cpu time   52.0440: real time   52.2066
    SETDIJ:  cpu time    0.0400: real time    0.0430
     EDDAV:  cpu time   31.6120: real time   31.9328
 BZINTS: Fermi energy: -4.828735; 64.000000 electrons
         Band energy:-629.631703;  BLOECHL correction: -0.011815
       DOS:  cpu time    0.0040: real time    0.0070
    CHARGE:  cpu time    2.1200: real time    2.1188
    MIXING:  cpu time    0.0400: real time    0.0414
    --------------------------------------------
      LOOP:  cpu time   85.8600: real time   86.3496

 eigenvalue-minimisations  :  1408
 total energy-change (2. order) : 0.4916685E+02  (-0.8723915E+01)
 number of electron      63.9999993 magnetization       6.9533835
 augmentation part       10.0026130 magnetization       6.7352812

 Broyden mixing:
  rms(total) = 0.36174E+01    rms(broyden)= 0.36152E+01
  rms(prec ) = 0.38229E+01
  weight for this iteration     100.00

 eigenvalues of (default mixing * dielectric matrix)
  average eigenvalue GAMMA=   0.3136
  0.3136  0.3136

 Free energy of the ion-electron system (eV)
  ---------------------------------------------------
  alpha Z        PSCENC =        27.00337869
  Ewald energy   TEWEN  =      8065.03639907
  -Hartree energ DENC   =    -11594.55321105
  -exchange      EXHF   =         0.00000000
  -V(xc)+E(xc)   XCENC  =       107.69063974
  PAW double counting   =      2231.34796074    -2301.39441165
  entropy T*S    EENTRO =         0.00000000
  eigenvalues    EBANDS =      -629.63170257
  atomic energy  EATOM  =      4040.26366069
  Solvation  Ediel_sol  =         0.00000000
  ---------------------------------------------------
  free energy    TOTEN  =       -54.23728633 eV

  energy without entropy =      -54.23728633  energy(sigma->0) =      -54.23728633


--------------------------------------------------------------------------------------------------------




--------------------------------------- Iteration      1(   8)  ---------------------------------------


    POTLOK:  cpu time   50.7360: real time   51.0661
    SETDIJ:  cpu time    0.0400: real time    0.0419
     EDDAV:  cpu time   25.2960: real time   25.5520
 BZINTS: Fermi energy: -4.866228; 64.000000 electrons
         Band energy:-593.893497;  BLOECHL correction: -0.018455
       DOS:  cpu time    0.0080: real time    0.0070
    CHARGE:  cpu time    2.1600: real time    2.1788
    MIXING:  cpu time    0.0400: real time    0.0410
    --------------------------------------------
      LOOP:  cpu time   78.2800: real time   78.8868

 eigenvalue-minimisations  :  1120
 total energy-change (2. order) : 0.1096339E+02  (-0.4376977E+02)
 number of electron      63.9999993 magnetization       6.8262031
 augmentation part        9.5121076 magnetization       4.9900707

 Broyden mixing:
  rms(total) = 0.29337E+01    rms(broyden)= 0.29320E+01
  rms(prec ) = 0.31026E+01
  weight for this iteration     100.00

 eigenvalues of (default mixing * dielectric matrix)
  average eigenvalue GAMMA=   0.3822
  0.4525  0.4525  0.2416

 Free energy of the ion-electron system (eV)
  ---------------------------------------------------
  alpha Z        PSCENC =        27.00337869
  Ewald energy   TEWEN  =      8065.03639907
  -Hartree energ DENC   =    -11615.63983142
  -exchange      EXHF   =         0.00000000
  -V(xc)+E(xc)   XCENC  =       108.43423355
  PAW double counting   =      2269.78949917    -2344.26773728
  entropy T*S    EENTRO =         0.00000000
  eigenvalues    EBANDS =      -593.89349717
  atomic energy  EATOM  =      4040.26366069
  Solvation  Ediel_sol  =         0.00000000
  ---------------------------------------------------
  free energy    TOTEN  =       -43.27389469 eV

  energy without entropy =      -43.27389469  energy(sigma->0) =      -43.27389469


--------------------------------------------------------------------------------------------------------




--------------------------------------- Iteration      1(   9)  ---------------------------------------


    POTLOK:  cpu time   50.6960: real time   50.9000
    SETDIJ:  cpu time    0.0400: real time    0.0425
     EDDAV:  cpu time   25.4120: real time   25.5256
 BZINTS: Fermi energy: -4.863001; 64.000000 electrons
         Band energy:-551.732225;  BLOECHL correction: -0.014076
       DOS:  cpu time    0.0040: real time    0.0073
    CHARGE:  cpu time    2.1120: real time    2.1106
    MIXING:  cpu time    0.0400: real time    0.0418
    --------------------------------------------
      LOOP:  cpu time   78.3040: real time   78.6278

 eigenvalue-minimisations  :  1120
 total energy-change (2. order) : 0.6625725E+01  (-0.7365171E+00)
 number of electron      63.9999993 magnetization       6.6733480
 augmentation part        8.3956413 magnetization       5.2234603

 Broyden mixing:
  rms(total) = 0.18299E+01    rms(broyden)= 0.18297E+01
  rms(prec ) = 0.19286E+01
  weight for this iteration     100.00

 eigenvalues of (default mixing * dielectric matrix)
  average eigenvalue GAMMA=   0.4165
  0.5331  0.5331  0.2999  0.2999

 Free energy of the ion-electron system (eV)
  ---------------------------------------------------
  alpha Z        PSCENC =        27.00337869
  Ewald energy   TEWEN  =      8065.03639907
  -Hartree energ DENC   =    -11647.24221770
  -exchange      EXHF   =         0.00000000
  -V(xc)+E(xc)   XCENC  =       108.65466695
  PAW double counting   =      2324.10170435    -2402.73353703
  entropy T*S    EENTRO =         0.00000000
  eigenvalues    EBANDS =      -551.73222484
  atomic energy  EATOM  =      4040.26366069
  Solvation  Ediel_sol  =         0.00000000
  ---------------------------------------------------
  free energy    TOTEN  =       -36.64816981 eV

  energy without entropy =      -36.64816981  energy(sigma->0) =      -36.64816981


--------------------------------------------------------------------------------------------------------




--------------------------------------- Iteration      1(  10)  ---------------------------------------


    POTLOK:  cpu time   50.9080: real time   51.1526
    SETDIJ:  cpu time    0.0440: real time    0.0428
     EDDAV:  cpu time   32.7680: real time   32.9632
 BZINTS: Fermi energy: -4.771397; 64.000000 electrons
         Band energy:-534.895346;  BLOECHL correction: -0.009922
       DOS:  cpu time    0.0080: real time    0.0074
    CHARGE:  cpu time    2.1000: real time    2.1133
    MIXING:  cpu time    0.0440: real time    0.0425
    --------------------------------------------
      LOOP:  cpu time   85.8720: real time   86.3217

 eigenvalue-minimisations  :  1488
 total energy-change (2. order) : 0.1525674E+01  (-0.2063868E+00)
 number of electron      63.9999993 magnetization       6.6962918
 augmentation part        7.3725347 magnetization       5.8047375

 Broyden mixing:
  rms(total) = 0.97422E+00    rms(broyden)= 0.97399E+00
  rms(prec ) = 0.10119E+01
  weight for this iteration     100.00

 eigenvalues of (default mixing * dielectric matrix)
  average eigenvalue GAMMA=   0.3383
  0.5258  0.5258  0.2878  0.2878  0.0643

 Free energy of the ion-electron system (eV)
  ---------------------------------------------------
  alpha Z        PSCENC =        27.00337869
  Ewald energy   TEWEN  =      8065.03639907
  -Hartree energ DENC   =    -11662.10451923
  -exchange      EXHF   =         0.00000000
  -V(xc)+E(xc)   XCENC  =       108.91826059
  PAW double counting   =      2351.03468188    -2430.37901193
  entropy T*S    EENTRO =         0.00000000
  eigenvalues    EBANDS =      -534.89534600
  atomic energy  EATOM  =      4040.26366069
  Solvation  Ediel_sol  =         0.00000000
  ---------------------------------------------------
  free energy    TOTEN  =       -35.12249622 eV

  energy without entropy =      -35.12249622  energy(sigma->0) =      -35.12249622


--------------------------------------------------------------------------------------------------------




--------------------------------------- Iteration      1(  11)  ---------------------------------------


    POTLOK:  cpu time   51.5200: real time   51.5740
    SETDIJ:  cpu time    0.0440: real time    0.0412
     EDDAV:  cpu time   24.9480: real time   25.1690
 BZINTS: Fermi energy: -4.786357; 64.000000 electrons
         Band energy:-534.584045;  BLOECHL correction: -0.009571
       DOS:  cpu time    0.0040: real time    0.0069
    CHARGE:  cpu time    2.0920: real time    2.1758
    MIXING:  cpu time    0.0440: real time    0.0431
    --------------------------------------------
      LOOP:  cpu time   78.6520: real time   79.0100

 eigenvalue-minimisations  :  1104
 total energy-change (2. order) : 0.2218158E-01  (-0.6947575E-01)
 number of electron      63.9999993 magnetization       6.6852886
 augmentation part        7.3632168 magnetization       5.8054643

 Broyden mixing:
  rms(total) = 0.98038E+00    rms(broyden)= 0.98037E+00
  rms(prec ) = 0.10187E+01
  weight for this iteration     100.00

 eigenvalues of (default mixing * dielectric matrix)
  average eigenvalue GAMMA=   0.4367
  0.5316  0.5316  0.4510  0.4510  0.3276  0.3276

 Free energy of the ion-electron system (eV)
  ---------------------------------------------------
  alpha Z        PSCENC =        27.00337869
  Ewald energy   TEWEN  =      8065.03639907
  -Hartree energ DENC   =    -11662.33131819
  -exchange      EXHF   =         0.00000000
  -V(xc)+E(xc)   XCENC  =       108.94284382
  PAW double counting   =      2351.38358147    -2430.81481533
  entropy T*S    EENTRO =         0.00000000
  eigenvalues    EBANDS =      -534.58404486
  atomic energy  EATOM  =      4040.26366069
  Solvation  Ediel_sol  =         0.00000000
  ---------------------------------------------------
  free energy    TOTEN  =       -35.10031465 eV

  energy without entropy =      -35.10031465  energy(sigma->0) =      -35.10031465


--------------------------------------------------------------------------------------------------------




--------------------------------------- Iteration      1(  12)  ---------------------------------------


    POTLOK:  cpu time   50.7760: real time   50.9208
    SETDIJ:  cpu time    0.0400: real time    0.0421
     EDDAV:  cpu time   31.0280: real time   31.1203
 BZINTS: Fermi energy: -4.796658; 64.000000 electrons
         Band energy:-535.520659;  BLOECHL correction: -0.009380
       DOS:  cpu time    0.0080: real time    0.0074
    CHARGE:  cpu time    2.1320: real time    2.1351
    MIXING:  cpu time    0.0440: real time    0.0441
    --------------------------------------------
      LOOP:  cpu time   84.0280: real time   84.2698

 eigenvalue-minimisations  :  1392
 total energy-change (2. order) :-0.2604990E-01  (-0.1507184E-02)
 number of electron      63.9999993 magnetization       6.2729467
 augmentation part        7.4005846 magnetization       5.3767568

 Broyden mixing:
  rms(total) = 0.10018E+01    rms(broyden)= 0.10018E+01
  rms(prec ) = 0.10429E+01
  weight for this iteration     100.00

 eigenvalues of (default mixing * dielectric matrix)
  average eigenvalue GAMMA=   0.5976
  0.9795  0.9795  0.5752  0.5752  0.3901  0.3901  0.2933

 Free energy of the ion-electron system (eV)
  ---------------------------------------------------
  alpha Z        PSCENC =        27.00337869
  Ewald energy   TEWEN  =      8065.03639907
  -Hartree energ DENC   =    -11661.49529504
  -exchange      EXHF   =         0.00000000
  -V(xc)+E(xc)   XCENC  =       108.91129991
  PAW double counting   =      2350.09268759    -2429.41783609
  entropy T*S    EENTRO =         0.00000000
  eigenvalues    EBANDS =      -535.52065938
  atomic energy  EATOM  =      4040.26366069
  Solvation  Ediel_sol  =         0.00000000
  ---------------------------------------------------
  free energy    TOTEN  =       -35.12636455 eV

  energy without entropy =      -35.12636455  energy(sigma->0) =      -35.12636455


--------------------------------------------------------------------------------------------------------




--------------------------------------- Iteration      1(  13)  ---------------------------------------


    POTLOK:  cpu time   50.5240: real time   50.9590
    SETDIJ:  cpu time    0.0400: real time    0.0422
     EDDAV:  cpu time   26.6560: real time   26.7684
 BZINTS: Fermi energy: -4.880733; 64.000000 electrons
         Band energy:-542.195138;  BLOECHL correction: -0.008647
       DOS:  cpu time    0.0080: real time    0.0051
    CHARGE:  cpu time    2.1120: real time    2.1209
    MIXING:  cpu time    0.0440: real time    0.0446
    --------------------------------------------
      LOOP:  cpu time   79.3840: real time   79.9402

 eigenvalue-minimisations  :  1184
 total energy-change (2. order) :-0.1756560E+00  (-0.2789610E-01)
 number of electron      63.9999993 magnetization       5.3388012
 augmentation part        7.3864499 magnetization       4.4485295

 Broyden mixing:
  rms(total) = 0.92744E+00    rms(broyden)= 0.92743E+00
  rms(prec ) = 0.96908E+00
  weight for this iteration     100.00

 eigenvalues of (default mixing * dielectric matrix)
  average eigenvalue GAMMA=   0.7104
  1.4599  1.4599  0.5610  0.5610  0.5198  0.5198  0.3009  0.3009

 Free energy of the ion-electron system (eV)
  ---------------------------------------------------
  alpha Z        PSCENC =        27.00337869
  Ewald energy   TEWEN  =      8065.03639907
  -Hartree energ DENC   =    -11656.35615615
  -exchange      EXHF   =         0.00000000
  -V(xc)+E(xc)   XCENC  =       108.61749655
  PAW double counting   =      2346.76049172    -2424.43215310
  entropy T*S    EENTRO =         0.00000000
  eigenvalues    EBANDS =      -542.19513804
  atomic energy  EATOM  =      4040.26366069
  Solvation  Ediel_sol  =         0.00000000
  ---------------------------------------------------
  free energy    TOTEN  =       -35.30202058 eV

  energy without entropy =      -35.30202058  energy(sigma->0) =      -35.30202058


--------------------------------------------------------------------------------------------------------




--------------------------------------- Iteration      1(  14)  ---------------------------------------


    POTLOK:  cpu time   50.6440: real time   50.8389
    SETDIJ:  cpu time    0.0640: real time    0.0635
     EDDAV:  cpu time   26.2000: real time   26.2853
 BZINTS: Fermi energy: -4.958179; 64.000000 electrons
         Band energy:-552.702092;  BLOECHL correction: -0.003763
       DOS:  cpu time    0.0080: real time    0.0074
    CHARGE:  cpu time    2.1280: real time    2.1378
    MIXING:  cpu time    0.0440: real time    0.0454
    --------------------------------------------
      LOOP:  cpu time   79.0880: real time   79.3783

 eigenvalue-minimisations  :  1152
 total energy-change (2. order) :-0.4261634E+00  (-0.9190590E-01)
 number of electron      63.9999993 magnetization       4.8862732
 augmentation part        7.4677810 magnetization       3.9122559

 Broyden mixing:
  rms(total) = 0.93014E+00    rms(broyden)= 0.93011E+00
  rms(prec ) = 0.98859E+00
  weight for this iteration     100.00

 eigenvalues of (default mixing * dielectric matrix)
  average eigenvalue GAMMA=   0.6740
  1.4659  1.4659  0.5643  0.5643  0.5933  0.5933  0.3222  0.3050  0.1917

 Free energy of the ion-electron system (eV)
  ---------------------------------------------------
  alpha Z        PSCENC =        27.00337869
  Ewald energy   TEWEN  =      8065.03639907
  -Hartree energ DENC   =    -11648.47645775
  -exchange      EXHF   =         0.00000000
  -V(xc)+E(xc)   XCENC  =       108.23378069
  PAW double counting   =      2341.99220856    -2417.07906193
  entropy T*S    EENTRO =         0.00000000
  eigenvalues    EBANDS =      -552.70209197
  atomic energy  EATOM  =      4040.26366069
  Solvation  Ediel_sol  =         0.00000000
  ---------------------------------------------------
  free energy    TOTEN  =       -35.72818394 eV

  energy without entropy =      -35.72818394  energy(sigma->0) =      -35.72818394


--------------------------------------------------------------------------------------------------------




--------------------------------------- Iteration      1(  15)  ---------------------------------------


    POTLOK:  cpu time   50.8840: real time   51.0829
    SETDIJ:  cpu time    0.0400: real time    0.0411
     EDDAV:  cpu time   30.5760: real time   30.7538
 BZINTS: Fermi energy: -4.960489; 64.000000 electrons
         Band energy:-553.945814;  BLOECHL correction: -0.007528
       DOS:  cpu time    0.0080: real time    0.0076
    CHARGE:  cpu time    2.0800: real time    2.1248
    MIXING:  cpu time    0.0480: real time    0.0463
    --------------------------------------------
      LOOP:  cpu time   83.6360: real time   84.0566

 eigenvalue-minimisations  :  1376
 total energy-change (2. order) : 0.4888547E-01  (-0.3462285E-01)
 number of electron      63.9999993 magnetization       4.9103711
 augmentation part        7.4447386 magnetization       3.9514463

 Broyden mixing:
  rms(total) = 0.82053E+00    rms(broyden)= 0.82050E+00
  rms(prec ) = 0.87551E+00
  weight for this iteration     100.00

 eigenvalues of (default mixing * dielectric matrix)
  average eigenvalue GAMMA=   0.6723
  1.4473  1.4473  0.5888  0.5888  0.6884  0.6884  0.4903  0.3154  0.2916  0.1766

 Free energy of the ion-electron system (eV)
  ---------------------------------------------------
  alpha Z        PSCENC =        27.00337869
  Ewald energy   TEWEN  =      8065.03639907
  -Hartree energ DENC   =    -11647.84756869
  -exchange      EXHF   =         0.00000000
  -V(xc)+E(xc)   XCENC  =       108.18224236
  PAW double counting   =      2343.73136475    -2418.10296184
  entropy T*S    EENTRO =         0.00000000
  eigenvalues    EBANDS =      -553.94581350
  atomic energy  EATOM  =      4040.26366069
  Solvation  Ediel_sol  =         0.00000000
  ---------------------------------------------------
  free energy    TOTEN  =       -35.67929847 eV

  energy without entropy =      -35.67929847  energy(sigma->0) =      -35.67929847


--------------------------------------------------------------------------------------------------------




--------------------------------------- Iteration      1(  16)  ---------------------------------------


    POTLOK:  cpu time   50.7560: real time   50.9378
    SETDIJ:  cpu time    0.0400: real time    0.0414
     EDDAV:  cpu time   30.2000: real time   30.6402
 BZINTS: Fermi energy: -4.748576; 64.000000 electrons
         Band energy:-537.367913;  BLOECHL correction: -0.008121
       DOS:  cpu time    0.0080: real time    0.0074
    CHARGE:  cpu time    2.0920: real time    2.1113
    MIXING:  cpu time    0.0480: real time    0.0472
    --------------------------------------------
      LOOP:  cpu time   83.1440: real time   83.7852

 eigenvalue-minimisations  :  1376
 total energy-change (2. order) : 0.4130604E+00  (-0.9425582E-01)
 number of electron      63.9999992 magnetization       4.1462698
 augmentation part        6.8593413 magnetization       3.4359340

 Broyden mixing:
  rms(total) = 0.34949E+00    rms(broyden)= 0.34933E+00
  rms(prec ) = 0.36468E+00
  weight for this iteration     100.00

 eigenvalues of (default mixing * dielectric matrix)
  average eigenvalue GAMMA=   0.7974
  1.9225  1.9225  0.9200  0.9200  0.5973  0.5973  0.5524  0.5524  0.2997  0.3123
  0.1744

 Free energy of the ion-electron system (eV)
  ---------------------------------------------------
  alpha Z        PSCENC =        27.00337869
  Ewald energy   TEWEN  =      8065.03639907
  -Hartree energ DENC   =    -11662.17466884
  -exchange      EXHF   =         0.00000000
  -V(xc)+E(xc)   XCENC  =       108.59184573
  PAW double counting   =      2362.43174235    -2439.05068280
  entropy T*S    EENTRO =         0.00000000
  eigenvalues    EBANDS =      -537.36791294
  atomic energy  EATOM  =      4040.26366069
  Solvation  Ediel_sol  =         0.00000000
  ---------------------------------------------------
  free energy    TOTEN  =       -35.26623804 eV

  energy without entropy =      -35.26623804  energy(sigma->0) =      -35.26623804


--------------------------------------------------------------------------------------------------------




--------------------------------------- Iteration      1(  17)  ---------------------------------------


    POTLOK:  cpu time   50.8560: real time   50.9382
    SETDIJ:  cpu time    0.0560: real time    0.0570
     EDDAV:  cpu time   26.2400: real time   26.5120
 BZINTS: Fermi energy: -4.606454; 64.000000 electrons
         Band energy:-528.760329;  BLOECHL correction: -0.008178
       DOS:  cpu time    0.0080: real time    0.0071
    CHARGE:  cpu time    2.1240: real time    2.1280
    MIXING:  cpu time    0.0480: real time    0.0482
    --------------------------------------------
      LOOP:  cpu time   79.3320: real time   79.6906

 eigenvalue-minimisations  :  1168
 total energy-change (2. order) :-0.3265519E-01  (-0.1405840E+00)
 number of electron      63.9999992 magnetization       3.4926433
 augmentation part        6.8475015 magnetization       2.7787147

 Broyden mixing:
  rms(total) = 0.24625E+00    rms(broyden)= 0.24624E+00
  rms(prec ) = 0.25909E+00
  weight for this iteration     100.00

 eigenvalues of (default mixing * dielectric matrix)
  average eigenvalue GAMMA=   0.8474
  2.1554  2.1554  1.0089  1.0089  0.5933  0.5933  0.6742  0.6742  0.5182  0.3139
  0.2990  0.1742

 Free energy of the ion-electron system (eV)
  ---------------------------------------------------
  alpha Z        PSCENC =        27.00337869
  Ewald energy   TEWEN  =      8065.03639907
  -Hartree energ DENC   =    -11669.56446233
  -exchange      EXHF   =         0.00000000
  -V(xc)+E(xc)   XCENC  =       108.81298380
  PAW double counting   =      2370.33027713    -2448.42080118
  entropy T*S    EENTRO =         0.00000000
  eigenvalues    EBANDS =      -528.76032910
  atomic energy  EATOM  =      4040.26366069
  Solvation  Ediel_sol  =         0.00000000
  ---------------------------------------------------
  free energy    TOTEN  =       -35.29889323 eV

  energy without entropy =      -35.29889323  energy(sigma->0) =      -35.29889323


--------------------------------------------------------------------------------------------------------




--------------------------------------- Iteration      1(  18)  ---------------------------------------


    POTLOK:  cpu time   50.6800: real time   51.1261
    SETDIJ:  cpu time    0.0400: real time    0.0404
     EDDAV:  cpu time   30.0640: real time   30.4028
 BZINTS: Fermi energy: -4.506134; 64.000000 electrons
         Band energy:-523.751444;  BLOECHL correction: -0.008281
       DOS:  cpu time    0.0040: real time    0.0075
    CHARGE:  cpu time    2.1120: real time    2.1204
    MIXING:  cpu time    0.0480: real time    0.0516
    --------------------------------------------
      LOOP:  cpu time   82.9480: real time   83.7489

 eigenvalue-minimisations  :  1360
 total energy-change (2. order) :-0.4731543E-01  (-0.8679531E-02)
 number of electron      63.9999992 magnetization       2.7627941
 augmentation part        6.7357752 magnetization       2.1007235

 Broyden mixing:
  rms(total) = 0.13268E+00    rms(broyden)= 0.13265E+00
  rms(prec ) = 0.13898E+00
  weight for this iteration     100.00

 eigenvalues of (default mixing * dielectric matrix)
  average eigenvalue GAMMA=   0.9588
  2.8322  2.8322  1.0527  1.0527  0.5933  0.5933  0.7992  0.7992  0.5617  0.5617
  0.3135  0.2992  0.1741

 Free energy of the ion-electron system (eV)
  ---------------------------------------------------
  alpha Z        PSCENC =        27.00337869
  Ewald energy   TEWEN  =      8065.03639907
  -Hartree energ DENC   =    -11674.31931465
  -exchange      EXHF   =         0.00000000
  -V(xc)+E(xc)   XCENC  =       108.91986369
  PAW double counting   =      2374.97971002    -2453.47846182
  entropy T*S    EENTRO =         0.00000000
  eigenvalues    EBANDS =      -523.75144436
  atomic energy  EATOM  =      4040.26366069
  Solvation  Ediel_sol  =         0.00000000
  ---------------------------------------------------
  free energy    TOTEN  =       -35.34620866 eV

  energy without entropy =      -35.34620866  energy(sigma->0) =      -35.34620866


--------------------------------------------------------------------------------------------------------




--------------------------------------- Iteration      1(  19)  ---------------------------------------


    POTLOK:  cpu time   50.8560: real time   50.9914
    SETDIJ:  cpu time    0.0400: real time    0.0404
     EDDAV:  cpu time   29.4480: real time   29.6622
 BZINTS: Fermi energy: -4.435279; 64.000000 electrons
         Band energy:-519.763738;  BLOECHL correction: -0.007959
       DOS:  cpu time    0.0040: real time    0.0067
    CHARGE:  cpu time    2.0920: real time    2.1013
    MIXING:  cpu time    0.0520: real time    0.0509
    --------------------------------------------
      LOOP:  cpu time   82.4920: real time   82.8529

 eigenvalue-minimisations  :  1328
 total energy-change (2. order) :-0.7110406E-01  (-0.7041016E-02)
 number of electron      63.9999992 magnetization       2.3585748
 augmentation part        6.6381614 magnetization       1.7651206

 Broyden mixing:
  rms(total) = 0.10779E+00    rms(broyden)= 0.10774E+00
  rms(prec ) = 0.11483E+00
  weight for this iteration     100.00

 eigenvalues of (default mixing * dielectric matrix)
  average eigenvalue GAMMA=   1.0862
  4.6344  2.8277  1.1841  1.1841  0.5934  0.5934  0.8355  0.8355  0.6034  0.6034
  0.5252  0.3136  0.2992  0.1741

 Free energy of the ion-electron system (eV)
  ---------------------------------------------------
  alpha Z        PSCENC =        27.00337869
  Ewald energy   TEWEN  =      8065.03639907
  -Hartree energ DENC   =    -11678.45033929
  -exchange      EXHF   =         0.00000000
  -V(xc)+E(xc)   XCENC  =       108.99295007
  PAW double counting   =      2377.07691373    -2455.57653778
  entropy T*S    EENTRO =         0.00000000
  eigenvalues    EBANDS =      -519.76373790
  atomic energy  EATOM  =      4040.26366069
  Solvation  Ediel_sol  =         0.00000000
  ---------------------------------------------------
  free energy    TOTEN  =       -35.41731272 eV

  energy without entropy =      -35.41731272  energy(sigma->0) =      -35.41731272


--------------------------------------------------------------------------------------------------------




--------------------------------------- Iteration      1(  20)  ---------------------------------------


    POTLOK:  cpu time   50.6600: real time   50.9904
    SETDIJ:  cpu time    0.0400: real time    0.0415
     EDDAV:  cpu time   31.1800: real time   31.3531
 BZINTS: Fermi energy: -4.391423; 64.000000 electrons
         Band energy:-517.138657;  BLOECHL correction: -0.007834
       DOS:  cpu time    0.0080: real time    0.0075
    CHARGE:  cpu time    2.0960: real time    2.1052
    MIXING:  cpu time    0.0520: real time    0.0520
    --------------------------------------------
      LOOP:  cpu time   84.0360: real time   84.5498

 eigenvalue-minimisations  :  1408
 total energy-change (2. order) :-0.2636278E-01  (-0.6662896E-02)
 number of electron      63.9999992 magnetization       2.2251331
 augmentation part        6.4703784 magnetization       1.6907912

 Broyden mixing:
  rms(total) = 0.16306E+00    rms(broyden)= 0.16301E+00
  rms(prec ) = 0.17636E+00
  weight for this iteration     100.00

 eigenvalues of (default mixing * dielectric matrix)
  average eigenvalue GAMMA=   1.1730
  6.3041  2.5221  1.2957  1.2957  0.5932  0.5932  0.8882  0.8882  0.6978  0.6978
  0.5394  0.4931  0.3136  0.2992  0.1741

 Free energy of the ion-electron system (eV)
  ---------------------------------------------------
  alpha Z        PSCENC =        27.00337869
  Ewald energy   TEWEN  =      8065.03639907
  -Hartree energ DENC   =    -11681.16709062
  -exchange      EXHF   =         0.00000000
  -V(xc)+E(xc)   XCENC  =       109.04902328
  PAW double counting   =      2379.01718984    -2457.50757927
  entropy T*S    EENTRO =         0.00000000
  eigenvalues    EBANDS =      -517.13865719
  atomic energy  EATOM  =      4040.26366069
  Solvation  Ediel_sol  =         0.00000000
  ---------------------------------------------------
  free energy    TOTEN  =       -35.44367550 eV

  energy without entropy =      -35.44367550  energy(sigma->0) =      -35.44367550


--------------------------------------------------------------------------------------------------------




--------------------------------------- Iteration      1(  21)  ---------------------------------------


    POTLOK:  cpu time   50.7200: real time   50.9224
    SETDIJ:  cpu time    0.0400: real time    0.0390
     EDDAV:  cpu time   29.6200: real time   29.9769
 BZINTS: Fermi energy: -4.393223; 64.000000 electrons
         Band energy:-517.379993;  BLOECHL correction: -0.007727
       DOS:  cpu time    0.0040: real time    0.0069
    CHARGE:  cpu time    2.1400: real time    2.1740
    MIXING:  cpu time    0.0520: real time    0.0531
    --------------------------------------------
      LOOP:  cpu time   82.5760: real time   83.1721

 eigenvalue-minimisations  :  1344
 total energy-change (2. order) :-0.1193401E-01  (-0.3515931E-02)
 number of electron      63.9999992 magnetization       2.1323118
 augmentation part        6.3809563 magnetization       1.6050839

 Broyden mixing:
  rms(total) = 0.21453E+00    rms(broyden)= 0.21452E+00
  rms(prec ) = 0.23244E+00
  weight for this iteration     100.00

 eigenvalues of (default mixing * dielectric matrix)
  average eigenvalue GAMMA=   1.2088
  7.2247  1.8196  1.8196  1.1921  1.1921  0.9204  0.9204  0.5934  0.5934  0.6428
  0.6428  0.2992  0.3136  0.5218  0.4714  0.1741

 Free energy of the ion-electron system (eV)
  ---------------------------------------------------
  alpha Z        PSCENC =        27.00337869
  Ewald energy   TEWEN  =      8065.03639907
  -Hartree energ DENC   =    -11680.97125492
  -exchange      EXHF   =         0.00000000
  -V(xc)+E(xc)   XCENC  =       109.02000957
  PAW double counting   =      2378.77309292    -2457.20090285
  entropy T*S    EENTRO =         0.00000000
  eigenvalues    EBANDS =      -517.37999269
  atomic energy  EATOM  =      4040.26366069
  Solvation  Ediel_sol  =         0.00000000
  ---------------------------------------------------
  free energy    TOTEN  =       -35.45560951 eV

  energy without entropy =      -35.45560951  energy(sigma->0) =      -35.45560951


--------------------------------------------------------------------------------------------------------




--------------------------------------- Iteration      1(  22)  ---------------------------------------


    POTLOK:  cpu time   50.6280: real time   50.9096
    SETDIJ:  cpu time    0.0400: real time    0.0414
     EDDAV:  cpu time   28.0760: real time   28.2804
 BZINTS: Fermi energy: -4.438034; 64.000000 electrons
         Band energy:-520.239695;  BLOECHL correction: -0.007782
       DOS:  cpu time    0.0080: real time    0.0070
    CHARGE:  cpu time    2.0840: real time    2.1045
    MIXING:  cpu time    0.0560: real time    0.0557
    --------------------------------------------
      LOOP:  cpu time   80.8920: real time   81.3986

 eigenvalue-minimisations  :  1264
 total energy-change (2. order) : 0.2043183E-01  (-0.2845910E-02)
 number of electron      63.9999992 magnetization       2.0397129
 augmentation part        6.4646503 magnetization       1.4591145

 Broyden mixing:
  rms(total) = 0.14823E+00    rms(broyden)= 0.14822E+00
  rms(prec ) = 0.15880E+00
  weight for this iteration     100.00

 eigenvalues of (default mixing * dielectric matrix)
  average eigenvalue GAMMA=   1.2812
  8.2418  2.1150  2.1150  1.1880  1.1880  0.9596  0.9596  0.5934  0.5934  0.7316
  0.7316  0.5610  0.5610  0.2992  0.3136  0.4547  0.1741

 Free energy of the ion-electron system (eV)
  ---------------------------------------------------
  alpha Z        PSCENC =        27.00337869
  Ewald energy   TEWEN  =      8065.03639907
  -Hartree energ DENC   =    -11678.15702850
  -exchange      EXHF   =         0.00000000
  -V(xc)+E(xc)   XCENC  =       108.90911373
  PAW double counting   =      2375.15318937    -2453.40419542
  entropy T*S    EENTRO =         0.00000000
  eigenvalues    EBANDS =      -520.23969532
  atomic energy  EATOM  =      4040.26366069
  Solvation  Ediel_sol  =         0.00000000
[...]
     34      -2.0235      0.00000
     35      -1.8436      0.00000
     36      -0.3745      0.00000
     37       0.5173      0.00000
     38       1.3633      0.00000
     39       1.4856      0.00000
     40       2.0168      0.00000
     41       2.1383      0.00000
     42       2.4683      0.00000
     43       2.5192      0.00000
     44       2.7018      0.00000
     45       3.0643      0.00000
     46       3.5620      0.00000
     47       3.6667      0.00000
     48       3.9353      0.00000

 k-point     5 :      -0.4000    0.2000    0.0000
  band No.  band energies     occupation 
      1     -16.5925      1.00000
      2     -16.2239      1.00000
      3     -15.8399      1.00000
      4     -15.7305      1.00000
      5     -15.5126      1.00000
      6     -15.3144      1.00000
      7     -11.1116      1.00000
      8      -9.5957      1.00000
      9      -8.2065      1.00000
     10      -7.6962      1.00000
     11      -7.6601      1.00000
     12      -7.1358      1.00000
     13      -6.8875      1.00000
     14      -6.6189      1.00000
     15      -6.3827      1.00000
     16      -6.0606      1.00000
     17      -5.9339      1.00000
     18      -5.9131      1.00000
     19      -5.7397      1.00000
     20      -5.5833      1.00000
     21      -5.3911      1.00000
     22      -4.7971      1.00000
     23      -4.6941      1.00000
     24      -4.5846      1.00000
     25      -4.4704      1.00000
     26      -4.1997      1.00000
     27      -4.1072      1.00000
     28      -3.9960      1.00000
     29      -3.9876      1.00000
     30      -3.8593      1.00000
     31      -3.4809      1.00000
     32      -2.3994      0.00000
     33      -2.3111      0.00000
     34      -2.0882      0.00000
     35      -1.7643      0.00000
     36      -0.7288      0.00000
     37       0.3645      0.00000
     38       1.0209      0.00000
     39       1.1312      0.00000
     40       1.7847      0.00000
     41       2.0355      0.00000
     42       2.0581      0.00000
     43       3.0140      0.00000
     44       3.0898      0.00000
     45       3.1132      0.00000
     46       3.3129      0.00000
     47       3.5659      0.00000
     48       4.1129      0.00000


--------------------------------------------------------------------------------------------------------


 soft charge-density along one line, spin component           1
         0         1         2         3         4         5         6         7         8         9
 total charge-density along one line

 soft charge-density along one line, spin component           2
         0         1         2         3         4         5         6         7         8         9
 total charge-density along one line

 pseudopotential strength for first ion, spin component:           1
-10.998  -0.159  -0.000  -0.020   0.000   1.572   0.066   0.000
 -0.159 -11.177   0.000   0.000  -0.020   0.066   1.647  -0.000
 -0.000   0.000 -10.913   0.000   0.000   0.000  -0.000   1.537
 -0.020   0.000   0.000 -11.177   0.159   0.008  -0.000  -0.000
  0.000  -0.020   0.000   0.159 -10.998  -0.000   0.008  -0.000
  1.572   0.066   0.000   0.008  -0.000   0.660  -0.028  -0.000
  0.066   1.647  -0.000  -0.000   0.008  -0.028   0.629   0.000
  0.000  -0.000   1.537  -0.000  -0.000  -0.000   0.000   0.676
  0.008  -0.000  -0.000   1.647  -0.066  -0.003   0.000   0.000
 -0.000   0.008  -0.000  -0.066   1.572   0.000  -0.003   0.000
 -0.000  -0.000   0.007  -0.000   0.000  -0.000  -0.000  -0.002
  0.000   0.000  -0.001   0.000  -0.000  -0.000  -0.000   0.000
  0.001   0.004   0.000  -0.000   0.000  -0.000  -0.001  -0.000
 -0.000  -0.000   0.003  -0.000  -0.000  -0.000   0.000  -0.001
  0.000  -0.000   0.000   0.004  -0.001   0.000  -0.000  -0.000
 -0.000  -0.001  -0.000   0.000  -0.000   0.000   0.000   0.000
  0.000   0.000  -0.000   0.000   0.000  -0.000  -0.000  -0.000
 -0.000   0.000  -0.000  -0.001   0.000   0.000  -0.000   0.000
 pseudopotential strength for first ion, spin component:           2
-10.506   0.038  -0.000   0.004   0.000   1.362  -0.013   0.000
  0.038 -10.482   0.000   0.000   0.004  -0.013   1.354  -0.000
 -0.000   0.000 -10.545   0.000   0.000   0.000  -0.000   1.376
  0.004   0.000   0.000 -10.482  -0.038  -0.001  -0.000  -0.000
  0.000   0.004   0.000  -0.038 -10.506  -0.000  -0.001  -0.000
  1.362  -0.013   0.000  -0.001  -0.000   0.751   0.003  -0.000
 -0.013   1.354  -0.000  -0.000  -0.001   0.003   0.753   0.000
  0.000  -0.000   1.376  -0.000  -0.000  -0.000   0.000   0.747
 -0.001  -0.000  -0.000   1.354   0.013   0.000   0.000   0.000
 -0.000  -0.001  -0.000   0.013   1.362   0.000   0.000   0.000
 -0.000  -0.000   0.001  -0.000   0.000  -0.000  -0.000   0.000
  0.000   0.000  -0.000   0.000  -0.000  -0.000  -0.000   0.000
 -0.000   0.001   0.000  -0.000  -0.000   0.000   0.000  -0.000
 -0.000  -0.000   0.002  -0.000  -0.000  -0.000   0.000  -0.000
 -0.000  -0.000   0.000   0.001   0.000   0.001  -0.000  -0.000
 -0.000  -0.000  -0.000   0.000  -0.000   0.000  -0.000   0.000
  0.000   0.000  -0.000   0.000   0.000  -0.000  -0.000  -0.000
 -0.000   0.000  -0.000  -0.000   0.000   0.000  -0.000   0.000
 total augmentation occupancy for first ion, spin component:           1
  1.797  -0.191   0.000  -0.024  -0.000   0.001   0.108  -0.000   0.015   0.000  -0.000  -0.000   0.009   0.000   0.002  -0.001
 -0.191   1.620  -0.000  -0.000  -0.024   0.106   0.104   0.000   0.000   0.015   0.000  -0.000   0.019   0.000   0.003  -0.002
  0.000  -0.000   1.938  -0.000  -0.000  -0.000   0.000  -0.088   0.000   0.000  -0.018  -0.012   0.000   0.004   0.000  -0.000
 -0.024  -0.000  -0.000   1.620   0.191   0.015  -0.000   0.000   0.104  -0.106   0.000   0.000  -0.003  -0.000   0.019   0.000
 -0.000  -0.024  -0.000   0.191   1.797  -0.000   0.015   0.000  -0.108   0.001   0.000   0.000   0.002  -0.000  -0.009  -0.001
  0.001   0.106  -0.000   0.015  -0.000   0.095   0.065   0.000   0.009  -0.000   0.000  -0.000   0.006   0.000   0.018  -0.001
  0.108   0.104   0.000  -0.000   0.015   0.065   0.176   0.000  -0.000   0.009  -0.000  -0.000   0.019   0.000  -0.002  -0.002
 -0.000   0.000  -0.088   0.000   0.000   0.000   0.000   0.081   0.000  -0.000   0.036  -0.017  -0.000   0.006   0.000   0.000
  0.015   0.000   0.000   0.104  -0.108   0.009  -0.000   0.000   0.176  -0.065   0.000  -0.000   0.002   0.000   0.019  -0.000
  0.000   0.015   0.000  -0.106   0.001  -0.000   0.009  -0.000  -0.065   0.095  -0.000   0.000   0.018  -0.000  -0.006  -0.003
 -0.000   0.000  -0.018   0.000   0.000   0.000   0.000   0.036   0.000  -0.000   1.017  -0.305   0.000   0.033   0.000   0.000
 -0.000  -0.000  -0.012   0.000   0.000  -0.000   0.000  -0.017  -0.000   0.000  -0.305   0.162   0.000  -0.014  -0.000   0.000
  0.009   0.019   0.000  -0.003   0.002   0.006   0.019  -0.000   0.002   0.018   0.000   0.000   0.200   0.000  -0.000  -0.016
  0.000   0.000   0.004  -0.000  -0.000   0.000   0.000   0.006   0.000  -0.000   0.033  -0.014   0.000   0.212  -0.000  -0.000
  0.002   0.003   0.000   0.019  -0.009   0.018  -0.002   0.000   0.019  -0.006  -0.000  -0.000  -0.000  -0.000   0.200  -0.000
 -0.001  -0.002  -0.000   0.000  -0.001  -0.001  -0.002   0.000  -0.000  -0.003   0.000   0.000  -0.016  -0.000  -0.000   0.002
 -0.000  -0.000  -0.001   0.000   0.000  -0.000   0.000  -0.001  -0.000   0.000  -0.004   0.003  -0.000  -0.019   0.000   0.000
 -0.001  -0.000  -0.000  -0.002   0.001  -0.003   0.000  -0.000  -0.002   0.001  -0.000  -0.000   0.000   0.000  -0.016  -0.000
 total augmentation occupancy for first ion, spin component:           2
  0.060   0.108   0.000   0.013  -0.000  -0.061  -0.057  -0.000  -0.007  -0.000   0.000   0.000  -0.005  -0.000  -0.002  -0.000
  0.108   0.172   0.000  -0.000   0.013  -0.057  -0.124  -0.000  -0.000  -0.007  -0.000   0.000  -0.009  -0.000  -0.001  -0.000
  0.000   0.000  -0.006   0.000  -0.000  -0.000  -0.000  -0.027  -0.000   0.000   0.003   0.002  -0.000  -0.000  -0.000  -0.000
  0.013  -0.000   0.000   0.172  -0.108  -0.007   0.000  -0.000  -0.124   0.057  -0.000   0.000   0.001   0.000  -0.009  -0.000
 -0.000   0.013  -0.000  -0.108   0.060   0.000  -0.007   0.000   0.057  -0.061  -0.000  -0.000  -0.002   0.000   0.005   0.000
 -0.061  -0.057  -0.000  -0.007   0.000   0.017   0.024   0.000   0.003  -0.000  -0.000   0.000   0.002   0.000   0.001   0.000
 -0.057  -0.124  -0.000   0.000  -0.007   0.024   0.045   0.000  -0.000   0.003   0.000  -0.000   0.004   0.000   0.000   0.000
 -0.000  -0.000  -0.027  -0.000   0.000   0.000   0.000   0.004   0.000  -0.000  -0.000   0.000   0.000   0.000   0.000  -0.000
 -0.007  -0.000  -0.000  -0.124   0.057   0.003  -0.000   0.000   0.045  -0.024   0.000   0.000  -0.000   0.000   0.004   0.000
 -0.000  -0.007   0.000   0.057  -0.061  -0.000   0.003  -0.000  -0.024   0.017   0.000  -0.000   0.001  -0.000  -0.002   0.000
  0.000  -0.000   0.003   0.000  -0.000  -0.000   0.000  -0.000   0.000   0.000   0.004   0.022   0.000  -0.000  -0.000   0.000
  0.000   0.000   0.002   0.000  -0.000   0.000  -0.000   0.000   0.000  -0.000   0.022  -0.013   0.000   0.001  -0.000   0.000
 -0.005  -0.009  -0.000   0.001  -0.002   0.002   0.004   0.000  -0.000   0.001   0.000   0.000   0.000   0.000  -0.000   0.001
 -0.000  -0.000  -0.000   0.000   0.000   0.000   0.000   0.000   0.000  -0.000  -0.000   0.001   0.000   0.001   0.000   0.000
 -0.002  -0.001  -0.000  -0.009   0.005   0.001   0.000   0.000   0.004  -0.002  -0.000  -0.000  -0.000   0.000   0.000   0.000
 -0.000  -0.000  -0.000  -0.000   0.000   0.000   0.000  -0.000   0.000   0.000   0.000   0.000   0.001   0.000   0.000  -0.000
 -0.000   0.000  -0.000  -0.000   0.000   0.000   0.000   0.000   0.000  -0.000   0.000  -0.000   0.000   0.001  -0.000  -0.000
  0.000   0.000   0.000  -0.000   0.000   0.000  -0.000   0.000   0.000  -0.000  -0.000  -0.000  -0.000  -0.000   0.001   0.000


------------------------ aborting loop because EDIFF is reached ----------------------------------------





 total charge     

# of ion       s       p       d       tot
------------------------------------------
    1        0.397   0.471   8.299   9.166
    2        0.397   0.471   8.307   9.174
    3        0.730   0.900   0.000   1.630
    4        1.139   1.185   0.129   2.453
    5        1.379   2.256   0.000   3.635
    6        1.376   2.318   0.000   3.694
    7        1.378   2.275   0.000   3.653
    8        1.371   2.292   0.000   3.662
    9        1.365   2.367   0.000   3.732
   10        1.369   2.314   0.000   3.683
--------------------------------------------------
tot         10.901  16.847  16.734  44.483



 magnetization (x)

# of ion       s       p       d       tot
------------------------------------------
    1       -0.002  -0.002   0.636   0.633
    2       -0.002  -0.002   0.637   0.633
    3        0.002  -0.002   0.000  -0.000
    4        0.003   0.002   0.003   0.007
    5        0.010   0.050   0.000   0.060
    6        0.010   0.068   0.000   0.078
    7        0.009   0.061   0.000   0.070
    8        0.008   0.044   0.000   0.051
    9        0.010   0.070   0.000   0.079
   10        0.008   0.055   0.000   0.062
--------------------------------------------------
tot          0.056   0.342   1.275   1.674

    CHARGE:  cpu time    2.1760: real time    2.1904
    FORLOC:  cpu time    0.0640: real time    0.0628
    FORNL :  cpu time    6.7040: real time    6.8035
    STRESS:  cpu time   19.9720: real time   20.2566
    FORCOR:  cpu time   52.0040: real time   52.1492
    FORHAR:  cpu time    0.3360: real time    0.3373
    MIXING:  cpu time    0.0400: real time    0.0414
    OFIELD:  cpu time    0.0000: real time    0.0000

  FORCE on cell =-STRESS in cart. coord.  units (eV):
  Direction    XX          YY          ZZ          XY          YZ          ZX
  --------------------------------------------------------------------------------------
  Alpha Z    40.58851    40.58851    40.58851
  Ewald   13140.93876 13140.93640-15410.93880    -0.00248    -0.00059    -0.00106
  Hartree 13896.91808 13896.91920-13263.74794    -0.00061     0.00006     0.00009
  E(xc)    -267.98976  -267.98978  -267.51423     0.00003     0.00000     0.00001
  Local  -27925.10288-27925.10302 27755.97736     0.00265     0.00035     0.00065
  n-local   429.64084   430.38991   429.82419     0.25780     0.63659     0.32063
  augment    -2.78194    -2.78184    -6.48075     0.00005     0.00002     0.00006
  Kinetic   691.32105   682.62595   721.95818    -4.36721    -0.35155    -0.92838
  Fock        0.00000     0.00000     0.00000     0.00000     0.00000     0.00000
  -------------------------------------------------------------------------------------
  Total      -0.44101    -0.44101    -0.33348     0.00000     0.00000     0.00000
  in kB      -1.09621    -1.09621    -0.82892     0.00000     0.00000     0.00000
  external pressure =       -1.01 kB  Pullay stress =        0.00 kB


 VOLUME and BASIS-vectors are now :
 -----------------------------------------------------------------------------
  energy-cutoff  :      520.00
  volume of cell :      644.56
      direct lattice vectors                 reciprocal lattice vectors
     5.881156578  0.000000066 -0.000000000     0.170034583 -0.098169504  0.000000000
     2.940577955  5.093230831  0.000000000    -0.000000002  0.196339031 -0.000000000
    -0.000000000  0.000000000 21.518340651     0.000000000 -0.000000000  0.046471985

  length of vectors
     5.881156578  5.881156265 21.518340651     0.196339021  0.196339031  0.046471985


 FORCES acting on ions
    electron-ion (+dipol)            ewald-force                    non-local-force                 convergence-correction
 -----------------------------------------------------------------------------------------------
   -.135E-03 -.719E-04 0.615E+01   0.876E-03 0.522E-03 -.628E+01   -.278E-16 0.435E-20 0.376E-01   -.165E-06 0.144E-05 0.134E-01
   0.104E-03 0.957E-04 0.528E+01   -.873E-03 -.521E-03 -.542E+01   -.974E-20 0.302E-20 0.262E-01   -.524E-06 0.134E-05 0.190E-01
   -.338E-04 -.330E-04 0.288E+03   -.226E-03 -.127E-03 -.283E+03   0.879E-17 -.283E-16 -.497E+01   0.819E-07 0.386E-07 0.110E-01
   0.339E-04 0.162E-04 -.273E+03   0.202E-03 0.114E-03 0.269E+03   0.541E-17 -.646E-17 0.411E+01   0.402E-07 0.225E-07 -.497E-02
   -.394E+02 -.109E+00 -.593E+03   0.357E+02 0.415E-01 0.597E+03   0.370E+01 0.382E-02 -.414E+01   -.548E-02 0.650E-01 -.257E-01
   0.196E+02 0.341E+02 -.593E+03   -.178E+02 -.309E+02 0.597E+03   -.184E+01 -.320E+01 -.414E+01   0.591E-01 -.278E-01 -.257E-01
   0.198E+02 -.340E+02 -.593E+03   -.179E+02 0.309E+02 0.597E+03   -.185E+01 0.320E+01 -.414E+01   -.536E-01 -.373E-01 -.257E-01
   0.249E+02 -.336E-01 0.584E+03   -.215E+02 -.316E-01 -.588E+03   -.334E+01 0.111E-01 0.408E+01   0.681E-02 0.579E-01 0.296E-01
   -.125E+02 -.215E+02 0.584E+03   0.107E+02 0.187E+02 -.588E+03   0.168E+01 0.289E+01 0.408E+01   0.467E-01 -.349E-01 0.296E-01
   -.124E+02 0.215E+02 0.584E+03   0.108E+02 -.186E+02 -.588E+03   0.166E+01 -.290E+01 0.408E+01   -.536E-01 -.231E-01 0.296E-01
 -----------------------------------------------------------------------------------------------
   -.761E-04 -.388E-05 0.906E+00   -.711E-14 -.107E-13 -.227E-12   0.444E-15 0.000E+00 -.988E+00   -.409E-06 0.296E-05 0.502E-01


 POSITION                                       TOTAL-FORCE (eV/Angst)
 -----------------------------------------------------------------------------------
      2.94058      1.69774     10.77975         0.000000     -0.000000     -0.079169
      5.88116      3.39549     10.78109         0.000000     -0.000000     -0.085497
     -0.00000      0.00000      9.53908        -0.000000     -0.000000      0.035229
     -0.00000      0.00000     11.87348        -0.000000     -0.000000      0.182520
      3.62484      0.00030     12.24568         0.025360      0.001971     -0.031433
      1.12842      1.95389     12.24568        -0.010973     -0.022948     -0.031433
      4.06848      3.13905     12.24568        -0.014387      0.020977     -0.031433
      5.06367      5.09288      9.25910        -0.029737      0.002985      0.013739
      7.75988      3.25475      9.25910         0.017454      0.024260      0.013739
      4.81991      1.83883      9.25910         0.012283     -0.027245      0.013739
 -----------------------------------------------------------------------------------
    total drift:                               -0.000077     -0.000001     -0.031908


--------------------------------------------------------------------------------------------------------



  FREE ENERGIE OF THE ION-ELECTRON SYSTEM (eV)
  ---------------------------------------------------
  free  energy   TOTEN  =       -43.08291154 eV

  energy  without entropy=      -43.08291154  energy(sigma->0) =      -43.08291154

 d Force =-0.3160440E-03[-0.335E-03,-0.297E-03]  d Energy = 0.1770119E-03-0.493E-03
 d Force = 0.2427168E+00[ 0.243E+00, 0.243E+00]  d Ewald  = 0.8003389E+01-0.776E+01


--------------------------------------------------------------------------------------------------------


    POTLOK:  cpu time   51.7640: real time   52.0566


--------------------------------------------------------------------------------------------------------




--------------------------------------------------------------------------------------------------------


  
 reached required accuracy - stopping structural energy minimisation
     LOOP+:  cpu time  521.6640: real time  524.6370
    4ORBIT:  cpu time    0.0000: real time    0.0000



 total charge     

# of ion       s       p       d       tot
------------------------------------------
    1        0.397   0.471   8.299   9.166
    2        0.397   0.471   8.307   9.174
    3        0.730   0.900   0.000   1.630
    4        1.139   1.185   0.129   2.453
    5        1.379   2.256   0.000   3.635
    6        1.376   2.318   0.000   3.694
    7        1.378   2.275   0.000   3.653
    8        1.371   2.292   0.000   3.662
    9        1.365   2.367   0.000   3.732
   10        1.369   2.314   0.000   3.683
--------------------------------------------------
tot         10.901  16.847  16.734  44.483



 magnetization (x)

# of ion       s       p       d       tot
------------------------------------------
    1       -0.002  -0.002   0.636   0.633
    2       -0.002  -0.002   0.637   0.633
    3        0.002  -0.002   0.000  -0.000
    4        0.003   0.002   0.003   0.007
    5        0.010   0.050   0.000   0.060
    6        0.010   0.068   0.000   0.078
    7        0.009   0.061   0.000   0.070
    8        0.008   0.044   0.000   0.051
    9        0.010   0.070   0.000   0.079
   10        0.008   0.055   0.000   0.062
--------------------------------------------------
tot          0.056   0.342   1.275   1.674

 BZINTS: Fermi energy: -2.646831; 64.000000 electrons
         Band energy:-499.481535;  BLOECHL correction:  0.000000

 total amount of memory used by VASP MPI-rank0   131321. kBytes
=======================================================================

   base      :      30000. kBytes
   nonlr-proj:       8836. kBytes
   fftplans  :      11247. kBytes
   grid      :      68332. kBytes
   one-center:        311. kBytes
   wavefun   :      12595. kBytes

  
  
 General timing and accounting informations for this job:
 ========================================================
  
                  Total CPU time used (sec):    12517.428
                            User time (sec):    12242.180
                          System time (sec):      275.248
                         Elapsed time (sec):    12590.321
  
                   Maximum memory used (kb):      385044.
                   Average memory used (kb):           0.
  
                          Minor page faults:     12188425
                          Major page faults:            8
                 Voluntary context switches:         1074
