PROCAR lm decomposed
# of k-points:    5         # of bands:   48         # of ions:   10

 k-point     1 :    0.00000000 0.00000000 0.00000000     weight = 0.04000000

band     1 # energy  -17.54718061 # occ.  1.00000000

ion      s     py     pz     px    dxy    dyz    dz2    dxz  x2-y2    tot
    1  0.021  0.000  0.000  0.000  0.000  0.000  0.000  0.000  0.000  0.021
    2  0.021  0.000  0.000  0.000  0.000  0.000  0.000  0.000  0.000  0.021
    3  0.042  0.000  0.000  0.000  0.000  0.000  0.000  0.000  0.000  0.042
    4  0.067  0.000  0.000  0.000  0.000  0.000  0.000  0.000  0.000  0.067
    5  0.087  0.000  0.001  0.001  0.000  0.000  0.000  0.000  0.000  0.089
    6  0.087  0.000  0.001  0.000  0.000  0.000  0.000  0.000  0.000  0.089
    7  0.087  0.000  0.001  0.000  0.000  0.000  0.000  0.000  0.000  0.089
    8  0.071  0.000  0.001  0.001  0.000  0.000  0.000  0.000  0.000  0.073
    9  0.071  0.001  0.001  0.000  0.000  0.000  0.000  0.000  0.000  0.073
   10  0.071  0.001  0.001  0.000  0.000  0.000  0.000  0.000  0.000  0.073
tot    0.627  0.002  0.006  0.002  0.000  0.000  0.000  0.000  0.000  0.638

band     2 # energy  -16.51625295 # occ.  1.00000000

ion      s     py     pz     px    dxy    dyz    dz2    dxz  x2-y2    tot
    1  0.000  0.000  0.009  0.000  0.000  0.000  0.000  0.000  0.000  0.009
    2  0.000  0.000  0.009  0.000  0.000  0.000  0.000  0.000  0.000  0.009
    3  0.041  0.000  0.001  0.000  0.000  0.000  0.000  0.000  0.000  0.042
    4  0.033  0.000  0.002  0.000  0.000  0.000  0.001  0.000  0.000  0.037
    5  0.087  0.000  0.000  0.000  0.000  0.000  0.000  0.000  0.000  0.088
    6  0.087  0.000  0.000  0.000  0.000  0.000  0.000  0.000  0.000  0.088
    7  0.087  0.000  0.000  0.000  0.000  0.000  0.000  0.000  0.000  0.088
    8  0.101  0.000  0.000  0.001  0.000  0.000  0.000  0.000  0.000  0.103
    9  0.101  0.001  0.000  0.000  0.000  0.000  0.000  0.000  0.000  0.103
   10  0.101  0.001  0.000  0.000  0.000  0.000  0.000  0.000  0.000  0.103
tot    0.640  0.003  0.022  0.003  0.000  0.000  0.001  0.000  0.000  0.668

band     3 # energy  -15.23463040 # occ.  1.00000000

ion      s     py     pz     px    dxy    dyz    dz2    dxz  x2-y2    tot
    1  0.000  0.008  0.000  0.000  0.000  0.001  0.000  0.001  0.001  0.012
    2  0.000  0.007  0.000  0.001  0.000  0.000  0.000  0.002  0.002  0.012
    3  0.000  0.001  0.000  0.018  0.000  0.000  0.000  0.000  0.000  0.019
    4  0.000  0.000  0.000  0.003  0.000  0.000  0.000  0.000  0.001  0.004
    5  0.098  0.000  0.001  0.000  0.000  0.000  0.000  0.000  0.000  0.099
    6  0.044  0.000  0.000  0.000  0.000  0.000  0.000  0.000  0.000  0.044
    7  0.011  0.000  0.000  0.000  0.000  0.000  0.000  0.000  0.000  0.011
    8  0.331  0.000  0.001  0.003  0.000  0.000  0.000  0.000  0.000  0.335
    9  0.148  0.001  0.001  0.000  0.000  0.000  0.000  0.000  0.000  0.150
   10  0.036  0.000  0.000  0.000  0.000  0.000  0.000  0.000  0.000  0.037
tot    0.668  0.017  0.003  0.025  0.001  0.001  0.000  0.004  0.004  0.722

band     4 # energy  -15.23459201 # occ.  1.00000000

ion      s     py     pz     px    dxy    dyz    dz2    dxz  x2-y2    tot
    1  0.000  0.000  0.000  0.008  0.001  0.001  0.000  0.001  0.000  0.012
    2  0.000  0.001  0.000  0.007  0.002  0.002  0.000  0.000  0.000  0.012
    3  0.000  0.018  0.000  0.001  0.000  0.000  0.000  0.000  0.000  0.019
    4  0.000  0.003  0.000  0.000  0.001  0.000  0.000  0.000  0.000  0.004
    5  0.004  0.000  0.000  0.000  0.000  0.000  0.000  0.000  0.000  0.004
    6  0.058  0.000  0.000  0.000  0.000  0.000  0.000  0.000  0.000  0.058
    7  0.091  0.000  0.001  0.000  0.000  0.000  0.000  0.000  0.000  0.092
    8  0.013  0.000  0.000  0.000  0.000  0.000  0.000  0.000  0.000  0.013
    9  0.195  0.001  0.001  0.000  0.000  0.000  0.000  0.000  0.000  0.198
   10  0.307  0.002  0.001  0.001  0.000  0.000  0.000  0.000  0.000  0.311
tot    0.668  0.025  0.003  0.017  0.004  0.004  0.000  0.001  0.001  0.722

band     5 # energy  -15.20002533 # occ.  1.00000000

ion      s     py     pz     px    dxy    dyz    dz2    dxz  x2-y2    tot
    1  0.000  0.001  0.000  0.002  0.003  0.008  0.000  0.001  0.001  0.015
    2  0.000  0.002  0.000  0.001  0.003  0.008  0.000  0.000  0.000  0.015
    3  0.000  0.000  0.000  0.008  0.000  0.000  0.000  0.000  0.000  0.008
    4  0.000  0.000  0.000  0.022  0.000  0.000  0.000  0.000  0.003  0.025
    5  0.340  0.000  0.001  0.002  0.000  0.000  0.000  0.000  0.000  0.344
    6  0.124  0.001  0.001  0.000  0.000  0.000  0.000  0.000  0.000  0.125
    7  0.054  0.000  0.000  0.000  0.000  0.000  0.000  0.000  0.000  0.054
    8  0.095  0.000  0.000  0.002  0.000  0.000  0.000  0.000  0.000  0.097
    9  0.035  0.001  0.000  0.000  0.000  0.000  0.000  0.000  0.000  0.035
   10  0.015  0.000  0.000  0.000  0.000  0.000  0.000  0.000  0.000  0.015
tot    0.662  0.005  0.003  0.038  0.006  0.016  0.000  0.001  0.004  0.734

band     6 # energy  -15.19997930 # occ.  1.00000000

ion      s     py     pz     px    dxy    dyz    dz2    dxz  x2-y2    tot
    1  0.000  0.002  0.000  0.001  0.001  0.001  0.000  0.008  0.003  0.015
    2  0.000  0.001  0.000  0.002  0.000  0.000  0.000  0.008  0.003  0.015
    3  0.000  0.008  0.000  0.000  0.000  0.000  0.000  0.000  0.000  0.008
    4  0.000  0.022  0.000  0.000  0.003  0.000  0.000  0.000  0.000  0.025
    5  0.005  0.000  0.000  0.000  0.000  0.000  0.000  0.000  0.000  0.005
    6  0.221  0.001  0.001  0.000  0.000  0.000  0.000  0.000  0.000  0.224
    7  0.291  0.001  0.001  0.000  0.000  0.000  0.000  0.000  0.000  0.295
    8  0.001  0.000  0.000  0.000  0.000  0.000  0.000  0.000  0.000  0.001
    9  0.062  0.001  0.000  0.000  0.000  0.000  0.000  0.000  0.000  0.063
   10  0.082  0.001  0.000  0.000  0.000  0.000  0.000  0.000  0.000  0.083
tot    0.662  0.038  0.003  0.005  0.004  0.001  0.000  0.016  0.006  0.734

band     7 # energy  -11.54137992 # occ.  1.00000000

ion      s     py     pz     px    dxy    dyz    dz2    dxz  x2-y2    tot
    1  0.016  0.000  0.000  0.000  0.000  0.000  0.002  0.000  0.000  0.018
    2  0.016  0.000  0.000  0.000  0.000  0.000  0.002  0.000  0.000  0.018
    3  0.099  0.000  0.010  0.000  0.000  0.000  0.000  0.000  0.000  0.109
    4  0.306  0.000  0.008  0.000  0.000  0.000  0.001  0.000  0.000  0.315
    5  0.019  0.000  0.000  0.021  0.000  0.000  0.000  0.000  0.000  0.040
    6  0.019  0.016  0.000  0.005  0.000  0.000  0.000  0.000  0.000  0.040
    7  0.019  0.016  0.000  0.005  0.000  0.000  0.000  0.000  0.000  0.040
    8  0.013  0.000  0.000  0.014  0.000  0.000  0.000  0.000  0.000  0.027
    9  0.013  0.010  0.000  0.003  0.000  0.000  0.000  0.000  0.000  0.027
   10  0.013  0.010  0.000  0.003  0.000  0.000  0.000  0.000  0.000  0.027
tot    0.534  0.052  0.019  0.052  0.000  0.000  0.004  0.000  0.000  0.660

band     8 # energy   -9.45225550 # occ.  1.00000000

ion      s     py     pz     px    dxy    dyz    dz2    dxz  x2-y2    tot
    1  0.002  0.000  0.011  0.000  0.000  0.000  0.000  0.000  0.000  0.013
    2  0.002  0.000  0.011  0.000  0.000  0.000  0.000  0.000  0.000  0.013
    3  0.172  0.000  0.008  0.000  0.000  0.000  0.000  0.000  0.000  0.180
    4  0.132  0.000  0.008  0.000  0.000  0.000  0.001  0.000  0.000  0.141
    5  0.010  0.000  0.001  0.018  0.000  0.000  0.000  0.000  0.000  0.029
    6  0.010  0.014  0.001  0.005  0.000  0.000  0.000  0.000  0.000  0.029
    7  0.010  0.014  0.001  0.005  0.000  0.000  0.000  0.000  0.000  0.029
    8  0.012  0.000  0.001  0.052  0.000  0.000  0.000  0.000  0.000  0.065
    9  0.012  0.039  0.001  0.013  0.000  0.000  0.000  0.000  0.000  0.065
   10  0.012  0.039  0.001  0.013  0.000  0.000  0.000  0.000  0.000  0.065
tot    0.375  0.105  0.041  0.105  0.000  0.000  0.001  0.000  0.000  0.628

band     9 # energy   -8.31858374 # occ.  1.00000000

ion      s     py     pz     px    dxy    dyz    dz2    dxz  x2-y2    tot
    1  0.000  0.004  0.000  0.001  0.002  0.040  0.000  0.020  0.000  0.068
    2  0.000  0.001  0.000  0.004  0.000  0.017  0.000  0.043  0.002  0.068
    3  0.000  0.013  0.000  0.012  0.000  0.000  0.000  0.000  0.000  0.025
    4  0.000  0.039  0.000  0.036  0.000  0.000  0.000  0.000  0.000  0.075
    5  0.003  0.017  0.000  0.050  0.000  0.000  0.000  0.000  0.000  0.070
    6  0.006  0.086  0.000  0.014  0.000  0.000  0.000  0.000  0.000  0.107
    7  0.000  0.000  0.000  0.039  0.000  0.000  0.000  0.000  0.000  0.039
    8  0.004  0.008  0.001  0.020  0.000  0.000  0.000  0.000  0.000  0.033
    9  0.008  0.036  0.002  0.006  0.000  0.000  0.000  0.000  0.000  0.051
   10  0.001  0.000  0.000  0.017  0.000  0.000  0.000  0.000  0.000  0.018
tot    0.021  0.205  0.004  0.199  0.003  0.057  0.000  0.063  0.003  0.555

band    10 # energy   -8.31855833 # occ.  1.00000000

ion      s     py     pz     px    dxy    dyz    dz2    dxz  x2-y2    tot
    1  0.000  0.001  0.000  0.004  0.000  0.020  0.000  0.040  0.002  0.068
    2  0.000  0.004  0.000  0.001  0.002  0.043  0.000  0.017  0.000  0.068
    3  0.000  0.012  0.000  0.013  0.000  0.000  0.000  0.000  0.000  0.025
    4  0.000  0.036  0.000  0.039  0.000  0.000  0.000  0.000  0.000  0.075
    5  0.003  0.016  0.000  0.055  0.000  0.000  0.000  0.000  0.000  0.074
    6  0.000  0.001  0.000  0.037  0.000  0.000  0.000  0.000  0.000  0.037
    7  0.006  0.087  0.000  0.012  0.000  0.000  0.000  0.000  0.000  0.105
    8  0.004  0.007  0.001  0.023  0.000  0.000  0.000  0.000  0.000  0.035
    9  0.000  0.000  0.000  0.016  0.000  0.000  0.000  0.000  0.000  0.017
   10  0.007  0.036  0.002  0.005  0.000  0.000  0.000  0.000  0.000  0.050
tot    0.021  0.199  0.004  0.205  0.003  0.063  0.000  0.057  0.003  0.555

band    11 # energy   -8.26005493 # occ.  1.00000000

ion      s     py     pz     px    dxy    dyz    dz2    dxz  x2-y2    tot
    1  0.083  0.000  0.003  0.000  0.000  0.000  0.025  0.000  0.000  0.111
    2  0.083  0.000  0.003  0.000  0.000  0.000  0.025  0.000  0.000  0.111
    3  0.000  0.000  0.000  0.000  0.000  0.000  0.000  0.000  0.000  0.000
    4  0.000  0.000  0.000  0.000  0.000  0.000  0.000  0.000  0.000  0.000
    5  0.000  0.087  0.000  0.000  0.000  0.000  0.000  0.000  0.000  0.087
    6  0.000  0.022  0.000  0.065  0.000  0.000  0.000  0.000  0.000  0.087
    7  0.000  0.022  0.000  0.065  0.000  0.000  0.000  0.000  0.000  0.087
    8  0.000  0.029  0.000  0.000  0.000  0.000  0.000  0.000  0.000  0.029
    9  0.000  0.007  0.000  0.022  0.000  0.000  0.000  0.000  0.000  0.029
   10  0.000  0.007  0.000  0.022  0.000  0.000  0.000  0.000  0.000  0.029
tot    0.166  0.174  0.006  0.174  0.000  0.000  0.050  0.000  0.000  0.569

band    12 # energy   -8.22166901 # occ.  1.00000000

ion      s     py     pz     px    dxy    dyz    dz2    dxz  x2-y2    tot
    1  0.043  0.000  0.000  0.000  0.000  0.000  0.020  0.000  0.000  0.064
    2  0.043  0.000  0.000  0.000  0.000  0.000  0.021  0.000  0.000  0.064
    3  0.001  0.000  0.029  0.000  0.000  0.000  0.000  0.000  0.000  0.030
    4  0.006  0.000  0.054  0.000  0.000  0.000  0.001  0.000  0.000  0.061
    5  0.003  0.000  0.041  0.008  0.000  0.000  0.000  0.000  0.000  0.052
    6  0.003  0.006  0.041  0.002  0.000  0.000  0.000  0.000  0.000  0.052
    7  0.003  0.006  0.041  0.002  0.000  0.000  0.000  0.000  0.000  0.052
    8  0.006  0.000  0.039  0.001  0.000  0.000  0.000  0.000  0.000  0.046
    9  0.006  0.001  0.039  0.000  0.000  0.000  0.000  0.000  0.000  0.046
   10  0.006  0.001  0.039  0.000  0.000  0.000  0.000  0.000  0.000  0.046
tot    0.120  0.014  0.324  0.014  0.000  0.000  0.042  0.000  0.000  0.514

band    13 # energy   -7.95077839 # occ.  1.00000000

ion      s     py     pz     px    dxy    dyz    dz2    dxz  x2-y2    tot
    1  0.000  0.015  0.000  0.004  0.003  0.000  0.000  0.019  0.009  0.050
    2  0.000  0.015  0.000  0.004  0.002  0.011  0.000  0.008  0.011  0.051
    3  0.000  0.010  0.000  0.042  0.000  0.000  0.000  0.000  0.000  0.052
    4  0.000  0.005  0.000  0.021  0.000  0.000  0.000  0.001  0.000  0.027
    5  0.000  0.003  0.007  0.043  0.000  0.000  0.000  0.000  0.000  0.053
    6  0.000  0.039  0.006  0.001  0.000  0.000  0.000  0.000  0.000  0.046
    7  0.000  0.006  0.000  0.009  0.000  0.000  0.000  0.000  0.000  0.015
    8  0.002  0.007  0.006  0.094  0.000  0.000  0.000  0.000  0.000  0.108
    9  0.001  0.087  0.005  0.002  0.000  0.000  0.000  0.000  0.000  0.096
   10  0.000  0.013  0.000  0.022  0.000  0.000  0.000  0.000  0.000  0.035
tot    0.003  0.200  0.024  0.242  0.005  0.012  0.000  0.029  0.020  0.533

band    14 # energy   -7.95075410 # occ.  1.00000000

ion      s     py     pz     px    dxy    dyz    dz2    dxz  x2-y2    tot
    1  0.000  0.004  0.000  0.015  0.009  0.019  0.000  0.000  0.003  0.050
    2  0.000  0.004  0.000  0.015  0.011  0.008  0.000  0.011  0.002  0.051
    3  0.000  0.042  0.000  0.010  0.000  0.000  0.000  0.000  0.000  0.052
    4  0.000  0.021  0.000  0.005  0.000  0.001  0.000  0.000  0.000  0.027
    5  0.000  0.012  0.002  0.010  0.000  0.000  0.000  0.000  0.000  0.023
    6  0.000  0.004  0.003  0.023  0.000  0.000  0.000  0.000  0.000  0.029
    7  0.000  0.038  0.008  0.015  0.000  0.000  0.000  0.000  0.000  0.061
    8  0.000  0.028  0.001  0.022  0.000  0.000  0.000  0.000  0.000  0.052
    9  0.001  0.008  0.002  0.052  0.000  0.000  0.000  0.000  0.000  0.063
   10  0.002  0.082  0.007  0.033  0.000  0.000  0.000  0.000  0.000  0.124
tot    0.003  0.242  0.024  0.200  0.020  0.029  0.000  0.012  0.005  0.533

band    15 # energy   -6.71502079 # occ.  1.00000000

ion      s     py     pz     px    dxy    dyz    dz2    dxz  x2-y2    tot
    1  0.003  0.000  0.043  0.000  0.000  0.000  0.002  0.000  0.000  0.048
    2  0.003  0.000  0.043  0.000  0.000  0.000  0.002  0.000  0.000  0.048
    3  0.000  0.000  0.000  0.000  0.000  0.000  0.000  0.000  0.000  0.000
    4  0.000  0.000  0.000  0.000  0.000  0.000  0.000  0.000  0.000  0.000
    5  0.000  0.044  0.000  0.000  0.000  0.000  0.000  0.000  0.000  0.044
    6  0.000  0.011  0.000  0.033  0.000  0.000  0.000  0.000  0.000  0.044
    7  0.000  0.011  0.000  0.033  0.000  0.000  0.000  0.000  0.000  0.044
    8  0.000  0.100  0.000  0.000  0.000  0.000  0.000  0.000  0.000  0.100
    9  0.000  0.025  0.000  0.075  0.000  0.000  0.000  0.000  0.000  0.100
   10  0.000  0.025  0.000  0.075  0.000  0.000  0.000  0.000  0.000  0.100
tot    0.007  0.217  0.086  0.217  0.000  0.000  0.004  0.000  0.000  0.529

band    16 # energy   -6.44494856 # occ.  1.00000000

ion      s     py     pz     px    dxy    dyz    dz2    dxz  x2-y2    tot
    1  0.000  0.001  0.000  0.000  0.000  0.005  0.000  0.170  0.136  0.312
    2  0.000  0.001  0.000  0.000  0.010  0.004  0.000  0.175  0.131  0.321
    3  0.000  0.000  0.000  0.000  0.000  0.000  0.000  0.000  0.000  0.000
    4  0.000  0.000  0.000  0.001  0.000  0.000  0.000  0.000  0.001  0.002
    5  0.001  0.001  0.021  0.005  0.000  0.000  0.000  0.000  0.000  0.028
    6  0.000  0.005  0.003  0.030  0.000  0.000  0.000  0.000  0.000  0.038
    7  0.001  0.001  0.009  0.024  0.000  0.000  0.000  0.000  0.000  0.035
    8  0.002  0.001  0.024  0.004  0.000  0.000  0.000  0.000  0.000  0.030
    9  0.000  0.004  0.003  0.024  0.000  0.000  0.000  0.000  0.000  0.032
   10  0.001  0.001  0.009  0.020  0.000  0.000  0.000  0.000  0.000  0.031
tot    0.004  0.015  0.069  0.108  0.011  0.009  0.000  0.346  0.268  0.829

band    17 # energy   -6.44493211 # occ.  1.00000000

ion      s     py     pz     px    dxy    dyz    dz2    dxz  x2-y2    tot
    1  0.000  0.000  0.000  0.001  0.136  0.170  0.000  0.005  0.000  0.312
    2  0.000  0.000  0.000  0.001  0.131  0.175  0.000  0.004  0.010  0.321
    3  0.000  0.000  0.000  0.000  0.000  0.000  0.000  0.000  0.000  0.000
    4  0.000  0.001  0.000  0.000  0.001  0.000  0.000  0.000  0.000  0.002
    5  0.000  0.038  0.001  0.000  0.000  0.000  0.000  0.000  0.000  0.039
    6  0.001  0.008  0.020  0.001  0.000  0.000  0.000  0.000  0.000  0.030
    7  0.001  0.012  0.013  0.007  0.000  0.000  0.000  0.000  0.000  0.032
    8  0.000  0.031  0.001  0.000  0.000  0.000  0.000  0.000  0.000  0.032
    9  0.001  0.007  0.021  0.001  0.000  0.000  0.000  0.000  0.000  0.030
   10  0.001  0.010  0.015  0.005  0.000  0.000  0.000  0.000  0.000  0.031
tot    0.004  0.108  0.069  0.015  0.268  0.346  0.000  0.009  0.011  0.829

band    18 # energy   -6.06508821 # occ.  1.00000000

ion      s     py     pz     px    dxy    dyz    dz2    dxz  x2-y2    tot
    1  0.000  0.000  0.000  0.002  0.095  0.094  0.000  0.023  0.053  0.267
    2  0.000  0.001  0.000  0.001  0.125  0.081  0.000  0.032  0.019  0.259
    3  0.000  0.000  0.000  0.000  0.000  0.000  0.000  0.000  0.000  0.000
    4  0.000  0.000  0.000  0.001  0.000  0.001  0.000  0.002  0.000  0.004
    5  0.007  0.000  0.069  0.000  0.000  0.000  0.000  0.000  0.000  0.076
    6  0.007  0.000  0.065  0.000  0.000  0.000  0.000  0.000  0.000  0.073
    7  0.000  0.000  0.000  0.001  0.000  0.000  0.000  0.000  0.000  0.002
    8  0.004  0.000  0.042  0.000  0.000  0.000  0.000  0.000  0.000  0.046
    9  0.004  0.000  0.041  0.000  0.000  0.000  0.000  0.000  0.000  0.045
   10  0.000  0.000  0.000  0.001  0.000  0.000  0.000  0.000  0.000  0.001
tot    0.023  0.003  0.216  0.006  0.220  0.176  0.000  0.057  0.072  0.773

band    19 # energy   -6.06507252 # occ.  1.00000000

ion      s     py     pz     px    dxy    dyz    dz2    dxz  x2-y2    tot
    1  0.000  0.002  0.000  0.000  0.053  0.023  0.000  0.094  0.095  0.267
    2  0.000  0.001  0.000  0.001  0.019  0.032  0.000  0.081  0.125  0.259
    3  0.000  0.000  0.000  0.000  0.000  0.000  0.000  0.000  0.000  0.000
    4  0.000  0.001  0.000  0.000  0.000  0.002  0.000  0.001  0.000  0.004
    5  0.002  0.001  0.021  0.000  0.000  0.000  0.000  0.000  0.000  0.024
    6  0.003  0.000  0.024  0.001  0.000  0.000  0.000  0.000  0.000  0.028
    7  0.010  0.000  0.089  0.000  0.000  0.000  0.000  0.000  0.000  0.099
    8  0.001  0.001  0.013  0.000  0.000  0.000  0.000  0.000  0.000  0.015
    9  0.001  0.000  0.014  0.000  0.000  0.000  0.000  0.000  0.000  0.016
   10  0.006  0.000  0.055  0.000  0.000  0.000  0.000  0.000  0.000  0.061
tot    0.023  0.006  0.216  0.003  0.072  0.057  0.000  0.176  0.220  0.773

band    20 # energy   -5.19260285 # occ.  1.00000000

ion      s     py     pz     px    dxy    dyz    dz2    dxz  x2-y2    tot
    1  0.000  0.000  0.003  0.000  0.000  0.000  0.218  0.000  0.000  0.221
    2  0.000  0.000  0.003  0.000  0.000  0.000  0.226  0.000  0.000  0.229
    3  0.004  0.000  0.042  0.000  0.000  0.000  0.000  0.000  0.000  0.046
    4  0.001  0.000  0.016  0.000  0.000  0.000  0.005  0.000  0.000  0.022
    5  0.001  0.000  0.032  0.006  0.000  0.000  0.000  0.000  0.000  0.038
    6  0.001  0.004  0.032  0.001  0.000  0.000  0.000  0.000  0.000  0.038
    7  0.001  0.004  0.032  0.001  0.000  0.000  0.000  0.000  0.000  0.038
    8  0.000  0.000  0.025  0.002  0.000  0.000  0.000  0.000  0.000  0.027
    9  0.000  0.002  0.025  0.000  0.000  0.000  0.000  0.000  0.000  0.027
   10  0.000  0.002  0.025  0.001  0.000  0.000  0.000  0.000  0.000  0.027
tot    0.007  0.012  0.234  0.012  0.000  0.000  0.449  0.000  0.000  0.714

band    21 # energy   -4.91775112 # occ.  1.00000000

ion      s     py     pz     px    dxy    dyz    dz2    dxz  x2-y2    tot
    1  0.001  0.000  0.008  0.000  0.000  0.000  0.151  0.000  0.000  0.159
    2  0.001  0.000  0.008  0.000  0.000  0.000  0.156  0.000  0.000  0.165
    3  0.000  0.000  0.000  0.000  0.000  0.000  0.000  0.000  0.000  0.000
    4  0.009  0.000  0.026  0.000  0.000  0.000  0.000  0.000  0.000  0.035
    5  0.000  0.000  0.051  0.001  0.000  0.000  0.000  0.000  0.000  0.053
    6  0.000  0.001  0.051  0.000  0.000  0.000  0.000  0.000  0.000  0.053
    7  0.000  0.001  0.051  0.000  0.000  0.000  0.000  0.000  0.000  0.053
    8  0.001  0.000  0.044  0.001  0.000  0.000  0.000  0.000  0.000  0.047
    9  0.001  0.001  0.044  0.000  0.000  0.000  0.000  0.000  0.000  0.047
   10  0.001  0.001  0.044  0.000  0.000  0.000  0.000  0.000  0.000  0.047
tot    0.014  0.004  0.328  0.004  0.000  0.000  0.307  0.000  0.000  0.657

band    22 # energy   -4.87224285 # occ.  1.00000000

ion      s     py     pz     px    dxy    dyz    dz2    dxz  x2-y2    tot
    1  0.000  0.004  0.000  0.000  0.002  0.000  0.000  0.147  0.067  0.220
    2  0.000  0.004  0.000  0.000  0.010  0.040  0.000  0.112  0.064  0.231
    3  0.000  0.001  0.000  0.019  0.000  0.000  0.000  0.000  0.000  0.020
    4  0.000  0.001  0.000  0.014  0.000  0.000  0.000  0.000  0.001  0.016
    5  0.002  0.000  0.040  0.020  0.000  0.000  0.000  0.000  0.000  0.063
    6  0.001  0.007  0.022  0.005  0.000  0.000  0.000  0.000  0.000  0.035
    7  0.000  0.000  0.003  0.002  0.000  0.000  0.000  0.000  0.000  0.005
    8  0.006  0.000  0.064  0.032  0.000  0.000  0.000  0.000  0.000  0.102
    9  0.003  0.010  0.035  0.008  0.000  0.000  0.000  0.000  0.000  0.056
   10  0.000  0.001  0.004  0.003  0.000  0.000  0.000  0.000  0.000  0.008
tot    0.013  0.028  0.168  0.104  0.013  0.040  0.000  0.259  0.132  0.757

band    23 # energy   -4.87223135 # occ.  1.00000000

ion      s     py     pz     px    dxy    dyz    dz2    dxz  x2-y2    tot
    1  0.000  0.000  0.000  0.004  0.067  0.147  0.000  0.000  0.002  0.220
    2  0.000  0.000  0.000  0.004  0.064  0.112  0.000  0.040  0.010  0.231
    3  0.000  0.019  0.000  0.001  0.000  0.000  0.000  0.000  0.000  0.020
    4  0.000  0.014  0.000  0.001  0.001  0.000  0.000  0.000  0.000  0.016
    5  0.000  0.001  0.003  0.002  0.000  0.000  0.000  0.000  0.000  0.006
    6  0.001  0.010  0.021  0.001  0.000  0.000  0.000  0.000  0.000  0.033
    7  0.002  0.017  0.041  0.004  0.000  0.000  0.000  0.000  0.000  0.064
    8  0.000  0.001  0.005  0.002  0.000  0.000  0.000  0.000  0.000  0.009
    9  0.003  0.016  0.034  0.002  0.000  0.000  0.000  0.000  0.000  0.055
   10  0.006  0.026  0.064  0.007  0.000  0.000  0.000  0.000  0.000  0.103
tot    0.013  0.104  0.168  0.028  0.132  0.259  0.000  0.040  0.013  0.757

band    24 # energy   -4.64038817 # occ.  1.00000000

ion      s     py     pz     px    dxy    dyz    dz2    dxz  x2-y2    tot
    1  0.000  0.004  0.000  0.009  0.102  0.028  0.000  0.030  0.061  0.235
    2  0.000  0.005  0.000  0.009  0.131  0.057  0.000  0.011  0.054  0.266
    3  0.000  0.000  0.000  0.000  0.000  0.000  0.000  0.000  0.000  0.000
    4  0.000  0.000  0.000  0.000  0.001  0.000  0.000  0.000  0.001  0.003
    5  0.001  0.004  0.022  0.002  0.000  0.000  0.000  0.000  0.000  0.029
    6  0.002  0.003  0.062  0.002  0.000  0.000  0.000  0.000  0.000  0.069
    7  0.000  0.003  0.010  0.003  0.000  0.000  0.000  0.000  0.000  0.017
    8  0.001  0.008  0.024  0.002  0.000  0.000  0.000  0.000  0.000  0.034
    9  0.002  0.003  0.071  0.002  0.000  0.000  0.000  0.000  0.000  0.078
   10  0.000  0.006  0.012  0.006  0.000  0.000  0.000  0.000  0.000  0.025
tot    0.007  0.038  0.201  0.033  0.234  0.085  0.000  0.042  0.115  0.755

band    25 # energy   -4.64037825 # occ.  1.00000000

ion      s     py     pz     px    dxy    dyz    dz2    dxz  x2-y2    tot
    1  0.000  0.009  0.000  0.004  0.061  0.030  0.000  0.028  0.102  0.235
    2  0.000  0.009  0.000  0.005  0.054  0.011  0.000  0.057  0.131  0.266
    3  0.000  0.000  0.000  0.000  0.000  0.000  0.000  0.000  0.000  0.000
    4  0.000  0.000  0.000  0.000  0.001  0.000  0.000  0.000  0.001  0.003
    5  0.001  0.002  0.041  0.003  0.000  0.000  0.000  0.000  0.000  0.047
    6  0.000  0.002  0.001  0.004  0.000  0.000  0.000  0.000  0.000  0.007
    7  0.002  0.001  0.053  0.004  0.000  0.000  0.000  0.000  0.000  0.060
    8  0.001  0.004  0.047  0.003  0.000  0.000  0.000  0.000  0.000  0.057
    9  0.000  0.004  0.001  0.009  0.000  0.000  0.000  0.000  0.000  0.013
   10  0.002  0.001  0.059  0.005  0.000  0.000  0.000  0.000  0.000  0.067
tot    0.007  0.033  0.201  0.038  0.115  0.042  0.000  0.085  0.234  0.755

band    26 # energy   -4.58964572 # occ.  1.00000000

ion      s     py     pz     px    dxy    dyz    dz2    dxz  x2-y2    tot
    1  0.012  0.000  0.000  0.000  0.000  0.000  0.457  0.000  0.000  0.469
    2  0.012  0.000  0.000  0.000  0.000  0.000  0.443  0.000  0.000  0.455
    3  0.000  0.000  0.000  0.000  0.000  0.000  0.000  0.000  0.000  0.000
    4  0.000  0.000  0.000  0.000  0.000  0.000  0.000  0.000  0.000  0.000
    5  0.000  0.003  0.000  0.000  0.000  0.000  0.000  0.000  0.000  0.003
    6  0.000  0.001  0.000  0.002  0.000  0.000  0.000  0.000  0.000  0.003
    7  0.000  0.001  0.000  0.002  0.000  0.000  0.000  0.000  0.000  0.003
    8  0.000  0.003  0.000  0.000  0.000  0.000  0.000  0.000  0.000  0.003
    9  0.000  0.001  0.000  0.003  0.000  0.000  0.000  0.000  0.000  0.003
   10  0.000  0.001  0.000  0.002  0.000  0.000  0.000  0.000  0.000  0.003
tot    0.024  0.009  0.000  0.009  0.000  0.000  0.900  0.000  0.000  0.942

band    27 # energy   -4.50901774 # occ.  1.00000000

ion      s     py     pz     px    dxy    dyz    dz2    dxz  x2-y2    tot
    1  0.000  0.000  0.000  0.000  0.263  0.136  0.000  0.029  0.022  0.450
    2  0.000  0.000  0.000  0.000  0.254  0.149  0.000  0.000  0.004  0.407
    3  0.000  0.000  0.000  0.004  0.000  0.000  0.000  0.000  0.000  0.004
    4  0.000  0.001  0.000  0.014  0.000  0.000  0.000  0.000  0.000  0.015
    5  0.002  0.000  0.008  0.011  0.000  0.000  0.000  0.000  0.000  0.021
    6  0.000  0.002  0.001  0.000  0.000  0.000  0.000  0.000  0.000  0.003
    7  0.001  0.006  0.004  0.000  0.000  0.000  0.000  0.000  0.000  0.011
    8  0.002  0.000  0.004  0.004  0.000  0.000  0.000  0.000  0.000  0.010
    9  0.000  0.001  0.001  0.000  0.000  0.000  0.000  0.000  0.000  0.002
   10  0.001  0.002  0.002  0.000  0.000  0.000  0.000  0.000  0.000  0.005
tot    0.007  0.012  0.019  0.034  0.516  0.285  0.000  0.029  0.027  0.928

band    28 # energy   -4.50901483 # occ.  1.00000000

ion      s     py     pz     px    dxy    dyz    dz2    dxz  x2-y2    tot
    1  0.000  0.000  0.000  0.000  0.022  0.029  0.000  0.136  0.263  0.450
    2  0.000  0.000  0.000  0.000  0.004  0.000  0.000  0.149  0.254  0.407
    3  0.000  0.004  0.000  0.000  0.000  0.000  0.000  0.000  0.000  0.004
    4  0.000  0.014  0.000  0.001  0.000  0.000  0.000  0.000  0.000  0.015
    5  0.000  0.001  0.001  0.000  0.000  0.000  0.000  0.000  0.000  0.002
    6  0.002  0.007  0.008  0.004  0.000  0.000  0.000  0.000  0.000  0.020
    7  0.001  0.003  0.004  0.003  0.000  0.000  0.000  0.000  0.000  0.012
    8  0.000  0.001  0.000  0.000  0.000  0.000  0.000  0.000  0.000  0.001
    9  0.002  0.002  0.004  0.001  0.000  0.000  0.000  0.000  0.000  0.009
   10  0.001  0.001  0.003  0.002  0.000  0.000  0.000  0.000  0.000  0.007
tot    0.007  0.034  0.019  0.012  0.027  0.029  0.000  0.285  0.516  0.928

band    29 # energy   -3.65139883 # occ.  1.00000000

ion      s     py     pz     px    dxy    dyz    dz2    dxz  x2-y2    tot
    1  0.000  0.002  0.000  0.018  0.009  0.009  0.000  0.004  0.003  0.045
    2  0.000  0.002  0.000  0.018  0.011  0.013  0.000  0.000  0.000  0.045
    3  0.000  0.001  0.000  0.007  0.000  0.000  0.000  0.000  0.000  0.008
    4  0.000  0.001  0.000  0.010  0.000  0.000  0.000  0.001  0.004  0.016
    5  0.002  0.009  0.011  0.045  0.000  0.000  0.000  0.000  0.000  0.067
    6  0.000  0.012  0.000  0.075  0.000  0.000  0.000  0.000  0.000  0.087
    7  0.001  0.002  0.007  0.064  0.000  0.000  0.000  0.000  0.000  0.075
    8  0.003  0.013  0.023  0.059  0.000  0.000  0.000  0.000  0.000  0.099
    9  0.000  0.017  0.001  0.105  0.000  0.000  0.000  0.000  0.000  0.123
   10  0.002  0.003  0.015  0.088  0.000  0.000  0.000  0.000  0.000  0.107
tot    0.009  0.063  0.057  0.487  0.020  0.023  0.000  0.005  0.007  0.671

band    30 # energy   -3.65137006 # occ.  1.00000000

ion      s     py     pz     px    dxy    dyz    dz2    dxz  x2-y2    tot
    1  0.000  0.018  0.000  0.002  0.003  0.004  0.000  0.009  0.009  0.045
    2  0.000  0.018  0.000  0.002  0.000  0.000  0.000  0.013  0.011  0.045
    3  0.000  0.007  0.000  0.001  0.000  0.000  0.000  0.000  0.000  0.008
    4  0.000  0.010  0.000  0.001  0.004  0.001  0.000  0.000  0.000  0.016
    5  0.000  0.079  0.001  0.005  0.000  0.000  0.000  0.000  0.000  0.085
    6  0.002  0.048  0.011  0.004  0.000  0.000  0.000  0.000  0.000  0.065
    7  0.001  0.057  0.005  0.014  0.000  0.000  0.000  0.000  0.000  0.078
    8  0.000  0.110  0.003  0.007  0.000  0.000  0.000  0.000  0.000  0.120
    9  0.003  0.063  0.025  0.005  0.000  0.000  0.000  0.000  0.000  0.097
   10  0.002  0.078  0.011  0.021  0.000  0.000  0.000  0.000  0.000  0.112
tot    0.009  0.487  0.057  0.063  0.007  0.005  0.000  0.023  0.020  0.671

band    31 # energy   -3.39092904 # occ.  1.00000000

ion      s     py     pz     px    dxy    dyz    dz2    dxz  x2-y2    tot
    1  0.010  0.000  0.000  0.000  0.000  0.000  0.069  0.000  0.000  0.079
    2  0.010  0.000  0.000  0.000  0.000  0.000  0.068  0.000  0.000  0.078
    3  0.000  0.000  0.077  0.000  0.000  0.000  0.000  0.000  0.000  0.077
    4  0.004  0.000  0.139  0.000  0.000  0.000  0.008  0.000  0.000  0.151
    5  0.000  0.000  0.015  0.021  0.000  0.000  0.000  0.000  0.000  0.036
    6  0.000  0.016  0.015  0.005  0.000  0.000  0.000  0.000  0.000  0.036
    7  0.000  0.016  0.015  0.005  0.000  0.000  0.000  0.000  0.000  0.036
    8  0.000  0.000  0.029  0.015  0.000  0.000  0.000  0.000  0.000  0.045
    9  0.000  0.011  0.029  0.004  0.000  0.000  0.000  0.000  0.000  0.045