<?xml version="1.0" encoding="ISO-8859-1"?>
<modeling>
 <generator>
  <i name="program" type="string">vasp </i>
  <i name="version" type="string">5.4.4.18Apr17-6-g9f103f2a35  </i>
  <i name="subversion" type="string">(build May  1 2020 15:48:39) complex            parallel </i>
  <i name="platform" type="string">LinuxGNU </i>
  <i name="date" type="string">2020 06 21 </i>
  <i name="time" type="string">19:56:02 </i>
 </generator>
 <incar>
  <i type="int" name="ISTART">     1</i>
  <i type="string" name="PREC">accurate</i>
  <i type="string" name="ALGO"> Normal</i>
  <i type="int" name="ISPIN">     2</i>
  <i name="AMIN">      0.01000000</i>
  <i type="int" name="NELM">   400</i>
  <i type="int" name="IBRION">     2</i>
  <i name="EDIFF">      0.00010000</i>
  <i type="int" name="NSW">    99</i>
  <i type="int" name="ISIF">     3</i>
  <i name="ENCUT">    520.00000000</i>
  <v name="MAGMOM">      1.26000000      1.26000000      0.60000000      0.60000000      0.60000000      0.60000000      0.60000000      0.60000000      0.60000000      0.60000000</v>
  <i type="string" name="LREAL"> Auto</i>
  <i type="int" name="ISMEAR">    -5</i>
  <i name="SIGMA">      0.05000000</i>
  <i type="logical" name="LWAVE"> F  </i>
  <i type="int" name="LORBIT">    11</i>
  <v type="int" name="KPOINT_BSE">    -1     0     0     0</v>
  <i type="int" name="NELM">   400</i>
  <i type="string" name="GGA"> Bo</i>
  <i name="PARAM1">      0.18333333</i>
  <i name="PARAM2">      0.22000000</i>
  <i type="logical" name="LUSE_VDW"> T  </i>
  <i name="AGGAC">      0.00000000</i>
 </incar>
 <structure name="primitive_cell" >
  <crystal>
   <varray name="basis" >
    <v>       6.90777700      -0.00000000       0.00000000 </v>
    <v>       3.45388800       5.98231000       0.00000000 </v>
    <v>       0.00000000       0.00000000      23.44458800 </v>
   </varray>
   <i name="volume">    968.83501932 </i>
   <varray name="rec_basis" >
    <v>       0.14476437      -0.08357974       0.00000000 </v>
    <v>       0.00000000       0.16715951      -0.00000000 </v>
    <v>      -0.00000000       0.00000000       0.04265377 </v>
   </varray>
  </crystal>
  <varray name="positions" >
   <v>       0.33333300       0.33333300       0.49992500 </v>
   <v>       0.00042000       0.37322400      -0.42624800 </v>
   <v>      -0.37364300       0.00042000      -0.42624800 </v>
   <v>       0.37322400      -0.37364300      -0.42624800 </v>
   <v>       0.37364300      -0.00042000       0.42624800 </v>
   <v>      -0.37322400       0.37364300       0.42624800 </v>
   <v>      -0.00042000      -0.37322400       0.42624800 </v>
   <v>      -0.33333300      -0.33333300      -0.49992500 </v>
   <v>       0.00000000       0.00000000       0.44821600 </v>
   <v>       0.00000000       0.00000000      -0.44821600 </v>
  </varray>
 </structure>
 <varray name="primitive_index" >
  <v type="int" >        1 </v>
  <v type="int" >        6 </v>
  <v type="int" >        5 </v>
  <v type="int" >        7 </v>
  <v type="int" >        8 </v>
  <v type="int" >       10 </v>
  <v type="int" >        9 </v>
  <v type="int" >        2 </v>
  <v type="int" >        3 </v>
  <v type="int" >        4 </v>
 </varray>
 <kpoints>
  <generation param="Gamma">
   <v type="int" name="divisions">       5        5        1 </v>
   <v name="usershift">      0.00000000       0.00000000       0.00000000 </v>
   <v name="genvec1">      0.20000000       0.00000000       0.00000000 </v>
   <v name="genvec2">      0.00000000       0.20000000       0.00000000 </v>
   <v name="genvec3">      0.00000000       0.00000000       1.00000000 </v>
   <v name="shift">      0.00000000       0.00000000       0.00000000 </v>
  </generation>
  <varray name="kpointlist" >
   <v>       0.00000000       0.00000000       0.00000000 </v>
   <v>       0.20000000       0.00000000       0.00000000 </v>
   <v>       0.40000000       0.00000000       0.00000000 </v>
   <v>       0.40000000       0.20000000       0.00000000 </v>
   <v>      -0.40000000       0.20000000       0.00000000 </v>
  </varray>
  <varray name="weights" >
   <v>       0.04000000 </v>
   <v>       0.24000000 </v>
   <v>       0.24000000 </v>
   <v>       0.24000000 </v>
   <v>       0.24000000 </v>
  </varray>
  <varray name="tetrahedronlist"  type="int" >
   <v type="int" >        6        1        1        2        2 </v>
   <v type="int" >       12        1        2        2        2 </v>
   <v type="int" >       12        2        2        3        4 </v>
   <v type="int" >       12        2        2        2        4 </v>
   <v type="int" >       12        2        3        3        4 </v>
   <v type="int" >       12        2        3        4        4 </v>
   <v type="int" >        6        2        2        4        4 </v>
   <v type="int" >       12        3        3        3        5 </v>
   <v type="int" >       12        3        3        4        5 </v>
   <v type="int" >       12        3        4        4        5 </v>
   <v type="int" >        6        3        3        5        5 </v>
   <v type="int" >       12        3        4        5        5 </v>
   <v type="int" >        6        4        4        5        5 </v>
   <v type="int" >       12        4        5        5        5 </v>
   <v type="int" >        6        5        5        5        5 </v>
  </varray>
  <i name="volumeweight">      0.00666667 </i>
 </kpoints>
 <parameters>
  <separator name="general" >
   <i type="string" name="SYSTEM">unknown system</i>
   <i type="logical" name="LCOMPAT"> F  </i>
  </separator>
  <separator name="electronic" >
   <i type="string" name="PREC">accura</i>
   <i name="ENMAX">    520.00000000</i>
   <i name="ENAUG">    544.56500000</i>
   <i name="EDIFF">      0.00010000</i>
   <i type="int" name="IALGO">    38</i>
   <i type="int" name="IWAVPR">    11</i>
   <i type="int" name="NBANDS">    48</i>
   <i name="NELECT">     64.00000000</i>
   <i type="int" name="TURBO">     0</i>
   <i type="int" name="IRESTART">     0</i>
   <i type="int" name="NREBOOT">     0</i>
   <i type="int" name="NMIN">     0</i>
   <i name="EREF">      0.00000000</i>
   <separator name="electronic smearing" >
    <i type="int" name="ISMEAR">    -5</i>
    <i name="SIGMA">      0.05000000</i>
    <i name="KSPACING">      0.50000000</i>
    <i type="logical" name="KGAMMA"> T  </i>
   </separator>
   <separator name="electronic projectors" >
    <i type="logical" name="LREAL"> T  </i>
    <v name="ROPT">     -0.00025000     -0.00025000     -0.00025000     -0.00025000</v>
    <i type="int" name="LMAXPAW">  -100</i>
    <i type="int" name="LMAXMIX">     2</i>
    <i type="logical" name="NLSPLINE"> F  </i>
   </separator>
   <separator name="electronic startup" >
    <i type="int" name="ISTART">     0</i>
    <i type="int" name="ICHARG">     2</i>
    <i type="int" name="INIWAV">     1</i>
   </separator>
   <separator name="electronic spin" >
    <i type="int" name="ISPIN">     2</i>
    <i type="logical" name="LNONCOLLINEAR"> F  </i>
    <v name="MAGMOM">      1.26000000      1.26000000      0.60000000      0.60000000      0.60000000      0.60000000      0.60000000      0.60000000      0.60000000      0.60000000</v>
    <i name="NUPDOWN">     -1.00000000</i>
    <i type="logical" name="LSORBIT"> F  </i>
    <v name="SAXIS">      0.00000000      0.00000000      1.00000000</v>
    <i type="logical" name="LSPIRAL"> F  </i>
    <v name="QSPIRAL">      0.00000000      0.00000000      0.00000000</v>
    <i type="logical" name="LZEROZ"> F  </i>
   </separator>
   <separator name="electronic exchange-correlation" >
    <i type="logical" name="LASPH"> F  </i>
    <i type="logical" name="LMETAGGA"> F  </i>
   </separator>
   <separator name="electronic convergence" >
    <i type="int" name="NELM">   400</i>
    <i type="int" name="NELMDL">     0</i>
    <i type="int" name="NELMIN">     2</i>
    <i name="ENINI">    520.00000000</i>
    <separator name="electronic convergence detail" >
     <i type="logical" name="LDIAG"> T  </i>
     <i type="logical" name="LSUBROT"> F  </i>
     <i name="WEIMIN">      0.00100000</i>
     <i name="EBREAK">      0.00000052</i>
     <i name="DEPER">      0.30000000</i>
     <i type="int" name="NRMM">     4</i>
     <i name="TIME">      0.40000000</i>
    </separator>
   </separator>
   <separator name="electronic mixer" >
    <i name="AMIX">      0.40000000</i>
    <i name="BMIX">      1.00000000</i>
    <i name="AMIN">      0.01000000</i>
    <i name="AMIX_MAG">      1.60000000</i>
    <i name="BMIX_MAG">      1.00000000</i>
    <separator name="electronic mixer details" >
     <i type="int" name="IMIX">     4</i>
     <i type="logical" name="MIXFIRST"> F  </i>
     <i type="int" name="MAXMIX">   -45</i>
     <i name="WC">    100.00000000</i>
     <i type="int" name="INIMIX">     1</i>
     <i type="int" name="MIXPRE">     1</i>
     <i type="int" name="MREMOVE">     5</i>
    </separator>
   </separator>
   <separator name="electronic dipolcorrection" >
    <i type="logical" name="LDIPOL"> F  </i>
    <i type="logical" name="LMONO"> F  </i>
    <i type="int" name="IDIPOL">     0</i>
    <i name="EPSILON">      1.00000000</i>
    <v name="DIPOL">   -100.00000000   -100.00000000   -100.00000000</v>
    <i name="EFIELD">      0.00000000</i>
   </separator>
  </separator>
  <separator name="grids" >
   <i type="int" name="NGX">    54</i>
   <i type="int" name="NGY">    54</i>
   <i type="int" name="NGZ">   180</i>
   <i type="int" name="NGXF">   108</i>
   <i type="int" name="NGYF">   108</i>
   <i type="int" name="NGZF">   360</i>
   <i type="logical" name="ADDGRID"> F  </i>
  </separator>
  <separator name="ionic" >
   <i type="int" name="NSW">    99</i>
   <i type="int" name="IBRION">     2</i>
   <i type="int" name="MDALGO">     0</i>
   <i type="int" name="ISIF">     3</i>
   <i name="PSTRESS">      0.00000000</i>
   <i name="EDIFFG">      0.00100000</i>
   <i type="int" name="NFREE">     1</i>
   <i name="POTIM">      0.50000000</i>
   <i name="SMASS">     -3.00000000</i>
   <i name="SCALEE">      1.00000000</i>
  </separator>
  <separator name="ionic md" >
   <i name="TEBEG">      0.00010000</i>
   <i name="TEEND">      0.00010000</i>
   <i type="int" name="NBLOCK">     1</i>
   <i type="int" name="KBLOCK">    99</i>
   <i type="int" name="NPACO">   256</i>
   <i name="APACO">     16.00000000</i>
  </separator>
  <separator name="symmetry" >
   <i type="int" name="ISYM">     2</i>
   <i name="SYMPREC">      0.00001000</i>
  </separator>
  <separator name="dos" >
   <i type="int" name="LORBIT">    11</i>
   <v name="RWIGS">     -1.00000000     -1.00000000     -1.00000000     -1.00000000</v>
   <i type="int" name="NEDOS">   301</i>
   <i name="EMIN">     10.00000000</i>
   <i name="EMAX">    -10.00000000</i>
   <i name="EFERMI">      0.00000000</i>
  </separator>
  <separator name="writing" >
   <i type="int" name="NWRITE">     2</i>
   <i type="logical" name="LWAVE"> F  </i>
   <i type="logical" name="LDOWNSAMPLE"> F  </i>
   <i type="logical" name="LCHARG"> T  </i>
   <i type="logical" name="LPARD"> F  </i>
   <i type="logical" name="LVTOT"> F  </i>
   <i type="logical" name="LVHAR"> F  </i>
   <i type="logical" name="LELF"> F  </i>
   <i type="logical" name="LOPTICS"> F  </i>
   <v name="STM">      0.00000000      0.00000000      0.00000000      0.00000000      0.00000000      0.00000000      0.00000000</v>
  </separator>
  <separator name="performance" >
   <i type="int" name="NPAR">    16</i>
   <i type="int" name="NSIM">     4</i>
   <i type="int" name="NBLK">    -1</i>
   <i type="logical" name="LPLANE"> T  </i>
   <i type="logical" name="LSCALAPACK"> T  </i>
   <i type="logical" name="LSCAAWARE"> F  </i>
   <i type="logical" name="LSCALU"> F  </i>
   <i type="logical" name="LASYNC"> F  </i>
   <i type="logical" name="LORBITALREAL"> F  </i>
  </separator>
  <separator name="miscellaneous" >
   <i type="int" name="IDIOT">     3</i>
   <i type="int" name="ISPECIAL">     0</i>
   <i type="logical" name="LMUSIC"> F  </i>
   <v name="POMASS">     58.69000000     28.08500000     72.61000000     32.06600000</v>
   <v name="DARWINR">      0.00000000      0.00000000      0.00000000      0.00000000</v>
   <v name="DARWINV">      1.00000000      1.00000000      1.00000000      1.00000000</v>
   <i type="logical" name="LCORR"> T  </i>
  </separator>
  <i type="logical" name="GGA_COMPAT"> T  </i>
  <i type="logical" name="LBERRY"> F  </i>
  <i type="int" name="ICORELEVEL">     0</i>
  <i type="logical" name="LDAU"> F  </i>
  <i type="int" name="I_CONSTRAINED_M">     0</i>
  <separator name="electronic exchange-correlation" >
   <i type="string" name="GGA">BO</i>
   <i type="int" name="VOSKOWN">     0</i>
   <i type="logical" name="LHFCALC"> F  </i>
   <i type="string" name="PRECFOCK"></i>
   <i type="logical" name="LSYMGRAD"> F  </i>
   <i type="logical" name="LHFONE"> F  </i>
   <i type="logical" name="LRHFCALC"> F  </i>
   <i type="logical" name="LTHOMAS"> F  </i>
   <i type="logical" name="LMODELHF"> F  </i>
   <i name="ENCUT4O">     -1.00000000</i>
   <i type="int" name="EXXOEP">     0</i>
   <i type="int" name="FOURORBIT">     0</i>
   <i name="AEXX">      0.00000000</i>
   <i name="HFALPHA">      0.00000000</i>
   <i name="MCALPHA">      0.00000000</i>
   <i name="ALDAX">      1.00000000</i>
   <i name="AGGAX">      1.00000000</i>
   <i name="ALDAC">      1.00000000</i>
   <i name="AGGAC">      0.00000000</i>
   <i type="int" name="NKREDX">     1</i>
   <i type="int" name="NKREDY">     1</i>
   <i type="int" name="NKREDZ">     1</i>
   <i type="logical" name="SHIFTRED"> F  </i>
   <i type="logical" name="ODDONLY"> F  </i>
   <i type="logical" name="EVENONLY"> F  </i>
   <i type="int" name="LMAXFOCK">     0</i>
   <i type="int" name="NMAXFOCKAE">     0</i>
   <i type="logical" name="LFOCKAEDFT"> F  </i>
   <i name="HFSCREEN">      0.00000000</i>
   <i name="HFSCREENC">      0.00000000</i>
   <i type="int" name="NBANDSGWLOW">     0</i>
  </separator>
  <separator name="vdW DFT" >
   <i type="logical" name="LUSE_VDW"> T  </i>
   <i name="Zab_VDW">     -0.84910000</i>
   <i name="PARAM1">      0.18333333</i>
   <i name="PARAM2">      0.22000000</i>
   <i name="PARAM3">      0.00000000</i>
  </separator>
  <separator name="model GW" >
   <i type="int" name="MODEL_GW">     0</i>
   <i name="MODEL_EPS0">     58.13010116</i>
   <i name="MODEL_ALPHA">      1.00000000</i>
  </separator>
  <separator name="linear response parameters" >
   <i type="logical" name="LEPSILON"> F  </i>
   <i type="logical" name="LRPA"> F  </i>
   <i type="logical" name="LNABLA"> F  </i>
   <i type="logical" name="LVEL"> F  </i>
   <i type="int" name="KINTER">     0</i>
   <i name="CSHIFT">      0.10000000</i>
   <i name="OMEGAMAX">     -1.00000000</i>
   <i name="DEG_THRESHOLD">      0.00200000</i>
   <i name="RTIME">     -0.10000000</i>
   <i name="WPLASMAI">      0.00000000</i>
   <v name="DFIELD">      0.00000000      0.00000000      0.00000000</v>
   <v name="WPLASMA">      0.00000000      0.00000000      0.00000000      0.00000000      0.00000000      0.00000000      0.00000000      0.00000000      0.00000000</v>
  </separator>
  <separator name="orbital magnetization" >
   <i type="logical" name="NUCIND"> F  </i>
   <v name="MAGPOS">      0.00000000      0.00000000      0.00000000</v>
   <i type="logical" name="LNICSALL"> T  </i>
   <i type="logical" name="ORBITALMAG"> F  </i>
   <i type="logical" name="LMAGBLOCH"> F  </i>
   <i type="logical" name="LCHIMAG"> F  </i>
   <i type="logical" name="LGAUGE"> T  </i>
   <i type="int" name="MAGATOM">     0</i>
   <v name="MAGDIPOL">      0.00000000      0.00000000      0.00000000</v>
   <v name="AVECCONST">      0.00000000      0.00000000      0.00000000</v>
  </separator>
  <separator name="response functions" >
   <i type="logical" name="LADDER"> F  </i>
   <i type="logical" name="LRPAFORCE"> F  </i>
   <i type="logical" name="LFXC"> F  </i>
   <i type="logical" name="LHARTREE"> T  </i>
   <i type="int" name="IBSE">     0</i>
   <v type="int" name="KPOINT">    -1     0     0     0</v>
   <i type="logical" name="LTCTE"> F  </i>
   <i type="logical" name="LTETE"> F  </i>
   <i type="logical" name="LTRIPLET"> F  </i>
   <i type="logical" name="LFXCEPS"> F  </i>
   <i type="logical" name="LFXHEG"> F  </i>
   <i type="int" name="NATURALO">     2</i>
   <i type="logical" name="L2ORDER"> F  </i>
   <i type="logical" name="LMP2LT"> F  </i>
   <i type="logical" name="LUSEW"> F  </i>
   <i name="ENCUTGW">     -2.00000000</i>
   <i name="ENCUTGWSOFT">     -2.00000000</i>
   <i name="ENCUTLF">     -1.00000000</i>
   <i type="int" name="LMAXMP2">    -1</i>
   <i name="SCISSOR">      0.00000000</i>
   <i type="int" name="NOMEGA">     0</i>
   <i type="int" name="NOMEGAR">     0</i>
   <i type="int" name="NBANDSGW">    -1</i>
   <i type="int" name="NBANDSO">    -1</i>
   <i type="int" name="NBANDSV">    -1</i>
   <i type="int" name="NELM">   400</i>
   <i type="int" name="NELMHF">     1</i>
   <i type="int" name="DIM">     3</i>
   <i type="int" name="ANTIRES">     0</i>
   <i name="OMEGAMAX">    -30.00000000</i>
   <i name="OMEGAMIN">    -30.00000000</i>
   <i name="OMEGATL">   -200.00000000</i>
   <i type="int" name="OMEGAGRID">   140</i>
   <i name="CSHIFT">     -0.10000000</i>
   <i type="logical" name="SELFENERGY"> F  </i>
   <i type="logical" name="LSPECTRAL"> F  </i>
   <i type="logical" name="LSPECTRALGW"> F  </i>
   <i type="logical" name="LSINGLES"> F  </i>
   <i type="logical" name="LFERMIGW"> F  </i>
   <i type="logical" name="ODDONLYGW"> F  </i>
   <i type="logical" name="EVENONLYGW"> F  </i>
   <i type="int" name="NKREDLFX">     1</i>
   <i type="int" name="NKREDLFY">     1</i>
   <i type="int" name="NKREDLFZ">     1</i>
   <i type="int" name="MAXMEM">  2800</i>
   <i type="int" name="TELESCOPE">     0</i>
   <i type="int" name="TAUPAR">     1</i>
   <i type="int" name="OMEGAPAR">    -1</i>
   <i name="LAMBDA">      1.00000000</i>
  </separator>
  <separator name="External order field" >
   <i name="OFIELD_KAPPA">      0.00000000</i>
   <v name="OFIELD_K">      0.00000000      0.00000000      0.00000000</v>
   <i name="OFIELD_Q6_NEAR">      0.00000000</i>
   <i name="OFIELD_Q6_FAR">      0.00000000</i>
   <i name="OFIELD_A">      0.00000000</i>
  </separator>
 </parameters>
 <atominfo>
  <atoms>      10 </atoms>
  <types>       4 </types>
  <array name="atoms" >
   <dimension dim="1">ion</dimension>
   <field type="string">element</field>
   <field type="int">atomtype</field>
   <set>
    <rc><c>Ni</c><c>   1</c></rc>
    <rc><c>Ni</c><c>   1</c></rc>
    <rc><c>Si</c><c>   2</c></rc>
    <rc><c>Ge</c><c>   3</c></rc>
    <rc><c>S </c><c>   4</c></rc>
    <rc><c>S </c><c>   4</c></rc>
    <rc><c>S </c><c>   4</c></rc>
    <rc><c>S </c><c>   4</c></rc>
    <rc><c>S </c><c>   4</c></rc>
    <rc><c>S </c><c>   4</c></rc>
   </set>
  </array>
  <array name="atomtypes" >
   <dimension dim="1">type</dimension>
   <field type="int">atomspertype</field>
   <field type="string">element</field>
   <field>mass</field>
   <field>valence</field>
   <field type="string">pseudopotential</field>
   <set>
    <rc><c>   2</c><c>Ni</c><c>     58.69000000</c><c>     10.00000000</c><c> PAW_PBE Ni 06Sep2000                   </c></rc>
    <rc><c>   1</c><c>Si</c><c>     28.08500000</c><c>      4.00000000</c><c> PAW_PBE Si 05Jan2001                   </c></rc>
    <rc><c>   1</c><c>Ge</c><c>     72.61000000</c><c>      4.00000000</c><c> PAW_PBE Ge 05Jan2001                   </c></rc>
    <rc><c>   6</c><c>S </c><c>     32.06600000</c><c>      6.00000000</c><c>  PAW_PBE S 17Jan2003                   </c></rc>
   </set>
  </array>
 </atominfo>
 <structure name="initialpos" >
  <crystal>
   <varray name="basis" >
    <v>       6.90777700      -0.00000000       0.00000000 </v>
    <v>       3.45388800       5.98231000       0.00000000 </v>
    <v>       0.00000000       0.00000000      23.44458800 </v>
   </varray>
   <i name="volume">    968.83501932 </i>
   <varray name="rec_basis" >
    <v>       0.14476437      -0.08357974       0.00000000 </v>
    <v>       0.00000000       0.16715951      -0.00000000 </v>
    <v>      -0.00000000       0.00000000       0.04265377 </v>
   </varray>
  </crystal>
  <varray name="positions" >
   <v>       0.33333300       0.33333300       0.49992500 </v>
   <v>       0.66666700       0.66666700       0.50007500 </v>
   <v>       0.00000000       0.00000000       0.44821600 </v>
   <v>       0.00000000       0.00000000       0.55178400 </v>
   <v>       0.62635700       0.00042000       0.57375200 </v>
   <v>       0.00042000       0.37322400       0.57375200 </v>
   <v>       0.37322400       0.62635700       0.57375200 </v>
   <v>       0.37364300       0.99958000       0.42624800 </v>
   <v>       0.99958000       0.62677600       0.42624800 </v>
   <v>       0.62677600       0.37364300       0.42624800 </v>
  </varray>
  <varray name="selective"  type="logical" >
   <v type="logical" >  T  T  T </v>
   <v type="logical" >  T  T  T </v>
   <v type="logical" >  T  T  T </v>
   <v type="logical" >  F  F  F </v>
   <v type="logical" >  T  T  T </v>
   <v type="logical" >  T  T  T </v>
   <v type="logical" >  T  T  T </v>
   <v type="logical" >  T  T  T </v>
   <v type="logical" >  T  T  T </v>
   <v type="logical" >  T  T  T </v>
  </varray>
  <nose>
   <v>      -3.00000000       0.00000000       0.00010000       0.00010000 </v>
  </nose>
 </structure>
 <calculation>
  <scstep>
   <time name="dav">   22.32   22.64</time>
   <time name="total">   74.88   75.74</time>
   <energy>
    <i name="alphaZ">     27.00337869 </i>
    <i name="ewald">   8065.03639907 </i>
    <i name="hartreedc"> -11704.37651216 </i>
    <i name="XCdc">    109.28507720 </i>
    <i name="pawpsdc">   2410.24412492 </i>
    <i name="pawaedc">  -2487.53356943 </i>
    <i name="eentropy">      0.00000000 </i>
    <i name="bandstr">    -48.06652694 </i>
    <i name="atom">   4040.26366069 </i>
    <i name="e_fr_energy">    411.85603204 </i>
    <i name="e_wo_entrp">    411.85603204 </i>
    <i name="e_0_energy">    411.85603204 </i>
   </energy>
  </scstep>
  <scstep>
   <time name="dav">   32.86   33.58</time>
   <time name="total">   32.87   33.59</time>
   <energy>
    <i name="e_fr_energy">     31.72228474 </i>
    <i name="e_wo_entrp">     31.72228474 </i>
    <i name="e_0_energy">     31.72228474 </i>
   </energy>
  </scstep>
  <scstep>
   <time name="dav">   27.05   28.57</time>
   <time name="total">   27.06   28.58</time>
   <energy>
    <i name="e_fr_energy">    -40.59128962 </i>
    <i name="e_wo_entrp">    -40.59128962 </i>
    <i name="e_0_energy">    -40.59128962 </i>
   </energy>
  </scstep>
  <scstep>
   <time name="dav">   26.84   26.96</time>
   <time name="total">   26.84   26.97</time>
   <energy>
    <i name="e_fr_energy">    -43.42243013 </i>
    <i name="e_wo_entrp">    -43.42243013 </i>
    <i name="e_0_energy">    -43.42243013 </i>
   </energy>
  </scstep>
  <scstep>
   <time name="dav">   29.11   29.20</time>
   <time name="total">   31.29   31.38</time>
   <energy>
    <i name="e_fr_energy">    -43.50459801 </i>
    <i name="e_wo_entrp">    -43.50459801 </i>
    <i name="e_0_energy">    -43.50459801 </i>
   </energy>
  </scstep>
  <scstep>
   <time name="dav">   29.93   30.55</time>
   <time name="total">   84.46   85.56</time>
   <energy>
    <i name="e_fr_energy">   -103.40413369 </i>
    <i name="e_wo_entrp">   -103.40413369 </i>
    <i name="e_0_energy">   -103.40413369 </i>
   </energy>
  </scstep>
  <scstep>
   <time name="dav">   31.61   31.93</time>
   <time name="total">   85.86   86.35</time>
   <energy>
    <i name="e_fr_energy">    -54.23728633 </i>
    <i name="e_wo_entrp">    -54.23728633 </i>
    <i name="e_0_energy">    -54.23728633 </i>
   </energy>
  </scstep>
  <scstep>
   <time name="dav">   25.30   25.55</time>
   <time name="total">   78.28   78.89</time>
   <energy>
    <i name="e_fr_energy">    -43.27389469 </i>
    <i name="e_wo_entrp">    -43.27389469 </i>
    <i name="e_0_energy">    -43.27389469 </i>
   </energy>
  </scstep>
  <scstep>
   <time name="dav">   25.41   25.53</time>
   <time name="total">   78.30   78.63</time>
   <energy>
    <i name="e_fr_energy">    -36.64816981 </i>
    <i name="e_wo_entrp">    -36.64816981 </i>
    <i name="e_0_energy">    -36.64816981 </i>
   </energy>
  </scstep>
  <scstep>
   <time name="dav">   32.77   32.96</time>
   <time name="total">   85.87   86.32</time>
   <energy>
    <i name="e_fr_energy">    -35.12249622 </i>
    <i name="e_wo_entrp">    -35.12249622 </i>
    <i name="e_0_energy">    -35.12249622 </i>
   </energy>
  </scstep>
  <scstep>
   <time name="dav">   24.95   25.17</time>
   <time name="total">   78.65   79.01</time>
   <energy>
    <i name="e_fr_energy">    -35.10031465 </i>
    <i name="e_wo_entrp">    -35.10031465 </i>
    <i name="e_0_energy">    -35.10031465 </i>
   </energy>
  </scstep>
  <scstep>
   <time name="dav">   31.03   31.12</time>
   <time name="total">   84.03   84.27</time>
   <energy>
    <i name="e_fr_energy">    -35.12636455 </i>
    <i name="e_wo_entrp">    -35.12636455 </i>
    <i name="e_0_energy">    -35.12636455 </i>
   </energy>
  </scstep>
  <scstep>
   <time name="dav">   26.66   26.77</time>
   <time name="total">   79.38   79.94</time>
   <energy>
    <i name="e_fr_energy">    -35.30202058 </i>
    <i name="e_wo_entrp">    -35.30202058 </i>
    <i name="e_0_energy">    -35.30202058 </i>
   </energy>
  </scstep>
  <scstep>
   <time name="dav">   26.20   26.29</time>
   <time name="total">   79.09   79.38</time>
   <energy>
    <i name="e_fr_energy">    -35.72818394 </i>
    <i name="e_wo_entrp">    -35.72818394 </i>
    <i name="e_0_energy">    -35.72818394 </i>
   </energy>
  </scstep>
  <scstep>
   <time name="dav">   30.58   30.75</time>
   <time name="total">   83.64   84.06</time>
   <energy>
    <i name="e_fr_energy">    -35.67929847 </i>
    <i name="e_wo_entrp">    -35.67929847 </i>
    <i name="e_0_energy">    -35.67929847 </i>
   </energy>
  </scstep>
  <scstep>
   <time name="dav">   30.20   30.64</time>
   <time name="total">   83.14   83.79</time>
   <energy>
    <i name="e_fr_energy">    -35.26623804 </i>
    <i name="e_wo_entrp">    -35.26623804 </i>
    <i name="e_0_energy">    -35.26623804 </i>
   </energy>
  </scstep>
  <scstep>
   <time name="dav">   26.24   26.51</time>
   <time name="total">   79.33   79.69</time>
   <energy>
    <i name="e_fr_energy">    -35.29889323 </i>
    <i name="e_wo_entrp">    -35.29889323 </i>
    <i name="e_0_energy">    -35.29889323 </i>
   </energy>
  </scstep>
  <scstep>
   <time name="dav">   30.06   30.40</time>
   <time name="total">   82.95   83.75</time>
   <energy>
    <i name="e_fr_energy">    -35.34620866 </i>
    <i name="e_wo_entrp">    -35.34620866 </i>
    <i name="e_0_energy">    -35.34620866 </i>
   </energy>
  </scstep>
  <scstep>
   <time name="dav">   29.45   29.66</time>
   <time name="total">   82.49   82.85</time>
   <energy>
    <i name="e_fr_energy">    -35.41731272 </i>
    <i name="e_wo_entrp">    -35.41731272 </i>
    <i name="e_0_energy">    -35.41731272 </i>
   </energy>
  </scstep>
  <scstep>
   <time name="dav">   31.18   31.35</time>
   <time name="total">   84.04   84.55</time>
   <energy>
    <i name="e_fr_energy">    -35.44367550 </i>
    <i name="e_wo_entrp">    -35.44367550 </i>
    <i name="e_0_energy">    -35.44367550 </i>
   </energy>
  </scstep>
  <scstep>
   <time name="dav">   29.62   29.98</time>
   <time name="total">   82.58   83.17</time>
   <energy>
    <i name="e_fr_energy">    -35.45560951 </i>
    <i name="e_wo_entrp">    -35.45560951 </i>
    <i name="e_0_energy">    -35.45560951 </i>
   </energy>
  </scstep>
  <scstep>
   <time name="dav">   28.08   28.28</time>
   <time name="total">   80.89   81.40</time>
   <energy>
    <i name="e_fr_energy">    -35.43517768 </i>
    <i name="e_wo_entrp">    -35.43517768 </i>
    <i name="e_0_energy">    -35.43517768 </i>
   </energy>
  </scstep>
  <scstep>
   <time name="dav">   24.17   24.44</time>
   <time name="total">   76.81   77.73</time>
   <energy>
    <i name="e_fr_energy">    -35.42783565 </i>
    <i name="e_wo_entrp">    -35.42783565 </i>
    <i name="e_0_energy">    -35.42783565 </i>
   </energy>
  </scstep>
  <scstep>
   <time name="dav">   22.68   22.88</time>
   <time name="total">   75.72   76.23</time>
   <energy>
    <i name="e_fr_energy">    -35.43025146 </i>
    <i name="e_wo_entrp">    -35.43025146 </i>
    <i name="e_0_energy">    -35.43025146 </i>
   </energy>
  </scstep>
  <scstep>
   <time name="dav">   23.30   23.51</time>
   <time name="total">   76.25   76.81</time>
   <energy>
    <i name="e_fr_energy">    -35.42850510 </i>
    <i name="e_wo_entrp">    -35.42850510 </i>
    <i name="e_0_energy">    -35.42850510 </i>
   </energy>
  </scstep>
  <scstep>
   <time name="dav">   24.94   25.13</time>
   <time name="total">   78.01   78.43</time>
   <energy>
    <i name="e_fr_energy">    -35.43006650 </i>
    <i name="e_wo_entrp">    -35.43006650 </i>
    <i name="e_0_energy">    -35.43006650 </i>
   </energy>
  </scstep>
  <scstep>
   <time name="dav">   24.81   24.96</time>
   <time name="total">   77.77   78.24</time>
   <energy>
    <i name="e_fr_energy">    -35.43114592 </i>
    <i name="e_wo_entrp">    -35.43114592 </i>
    <i name="e_0_energy">    -35.43114592 </i>
   </energy>
  </scstep>
  <scstep>
   <time name="dav">   25.68   25.99</time>
   <time name="total">   78.60   79.21</time>
   <energy>
    <i name="e_fr_energy">    -35.43356485 </i>
    <i name="e_wo_entrp">    -35.43356485 </i>
    <i name="e_0_energy">    -35.43356485 </i>
   </energy>
  </scstep>
  <scstep>
   <time name="dav">   23.46   23.65</time>
   <time name="total">   76.64   77.08</time>
   <energy>
    <i name="e_fr_energy">    -35.43547471 </i>
    <i name="e_wo_entrp">    -35.43547471 </i>
    <i name="e_0_energy">    -35.43547471 </i>
   </energy>
  </scstep>
  <scstep>
   <time name="dav">   23.18   23.32</time>
   <time name="total">   76.14   76.54</time>
   <energy>
    <i name="e_fr_energy">    -35.43661072 </i>
    <i name="e_wo_entrp">    -35.43661072 </i>
    <i name="e_0_energy">    -35.43661072 </i>
   </energy>
  </scstep>
  <scstep>
   <time name="dav">   23.81   24.01</time>
   <time name="total">   76.98   77.32</time>
   <energy>
    <i name="e_fr_energy">    -35.43696834 </i>
    <i name="e_wo_entrp">    -35.43696834 </i>
    <i name="e_0_energy">    -35.43696834 </i>
   </energy>
  </scstep>
  <scstep>
   <time name="dav">   20.22   20.44</time>
   <time name="total">   73.70   74.02</time>
   <energy>
    <i name="e_fr_energy">    -35.43715825 </i>
    <i name="e_wo_entrp">    -35.43715825 </i>
    <i name="e_0_energy">    -35.43715825 </i>
   </energy>
  </scstep>
  <scstep>
   <time name="dav">   20.68   20.79</time>
   <time name="total">   71.43   71.85</time>
   <energy>
    <i name="alphaZ">     27.00337869 </i>
    <i name="ewald">   8065.03639907 </i>
    <i name="hartreedc"> -11676.13413288 </i>
    <i name="XCdc">    108.83604015 </i>
    <i name="pawpsdc">   2372.14848013 </i>
    <i name="pawaedc">  -2450.06162861 </i>
    <i name="eentropy">      0.00000000 </i>
    <i name="bandstr">   -522.52927884 </i>
    <i name="atom">   4040.26366069 </i>
    <i name="e_fr_energy">    -35.43708159 </i>
    <i name="e_wo_entrp">    -35.43708159 </i>
    <i name="e_0_energy">    -35.43708159 </i>
   </energy>
  </scstep>
  <structure>
   <crystal>
    <varray name="basis" >
     <v>       6.90777700      -0.00000000       0.00000000 </v>
     <v>       3.45388800       5.98231000       0.00000000 </v>
     <v>       0.00000000       0.00000000      23.44458800 </v>
    </varray>
    <i name="volume">    968.83501932 </i>
    <varray name="rec_basis" >
     <v>       0.14476437      -0.08357974       0.00000000 </v>
     <v>       0.00000000       0.16715951      -0.00000000 </v>
     <v>      -0.00000000       0.00000000       0.04265377 </v>
    </varray>
   </crystal>
   <varray name="positions" >
    <v>       0.33333300       0.33333300       0.49992500 </v>
    <v>       0.66666700       0.66666700       0.50007500 </v>
    <v>       0.00000000       0.00000000       0.44821600 </v>
    <v>       0.00000000       0.00000000       0.55178400 </v>
    <v>       0.62635700       0.00042000       0.57375200 </v>
    <v>       0.00042000       0.37322400       0.57375200 </v>
    <v>       0.37322400       0.62635700       0.57375200 </v>
    <v>       0.37364300       0.99958000       0.42624800 </v>
    <v>       0.99958000       0.62677600       0.42624800 </v>
    <v>       0.62677600       0.37364300       0.42624800 </v>
   </varray>
  </structure>
  <varray name="forces" >
   <v>       0.00000000       0.00000000       0.04231648 </v>
   <v>       0.00000000       0.00000000       0.01968939 </v>
   <v>       0.00000000       0.00000000      -0.87070752 </v>
   <v>      -0.00000000       0.00000000       0.57619073 </v>
   <v>       0.87025270      -0.00333876      -1.58586296 </v>
   <v>      -0.43801774      -0.75199152      -1.58586296 </v>
   <v>      -0.43223496       0.75533028      -1.58586296 </v>
   <v>      -1.37134371       0.00393029       1.66336660 </v>
   <v>       0.68907549       1.18565328       1.66336660 </v>
   <v>       0.68226823      -1.18958356       1.66336660 </v>
  </varray>
  <varray name="stress" >
   <v>     -48.25821257       0.00000775       0.00000000 </v>
   <v>       0.00000031     -48.25820667      -0.00000000 </v>
   <v>      -0.00000000      -0.00000000     -24.78062172 </v>
  </varray>
  <energy>
   <i name="e_fr_energy">    -35.43708159 </i>
   <i name="e_wo_entrp">    -35.43708159 </i>
   <i name="e_0_energy">      0.00000000 </i>
  </energy>
  <time name="totalsc"> 2571.82 2589.59</time>
 </calculation>
 <calculation>
  <scstep>
   <time name="dav">   30.28   30.84</time>
   <time name="total">   84.36   85.31</time>
   <energy>
    <i name="alphaZ">     39.42735850 </i>
    <i name="ewald">  10728.73539507 </i>
    <i name="hartreedc"> -14761.32971300 </i>
    <i name="XCdc">    133.89991300 </i>
    <i name="pawpsdc">   2372.13549285 </i>
    <i name="pawaedc">  -2450.04761659 </i>
    <i name="eentropy">      0.00000000 </i>
    <i name="bandstr">   -263.09315677 </i>
    <i name="atom">   4040.26366069 </i>
    <i name="e_fr_energy">   -160.00866626 </i>
    <i name="e_wo_entrp">   -160.00866626 </i>
    <i name="e_0_energy">   -160.00866626 </i>
   </energy>
  </scstep>
  <scstep>
   <time name="dav">   33.64   33.93</time>
   <time name="total">   87.83   88.45</time>
   <energy>
    <i name="e_fr_energy">   -354.17814149 </i>
    <i name="e_wo_entrp">   -354.17814149 </i>
    <i name="e_0_energy">   -354.17814149 </i>
   </energy>
  </scstep>
  <scstep>
   <time name="dav">   26.90   27.09</time>
   <time name="total">   81.02   81.50</time>
   <energy>
    <i name="e_fr_energy">    -77.28259084 </i>
    <i name="e_wo_entrp">    -77.28259084 </i>
    <i name="e_0_energy">    -77.28259084 </i>
   </energy>
  </scstep>
  <scstep>
   <time name="dav">   32.63   33.02</time>
   <time name="total">   86.39   87.27</time>
   <energy>
    <i name="e_fr_energy">    -55.36587676 </i>
    <i name="e_wo_entrp">    -55.36587676 </i>
    <i name="e_0_energy">    -55.36587676 </i>
   </energy>
  </scstep>
  <scstep>
   <time name="dav">   34.09   34.35</time>
   <time name="total">   88.20   88.75</time>
   <energy>
    <i name="e_fr_energy">   -104.56872911 </i>
    <i name="e_wo_entrp">   -104.56872911 </i>
    <i name="e_0_energy">   -104.56872911 </i>
   </energy>
  </scstep>
  <scstep>
   <time name="dav">   31.72   32.05</time>
   <time name="total">   85.86   86.40</time>
   <energy>
    <i name="e_fr_energy">   -408.15578856 </i>
    <i name="e_wo_entrp">   -408.15578856 </i>
    <i name="e_0_energy">   -408.15578856 </i>
   </energy>
  </scstep>
  <scstep>
   <time name="dav">   29.78   29.89</time>
   <time name="total">   83.76   84.00</time>
   <energy>
    <i name="e_fr_energy">    -41.91676988 </i>
    <i name="e_wo_entrp">    -41.91676988 </i>
    <i name="e_0_energy">    -41.91676988 </i>
   </energy>
  </scstep>
  <scstep>
   <time name="dav">   29.57   29.76</time>
   <time name="total">   83.56   83.87</time>
   <energy>
    <i name="e_fr_energy">    -42.77747203 </i>
    <i name="e_wo_entrp">    -42.77747203 </i>
    <i name="e_0_energy">    -42.77747203 </i>
   </energy>
  </scstep>
  <scstep>
   <time name="dav">   31.33   31.67</time>
   <time name="total">   85.22   85.97</time>
   <energy>
    <i name="e_fr_energy">    -43.16532948 </i>
    <i name="e_wo_entrp">    -43.16532948 </i>
    <i name="e_0_energy">    -43.16532948 </i>
   </energy>
  </scstep>
  <scstep>
   <time name="dav">   29.74   30.13</time>
   <time name="total">   83.68   84.29</time>
   <energy>
    <i name="e_fr_energy">    -43.13982793 </i>
    <i name="e_wo_entrp">    -43.13982793 </i>
    <i name="e_0_energy">    -43.13982793 </i>
   </energy>
  </scstep>
  <scstep>
   <time name="dav">   28.93   29.10</time>
   <time name="total">   82.87   83.21</time>
   <energy>
    <i name="e_fr_energy">    -42.86831113 </i>
    <i name="e_wo_entrp">    -42.86831113 </i>
    <i name="e_0_energy">    -42.86831113 </i>
   </energy>
  </scstep>
  <scstep>
   <time name="dav">   28.11   28.23</time>
   <time name="total">   82.20   82.41</time>
   <energy>
    <i name="e_fr_energy">    -42.83580097 </i>
    <i name="e_wo_entrp">    -42.83580097 </i>
    <i name="e_0_energy">    -42.83580097 </i>
   </energy>
  </scstep>
  <scstep>
   <time name="dav">   32.70   32.81</time>
   <time name="total">   86.93   87.06</time>
   <energy>
    <i name="e_fr_energy">    -42.81443724 </i>
    <i name="e_wo_entrp">    -42.81443724 </i>
    <i name="e_0_energy">    -42.81443724 </i>
   </energy>
  </scstep>
  <scstep>
   <time name="dav">   31.69   31.78</time>
   <time name="total">   85.93   86.14</time>
   <energy>
    <i name="e_fr_energy">    -42.82145009 </i>
    <i name="e_wo_entrp">    -42.82145009 </i>
    <i name="e_0_energy">    -42.82145009 </i>
   </energy>
  </scstep>
  <scstep>
   <time name="dav">   26.07   26.21</time>
   <time name="total">   80.26   80.44</time>
   <energy>
    <i name="e_fr_energy">    -42.81661693 </i>
    <i name="e_wo_entrp">    -42.81661693 </i>
    <i name="e_0_energy">    -42.81661693 </i>
   </energy>
  </scstep>
  <scstep>
   <time name="dav">   27.92   28.16</time>
   <time name="total">   82.34   82.70</time>
   <energy>
    <i name="e_fr_energy">    -42.82016123 </i>
    <i name="e_wo_entrp">    -42.82016123 </i>
    <i name="e_0_energy">    -42.82016123 </i>
   </energy>
  </scstep>
  <scstep>
   <time name="dav">   25.99   26.03</time>
   <time name="total">   80.20   80.39</time>
   <energy>
    <i name="e_fr_energy">    -42.82234437 </i>
    <i name="e_wo_entrp">    -42.82234437 </i>
    <i name="e_0_energy">    -42.82234437 </i>
   </energy>
  </scstep>
  <scstep>
   <time name="dav">   30.76   30.87</time>
   <time name="total">   84.53   85.12</time>
   <energy>
    <i name="e_fr_energy">    -42.82730473 </i>
    <i name="e_wo_entrp">    -42.82730473 </i>
    <i name="e_0_energy">    -42.82730473 </i>
   </energy>
  </scstep>
  <scstep>
   <time name="dav">   28.93   29.25</time>
   <time name="total">   82.94   83.49</time>
   <energy>
    <i name="e_fr_energy">    -42.82916181 </i>
    <i name="e_wo_entrp">    -42.82916181 </i>
    <i name="e_0_energy">    -42.82916181 </i>
   </energy>
  </scstep>
  <scstep>
   <time name="dav">   27.38   27.55</time>
   <time name="total">   81.25   81.82</time>
   <energy>
    <i name="e_fr_energy">    -42.83238211 </i>
    <i name="e_wo_entrp">    -42.83238211 </i>
    <i name="e_0_energy">    -42.83238211 </i>
   </energy>
  </scstep>
  <scstep>
   <time name="dav">   23.42   23.83</time>
   <time name="total">   77.62   78.18</time>
   <energy>
    <i name="e_fr_energy">    -42.83643476 </i>
    <i name="e_wo_entrp">    -42.83643476 </i>
    <i name="e_0_energy">    -42.83643476 </i>
   </energy>
  </scstep>
  <scstep>
   <time name="dav">   24.30   24.42</time>
   <time name="total">   78.05   78.69</time>
   <energy>
    <i name="e_fr_energy">    -42.83886801 </i>
    <i name="e_wo_entrp">    -42.83886801 </i>
    <i name="e_0_energy">    -42.83886801 </i>
   </energy>
  </scstep>
  <scstep>
   <time name="dav">   22.80   23.01</time>
   <time name="total">   76.89   77.33</time>
   <energy>
    <i name="e_fr_energy">    -42.84274856 </i>
    <i name="e_wo_entrp">    -42.84274856 </i>
    <i name="e_0_energy">    -42.84274856 </i>
   </energy>
  </scstep>
  <scstep>
   <time name="dav">   24.29   24.43</time>
   <time name="total">   78.40   78.68</time>
   <energy>
    <i name="e_fr_energy">    -42.84782292 </i>
    <i name="e_wo_entrp">    -42.84782292 </i>
    <i name="e_0_energy">    -42.84782292 </i>
   </energy>
  </scstep>
  <scstep>
   <time name="dav">   27.01   27.14</time>
   <time name="total">   81.07   81.38</time>
   <energy>
    <i name="e_fr_energy">    -42.85265330 </i>
    <i name="e_wo_entrp">    -42.85265330 </i>
    <i name="e_0_energy">    -42.85265330 </i>
   </energy>
  </scstep>
  <scstep>
   <time name="dav">   27.44   27.55</time>
   <time name="total">   81.55   81.83</time>
   <energy>
    <i name="e_fr_energy">    -42.86201121 </i>
    <i name="e_wo_entrp">    -42.86201121 </i>
    <i name="e_0_energy">    -42.86201121 </i>
   </energy>
  </scstep>
  <scstep>
   <time name="dav">   24.69   24.80</time>
   <time name="total">   78.76   78.93</time>
   <energy>
    <i name="e_fr_energy">    -42.86951713 </i>
    <i name="e_wo_entrp">    -42.86951713 </i>
    <i name="e_0_energy">    -42.86951713 </i>
   </energy>
  </scstep>
  <scstep>
   <time name="dav">   23.41   23.45</time>
   <time name="total">   77.86   77.93</time>
   <energy>
    <i name="e_fr_energy">    -42.87228226 </i>
    <i name="e_wo_entrp">    -42.87228226 </i>
    <i name="e_0_energy">    -42.87228226 </i>
   </energy>
  </scstep>
  <scstep>
   <time name="dav">   21.76   22.17</time>
   <time name="total">   75.98   76.51</time>
   <energy>
    <i name="e_fr_energy">    -42.87149077 </i>
    <i name="e_wo_entrp">    -42.87149077 </i>
    <i name="e_0_energy">    -42.87149077 </i>
   </energy>
  </scstep>
  <scstep>
   <time name="dav">   26.13   26.39</time>
   <time name="total">   80.13   80.74</time>
   <energy>
    <i name="e_fr_energy">    -42.86965162 </i>
    <i name="e_wo_entrp">    -42.86965162 </i>
    <i name="e_0_energy">    -42.86965162 </i>
   </energy>
  </scstep>
  <scstep>
   <time name="dav">   22.92   23.29</time>
   <time name="total">   77.16   77.95</time>
   <energy>
    <i name="e_fr_energy">    -42.86811174 </i>
    <i name="e_wo_entrp">    -42.86811174 </i>
    <i name="e_0_energy">    -42.86811174 </i>
   </energy>
  </scstep>
  <scstep>
   <time name="dav">   21.92   22.20</time>
   <time name="total">   76.12   76.62</time>
   <energy>
    <i name="e_fr_energy">    -42.86775490 </i>
    <i name="e_wo_entrp">    -42.86775490 </i>
    <i name="e_0_energy">    -42.86775490 </i>
   </energy>
  </scstep>
  <scstep>
   <time name="dav">   21.86   21.98</time>
   <time name="total">   73.77   74.06</time>
   <energy>
    <i name="alphaZ">     39.42735850 </i>
    <i name="ewald">  10728.73539507 </i>
    <i name="hartreedc"> -14385.73087032 </i>
    <i name="XCdc">    116.48683692 </i>
    <i name="pawpsdc">   2517.67546891 </i>
    <i name="pawaedc">  -2598.85071675 </i>
    <i name="eentropy">      0.00000000 </i>
    <i name="bandstr">   -500.87480268 </i>
    <i name="atom">   4040.26366069 </i>
    <i name="e_fr_energy">    -42.86766966 </i>
    <i name="e_wo_entrp">    -42.86766966 </i>
    <i name="e_0_energy">    -42.86766966 </i>
   </energy>
  </scstep>
  <structure>
   <crystal>
    <varray name="basis" >
     <v>       5.93529856       0.00000016       0.00000000 </v>
     <v>       2.96764886       5.14011920      -0.00000000 </v>
     <v>      -0.00000000      -0.00000000      21.74976151 </v>
    </varray>
    <i name="volume">    663.54480534 </i>
    <varray name="rec_basis" >
     <v>       0.16848352      -0.09727400       0.00000000 </v>
     <v>      -0.00000001       0.19454802       0.00000000 </v>
     <v>      -0.00000000       0.00000000       0.04597752 </v>
    </varray>
   </crystal>
   <varray name="positions" >
    <v>       0.33333300       0.33333300       0.50001208 </v>
    <v>       0.66666700       0.66666700       0.50011552 </v>
    <v>       0.00000000       0.00000000       0.44642432 </v>
    <v>       0.00000000       0.00000000       0.55178400 </v>
    <v>       0.63244815       0.00039308       0.57048872 </v>
    <v>       0.00039308       0.36715978       0.57048872 </v>
    <v>       0.36715978       0.63244815       0.57048872 </v>
    <v>       0.36404994       0.99961169       0.42967076 </v>
    <v>       0.99961169       0.63633737       0.42967076 </v>
    <v>       0.63633737       0.36404994       0.42967076 </v>
   </varray>
  </structure>
  <varray name="forces" >
   <v>      -0.00000000       0.00000000       0.07345976 </v>
   <v>      -0.00000000       0.00000000       0.07355376 </v>
   <v>      -0.00000000       0.00000000      -0.76972771 </v>
   <v>      -0.00000000       0.00000000       0.25903721 </v>
   <v>      -0.83680405      -0.00857982      -0.26033263 </v>
   <v>       0.41097164       0.72898345      -0.26033263 </v>
   <v>       0.42583241      -0.72040363      -0.26033263 </v>
   <v>      -0.35534349       0.00966436       0.38155829 </v>
   <v>       0.18604131       0.30290430       0.38155829 </v>
   <v>       0.16930218      -0.31256865       0.38155829 </v>
  </varray>
  <varray name="stress" >
   <v>      -5.93838291      -0.00000170      -0.00000000 </v>
   <v>       0.00000236      -5.93838243      -0.00000000 </v>
   <v>      -0.00000000      -0.00000000      -3.92958474 </v>
  </varray>
  <energy>
   <i name="e_fr_energy">    -42.86766966 </i>
   <i name="e_wo_entrp">    -42.86766966 </i>
   <i name="e_0_energy">      0.00000000 </i>
  </energy>
  <time name="totalsc"> 2828.68 2843.88</time>
 </calculation>
 <calculation>
  <scstep>
   <time name="dav">   26.55   26.70</time>
   <time name="total">   80.71   80.99</time>
   <energy>
    <i name="alphaZ">     40.19446413 </i>
    <i name="ewald">  10887.76929458 </i>
    <i name="hartreedc"> -14564.26747190 </i>
    <i name="XCdc">    117.73661940 </i>
    <i name="pawpsdc">   2517.70168102 </i>
    <i name="pawaedc">  -2598.87483046 </i>
    <i name="eentropy">      0.00000000 </i>
    <i name="bandstr">   -483.65518646 </i>
    <i name="atom">   4040.26366069 </i>
    <i name="e_fr_energy">    -43.13176900 </i>
    <i name="e_wo_entrp">    -43.13176900 </i>
    <i name="e_0_energy">    -43.13176900 </i>
   </energy>
  </scstep>
  <scstep>
   <time name="dav">   26.57   26.69</time>
   <time name="total">   80.65   81.11</time>
   <energy>
    <i name="e_fr_energy">    -44.05848969 </i>
    <i name="e_wo_entrp">    -44.05848969 </i>
    <i name="e_0_energy">    -44.05848969 </i>
   </energy>
  </scstep>
  <scstep>
   <time name="dav">   25.24   25.53</time>
   <time name="total">   78.89   79.75</time>
   <energy>
    <i name="e_fr_energy">    -42.91200225 </i>
    <i name="e_wo_entrp">    -42.91200225 </i>
    <i name="e_0_energy">    -42.91200225 </i>
   </energy>
  </scstep>
  <scstep>
   <time name="dav">   29.46   29.59</time>
   <time name="total">   83.46   83.89</time>
   <energy>
    <i name="e_fr_energy">    -42.91613964 </i>
    <i name="e_wo_entrp">    -42.91613964 </i>
    <i name="e_0_energy">    -42.91613964 </i>
   </energy>
  </scstep>
  <scstep>
   <time name="dav">   27.30   27.43</time>
   <time name="total">   81.64   81.88</time>
   <energy>
    <i name="e_fr_energy">    -42.90318930 </i>
    <i name="e_wo_entrp">    -42.90318930 </i>
    <i name="e_0_energy">    -42.90318930 </i>
   </energy>
  </scstep>
  <scstep>
   <time name="dav">   35.08   35.29</time>
   <time name="total">   89.57   89.80</time>
   <energy>
    <i name="e_fr_energy">    -42.90373865 </i>
    <i name="e_wo_entrp">    -42.90373865 </i>
    <i name="e_0_energy">    -42.90373865 </i>
   </energy>
  </scstep>
  <scstep>
   <time name="dav">   29.32   29.54</time>
   <time name="total">   83.57   84.04</time>
   <energy>
    <i name="e_fr_energy">    -42.90404471 </i>
    <i name="e_wo_entrp">    -42.90404471 </i>
    <i name="e_0_energy">    -42.90404471 </i>
   </energy>
  </scstep>
  <scstep>
   <time name="dav">   21.72   21.76</time>
   <time name="total">   73.95   74.12</time>
   <energy>
    <i name="alphaZ">     40.19446413 </i>
    <i name="ewald">  10887.76929458 </i>
    <i name="hartreedc"> -14548.36629706 </i>
    <i name="XCdc">    116.98325328 </i>
    <i name="pawpsdc">   2529.35145709 </i>
    <i name="pawaedc">  -2610.82485567 </i>
    <i name="eentropy">      0.00000000 </i>
    <i name="bandstr">   -498.27495234 </i>
    <i name="atom">   4040.26366069 </i>
    <i name="e_fr_energy">    -42.90397530 </i>
    <i name="e_wo_entrp">    -42.90397530 </i>
    <i name="e_0_energy">    -42.90397530 </i>
   </energy>
  </scstep>
  <structure>
   <crystal>
    <varray name="basis" >
     <v>       5.88926116       0.00000016       0.00000000 </v>
     <v>       2.94463016       5.10024965      -0.00000000 </v>
     <v>      -0.00000000      -0.00000000      21.66952795 </v>
    </varray>
    <i name="volume">    650.88114706 </i>
    <varray name="rec_basis" >
     <v>       0.16980059      -0.09803440       0.00000000 </v>
     <v>      -0.00000001       0.19606884       0.00000000 </v>
     <v>      -0.00000000       0.00000000       0.04614775 </v>
    </varray>
   </crystal>
   <varray name="positions" >
    <v>       0.33333300       0.33333300       0.50001652 </v>
    <v>       0.66666700       0.66666700       0.50011758 </v>
    <v>      -0.00000000      -0.00000000       0.44633289 </v>
    <v>       0.00000000       0.00000000       0.55178400 </v>
    <v>       0.63278375       0.00039159       0.57032220 </v>
    <v>       0.00039159       0.36682566       0.57032220 </v>
    <v>       0.36682566       0.63278375       0.57032220 </v>
    <v>       0.36352139       0.99961344       0.42984542 </v>
    <v>       0.99961344       0.63686417       0.42984542 </v>
    <v>       0.63686417       0.36352139       0.42984542 </v>
   </varray>
  </structure>
  <varray name="forces" >
   <v>       0.00000000      -0.00000000       0.07388085 </v>
   <v>       0.00000000      -0.00000000       0.07734373 </v>
   <v>       0.00000000       0.00000000      -0.75386502 </v>
   <v>       0.00000000      -0.00000000       0.22650858 </v>
   <v>      -1.03579825      -0.00956793      -0.12697158 </v>
   <v>       0.50961301       0.90181153      -0.12697158 </v>
   <v>       0.52618525      -0.89224360      -0.12697158 </v>
   <v>      -0.19740813       0.01039004       0.25234887 </v>
   <v>       0.10770210       0.16576543       0.25234887 </v>
   <v>       0.08970603      -0.17615547       0.25234887 </v>
  </varray>
  <varray name="stress" >
   <v>       0.05448210      -0.00000180       0.00000000 </v>
   <v>       0.00000179       0.05448209       0.00000000 </v>
   <v>      -0.00000000       0.00000000      -2.15423398 </v>
  </varray>
  <energy>
   <i name="e_fr_energy">    -42.90397530 </i>
   <i name="e_wo_entrp">    -42.90397530 </i>
   <i name="e_0_energy">      0.00000000 </i>
  </energy>
  <time name="totalsc">  788.92  792.54</time>
 </calculation>
 <calculation>
  <scstep>
   <time name="dav">   23.18   23.22</time>
   <time name="total">   77.65   77.78</time>
   <energy>
    <i name="alphaZ">     40.51873546 </i>
    <i name="ewald">  10877.21208861 </i>
    <i name="hartreedc"> -14550.94141507 </i>
    <i name="XCdc">    117.50548856 </i>
    <i name="pawpsdc">   2529.79512807 </i>
    <i name="pawaedc">  -2611.27172745 </i>
    <i name="eentropy">      0.00000000 </i>
    <i name="bandstr">   -486.11595293 </i>
    <i name="atom">   4040.26366069 </i>
    <i name="e_fr_energy">    -43.03399405 </i>
    <i name="e_wo_entrp">    -43.03399405 </i>
    <i name="e_0_energy">    -43.03399405 </i>
   </energy>
  </scstep>
  <scstep>
   <time name="dav">   30.85   30.94</time>
   <time name="total">   85.40   85.64</time>
   <energy>
    <i name="e_fr_energy">    -43.20353861 </i>
    <i name="e_wo_entrp">    -43.20353861 </i>
    <i name="e_0_energy">    -43.20353861 </i>
   </energy>
  </scstep>
  <scstep>
   <time name="dav">   26.20   26.37</time>
   <time name="total">   80.57   80.82</time>
   <energy>
    <i name="e_fr_energy">    -43.05501356 </i>
    <i name="e_wo_entrp">    -43.05501356 </i>
    <i name="e_0_energy">    -43.05501356 </i>
   </energy>
  </scstep>
  <scstep>
   <time name="dav">   29.43   29.64</time>
   <time name="total">   83.50   84.08</time>
   <energy>
    <i name="e_fr_energy">    -43.04778238 </i>
    <i name="e_wo_entrp">    -43.04778238 </i>
    <i name="e_0_energy">    -43.04778238 </i>
   </energy>
  </scstep>
  <scstep>
   <time name="dav">   31.84   31.92</time>
   <time name="total">   86.15   86.42</time>
   <energy>
    <i name="e_fr_energy">    -43.04567266 </i>
    <i name="e_wo_entrp">    -43.04567266 </i>
    <i name="e_0_energy">    -43.04567266 </i>
   </energy>
  </scstep>
  <scstep>
   <time name="dav">   28.94   29.40</time>
   <time name="total">   83.06   83.68</time>
   <energy>
    <i name="e_fr_energy">    -43.04567093 </i>
    <i name="e_wo_entrp">    -43.04567093 </i>
    <i name="e_0_energy">    -43.04567093 </i>
   </energy>
  </scstep>
  <scstep>
   <time name="dav">   27.32   27.68</time>
   <time name="total">   81.49   81.97</time>
   <energy>
    <i name="e_fr_energy">    -43.04524969 </i>
    <i name="e_wo_entrp">    -43.04524969 </i>
    <i name="e_0_energy">    -43.04524969 </i>
   </energy>
  </scstep>
  <scstep>
   <time name="dav">   20.08   20.28</time>
   <time name="total">   71.64   72.48</time>
   <energy>
    <i name="alphaZ">     40.51873546 </i>
    <i name="ewald">  10877.21208861 </i>
    <i name="hartreedc"> -14541.36624183 </i>
    <i name="XCdc">    117.11712527 </i>
    <i name="pawpsdc">   2536.42515072 </i>
    <i name="pawaedc">  -2618.05634987 </i>
    <i name="eentropy">      0.00000000 </i>
    <i name="bandstr">   -495.15946932 </i>
    <i name="atom">   4040.26366069 </i>
    <i name="e_fr_energy">    -43.04530026 </i>
    <i name="e_wo_entrp">    -43.04530026 </i>
    <i name="e_0_energy">    -43.04530026 </i>
   </energy>
  </scstep>
  <structure>
   <crystal>
    <varray name="basis" >
     <v>       5.88058528       0.00000014       0.00000000 </v>
     <v>       2.94029224       5.09273611       0.00000000 </v>
     <v>      -0.00000000      -0.00000000      21.55958182 </v>
    </varray>
    <i name="volume">    645.67214694 </i>
    <varray name="rec_basis" >
     <v>       0.17005110      -0.09817904       0.00000000 </v>
     <v>      -0.00000000       0.19635811       0.00000000 </v>
     <v>      -0.00000000      -0.00000000       0.04638309 </v>
    </varray>
   </crystal>
   <varray name="positions" >
    <v>       0.33333300       0.33333300       0.50018361 </v>
    <v>       0.66666700       0.66666700       0.50029190 </v>
    <v>       0.00000000       0.00000000       0.44461691 </v>
    <v>       0.00000000       0.00000000       0.55178400 </v>
    <v>       0.62434445       0.00029988       0.56999720 </v>
    <v>       0.00029988       0.37535667       0.56999720 </v>
    <v>       0.37535667       0.62434445       0.56999720 </v>
    <v>       0.36171302       0.99971307       0.43045413 </v>
    <v>       0.99971307       0.63857291       0.43045413 </v>
    <v>       0.63857291       0.36171302       0.43045413 </v>
   </varray>
  </structure>
  <varray name="forces" >
   <v>       0.00000000      -0.00000000       0.12088514 </v>
   <v>       0.00000000      -0.00000000       0.12128926 </v>
   <v>       0.00000000       0.00000000      -0.24446487 </v>
   <v>       0.00000000      -0.00000000       0.24398574 </v>
   <v>      -0.43210813      -0.00735369      -0.12038520 </v>
   <v>       0.20968556       0.37789345      -0.12038520 </v>
   <v>       0.22242257      -0.37053976      -0.12038520 </v>
   <v>      -0.02833623       0.00674796       0.03982011 </v>
   <v>       0.02001202       0.02116592       0.03982011 </v>
   <v>       0.00832421      -0.02791388       0.03982011 </v>
  </varray>
  <varray name="stress" >
   <v>       0.28120302      -0.00000144       0.00000000 </v>
   <v>       0.00000141       0.28120300       0.00000000 </v>
   <v>       0.00000000      -0.00000000      -1.19475362 </v>
  </varray>
  <energy>
   <i name="e_fr_energy">    -43.04530026 </i>
   <i name="e_wo_entrp">    -43.04530026 </i>
   <i name="e_0_energy">      0.00000000 </i>
  </energy>
  <time name="totalsc">  785.42  789.89</time>
 </calculation>
 <calculation>
  <scstep>
   <time name="dav">   22.90   23.12</time>
   <time name="total">   77.33   77.76</time>
   <energy>
    <i name="alphaZ">     40.82154232 </i>
    <i name="ewald">  10867.57704087 </i>
    <i name="hartreedc"> -14543.48292138 </i>
    <i name="XCdc">    117.61404151 </i>
    <i name="pawpsdc">   2536.74571444 </i>
    <i name="pawaedc">  -2618.38430432 </i>
    <i name="eentropy">      0.00000000 </i>
    <i name="bandstr">   -484.21860887 </i>
    <i name="atom">   4040.26366069 </i>
    <i name="e_fr_energy">    -43.06383474 </i>
    <i name="e_wo_entrp">    -43.06383474 </i>
    <i name="e_0_energy">    -43.06383474 </i>
   </energy>
  </scstep>
  <scstep>
   <time name="dav">   31.34   31.49</time>
   <time name="total">   85.41   85.90</time>
   <energy>
    <i name="e_fr_energy">    -43.20669533 </i>
    <i name="e_wo_entrp">    -43.20669533 </i>
    <i name="e_0_energy">    -43.20669533 </i>
   </energy>
  </scstep>
  <scstep>
   <time name="dav">   24.60   24.77</time>
   <time name="total">   78.86   79.23</time>
   <energy>
    <i name="e_fr_energy">    -43.08158244 </i>
    <i name="e_wo_entrp">    -43.08158244 </i>
    <i name="e_0_energy">    -43.08158244 </i>
   </energy>
  </scstep>
  <scstep>
   <time name="dav">   27.66   27.82</time>
   <time name="total">   81.74   82.22</time>
   <energy>
    <i name="e_fr_energy">    -43.07560203 </i>
    <i name="e_wo_entrp">    -43.07560203 </i>
    <i name="e_0_energy">    -43.07560203 </i>
   </energy>
  </scstep>
  <scstep>
   <time name="dav">   30.30   30.51</time>
   <time name="total">   84.04   84.86</time>
   <energy>
    <i name="e_fr_energy">    -43.07353987 </i>
    <i name="e_wo_entrp">    -43.07353987 </i>
    <i name="e_0_energy">    -43.07353987 </i>
   </energy>
  </scstep>
  <scstep>
   <time name="dav">   31.36   31.45</time>
   <time name="total">   85.62   85.96</time>
   <energy>
    <i name="e_fr_energy">    -43.07373867 </i>
    <i name="e_wo_entrp">    -43.07373867 </i>
    <i name="e_0_energy">    -43.07373867 </i>
   </energy>
  </scstep>
  <scstep>
   <time name="dav">   23.54   23.63</time>
   <time name="total">   77.84   78.00</time>
   <energy>
    <i name="e_fr_energy">    -43.07364685 </i>
    <i name="e_wo_entrp">    -43.07364685 </i>
    <i name="e_0_energy">    -43.07364685 </i>
   </energy>
  </scstep>
  <scstep>
   <time name="dav">   21.39   21.48</time>
   <time name="total">   75.28   75.67</time>
   <energy>
    <i name="e_fr_energy">    -43.07381275 </i>
    <i name="e_wo_entrp">    -43.07381275 </i>
    <i name="e_0_energy">    -43.07381275 </i>
   </energy>
  </scstep>
  <scstep>
   <time name="dav">   20.78   21.11</time>
   <time name="total">   72.38   73.22</time>
   <energy>
    <i name="alphaZ">     40.82154232 </i>
    <i name="ewald">  10867.57704087 </i>
    <i name="hartreedc"> -14533.43560438 </i>
    <i name="XCdc">    117.24990393 </i>
    <i name="pawpsdc">   2544.38839421 </i>
    <i name="pawaedc">  -2626.20416124 </i>
    <i name="eentropy">      0.00000000 </i>
    <i name="bandstr">   -493.73468067 </i>
    <i name="atom">   4040.26366069 </i>
    <i name="e_fr_energy">    -43.07390427 </i>
    <i name="e_wo_entrp">    -43.07390427 </i>
    <i name="e_0_energy">    -43.07390427 </i>
   </energy>
  </scstep>
  <structure>
   <crystal>
    <varray name="basis" >
     <v>       5.87257524       0.00000013       0.00000000 </v>
     <v>       2.93628724       5.08579921       0.00000000 </v>
     <v>      -0.00000000       0.00000000      21.45807367 </v>
    </varray>
    <i name="volume">    640.88266717 </i>
    <varray name="rec_basis" >
     <v>       0.17028305      -0.09831295       0.00000000 </v>
     <v>      -0.00000000       0.19662593      -0.00000000 </v>
     <v>      -0.00000000      -0.00000000       0.04660251 </v>
    </varray>
   </crystal>
   <varray name="positions" >
    <v>       0.33333300       0.33333300       0.50033867 </v>
    <v>       0.66666700       0.66666700       0.50045365 </v>
    <v>       0.00000000       0.00000000       0.44302454 </v>
    <v>       0.00000000       0.00000000       0.55178400 </v>
    <v>       0.61654134       0.00021508       0.56969561 </v>
    <v>       0.00021508       0.38324458       0.56969561 </v>
    <v>       0.38324458       0.61654134       0.56969561 </v>
    <v>       0.36004097       0.99980518       0.43101899 </v>
    <v>       0.99980518       0.64015284       0.43101899 </v>
    <v>       0.64015284       0.36004097       0.43101899 </v>
   </varray>
  </structure>
  <varray name="forces" >
   <v>      -0.00000000       0.00000000       0.15982909 </v>
   <v>      -0.00000000       0.00000000       0.15408627 </v>
   <v>      -0.00000000       0.00000000       0.14031770 </v>
   <v>      -0.00000000       0.00000000       0.24342950 </v>
   <v>       0.01425527      -0.00483793      -0.08524246 </v>
   <v>      -0.01131740      -0.00992647      -0.08524246 </v>
   <v>      -0.00293787       0.01476439      -0.08524246 </v>
   <v>       0.12485982       0.00356081      -0.14731173 </v>
   <v>      -0.05934615      -0.10991217      -0.14731173 </v>
   <v>      -0.06551366       0.10635137      -0.14731173 </v>
  </varray>
  <varray name="stress" >
   <v>       1.26370892      -0.00000131      -0.00000000 </v>
   <v>       0.00000117       1.26370882       0.00000000 </v>
   <v>      -0.00000000       0.00000000       0.21538316 </v>
  </varray>
  <energy>
   <i name="e_fr_energy">    -43.07390427 </i>
   <i name="e_wo_entrp">    -43.07390427 </i>
   <i name="e_0_energy">      0.00000000 </i>
  </energy>
  <time name="totalsc">  854.42  859.69</time>
 </calculation>
 <calculation>
  <scstep>
   <time name="dav">   25.08   25.19</time>
   <time name="total">   79.25   79.63</time>
   <energy>
    <i name="alphaZ">     40.61344127 </i>
    <i name="ewald">  10794.17101081 </i>
    <i name="hartreedc"> -14456.07916259 </i>
    <i name="XCdc">    116.90991365 </i>
    <i name="pawpsdc">   2544.64918477 </i>
    <i name="pawaedc">  -2626.46595198 </i>
    <i name="eentropy">      0.00000000 </i>
    <i name="bandstr">   -497.15050463 </i>
    <i name="atom">   4040.26366069 </i>
    <i name="e_fr_energy">    -43.08840800 </i>
    <i name="e_wo_entrp">    -43.08840800 </i>
    <i name="e_0_energy">    -43.08840800 </i>
   </energy>
  </scstep>
  <scstep>
   <time name="dav">   26.79   27.27</time>
   <time name="total">   81.26   81.95</time>
   <energy>
    <i name="e_fr_energy">    -43.14487235 </i>
    <i name="e_wo_entrp">    -43.14487235 </i>
    <i name="e_0_energy">    -43.14487235 </i>
   </energy>
  </scstep>
  <scstep>
   <time name="dav">   22.87   23.16</time>
   <time name="total">   77.08   77.50</time>
   <energy>
    <i name="e_fr_energy">    -43.08143374 </i>
    <i name="e_wo_entrp">    -43.08143374 </i>
    <i name="e_0_energy">    -43.08143374 </i>
   </energy>
  </scstep>
  <scstep>
   <time name="dav">   26.13   26.47</time>
   <time name="total">   80.34   80.82</time>
   <energy>
    <i name="e_fr_energy">    -43.07953400 </i>
    <i name="e_wo_entrp">    -43.07953400 </i>
    <i name="e_0_energy">    -43.07953400 </i>
   </energy>
  </scstep>
  <scstep>
   <time name="dav">   27.62   27.86</time>
   <time name="total">   81.84   82.22</time>
   <energy>
    <i name="e_fr_energy">    -43.07946499 </i>
    <i name="e_wo_entrp">    -43.07946499 </i>
    <i name="e_0_energy">    -43.07946499 </i>
   </energy>
  </scstep>
  <scstep>
   <time name="dav">   27.14   27.40</time>
   <time name="total">   81.58   82.00</time>
   <energy>
    <i name="e_fr_energy">    -43.07915953 </i>
    <i name="e_wo_entrp">    -43.07915953 </i>
    <i name="e_0_energy">    -43.07915953 </i>
   </energy>
  </scstep>
  <scstep>
   <time name="dav">   20.07   20.31</time>
   <time name="total">   72.04   72.63</time>
   <energy>
    <i name="alphaZ">     40.61344127 </i>
    <i name="ewald">  10794.17101081 </i>
    <i name="hartreedc"> -14458.25539545 </i>
    <i name="XCdc">    117.07388869 </i>
    <i name="pawpsdc">   2542.06453044 </i>
    <i name="pawaedc">  -2623.82242662 </i>
    <i name="eentropy">      0.00000000 </i>
    <i name="bandstr">   -495.18776981 </i>
    <i name="atom">   4040.26366069 </i>
    <i name="e_fr_energy">    -43.07905998 </i>
    <i name="e_wo_entrp">    -43.07905998 </i>
    <i name="e_0_energy">    -43.07905998 </i>
   </energy>
  </scstep>
  <structure>
   <crystal>
    <varray name="basis" >
     <v>       5.88839451       0.00000011      -0.00000000 </v>
     <v>       2.94419689       5.09949908       0.00000000 </v>
     <v>      -0.00000000       0.00000000      21.45229365 </v>
    </varray>
    <i name="volume">    644.16651481 </i>
    <varray name="rec_basis" >
     <v>       0.16982558      -0.09804883       0.00000000 </v>
     <v>      -0.00000000       0.19609769      -0.00000000 </v>
     <v>       0.00000000      -0.00000000       0.04661506 </v>
    </varray>
   </crystal>
   <varray name="positions" >
    <v>       0.33333300       0.33333300       0.50079388 </v>
    <v>       0.66666700       0.66666700       0.50089451 </v>
    <v>       0.00000000       0.00000000       0.44314004 </v>
    <v>       0.00000000       0.00000000       0.55178400 </v>
    <v>       0.61543042       0.00014631       0.56941685 </v>
    <v>       0.00014631       0.38442427       0.56941685 </v>
    <v>       0.38442427       0.61543042       0.56941685 </v>
    <v>       0.36097346       0.99986067       0.43071578 </v>
    <v>       0.99986067       0.63916488       0.43071578 </v>
    <v>       0.63916488       0.36097346       0.43071578 </v>
   </varray>
  </structure>
  <varray name="forces" >
   <v>      -0.00000000       0.00000000       0.03426350 </v>
   <v>      -0.00000000       0.00000000       0.02934386 </v>
   <v>      -0.00000000       0.00000000       0.04172989 </v>
   <v>      -0.00000000       0.00000000       0.27949588 </v>
   <v>       0.09056716      -0.00281056      -0.06618977 </v>
   <v>      -0.04771759      -0.07702817      -0.06618977 </v>
   <v>      -0.04284956       0.07983874      -0.06618977 </v>
   <v>      -0.02436041       0.00272736      -0.06208793 </v>
   <v>       0.01454217       0.01973305      -0.06208793 </v>
   <v>       0.00981824      -0.02246041      -0.06208793 </v>
  </varray>
  <varray name="stress" >
   <v>      -1.98052138      -0.00000087      -0.00000000 </v>
   <v>       0.00000109      -1.98052123      -0.00000000 </v>
   <v>      -0.00000000      -0.00000000      -0.67986058 </v>
  </varray>
  <energy>
   <i name="e_fr_energy">    -43.07905998 </i>
   <i name="e_wo_entrp">    -43.07905998 </i>
   <i name="e_0_energy">      0.00000000 </i>
  </energy>
  <time name="totalsc">  689.34  693.72</time>
 </calculation>
 <calculation>
  <scstep>
   <time name="dav">   23.16   23.18</time>
   <time name="total">   77.23   77.47</time>
   <energy>
    <i name="alphaZ">     40.64993249 </i>
    <i name="ewald">  10807.04200895 </i>
    <i name="hartreedc"> -14471.49098498 </i>
    <i name="XCdc">    117.13273778 </i>
    <i name="pawpsdc">   2541.84776048 </i>
    <i name="pawaedc">  -2623.59320105 </i>
    <i name="eentropy">      0.00000000 </i>
    <i name="bandstr">   -494.93146787 </i>
    <i name="atom">   4040.26366069 </i>
    <i name="e_fr_energy">    -43.07955352 </i>
    <i name="e_wo_entrp">    -43.07955352 </i>
    <i name="e_0_energy">    -43.07955352 </i>
   </energy>
  </scstep>
  <scstep>
   <time name="dav">   25.36   25.51</time>
   <time name="total">   79.59   79.97</time>
   <energy>
    <i name="e_fr_energy">    -43.08135462 </i>
    <i name="e_wo_entrp">    -43.08135462 </i>
    <i name="e_0_energy">    -43.08135462 </i>
   </energy>
  </scstep>
  <scstep>
   <time name="dav">   22.96   23.19</time>
   <time name="total">   77.26   77.60</time>
   <energy>
    <i name="e_fr_energy">    -43.07935014 </i>
    <i name="e_wo_entrp">    -43.07935014 </i>
    <i name="e_0_energy">    -43.07935014 </i>
   </energy>
  </scstep>
  <scstep>
   <time name="dav">   26.11   26.43</time>
   <time name="total">   78.33   78.71</time>
   <energy>
    <i name="alphaZ">     40.64993249 </i>
    <i name="ewald">  10807.04200895 </i>
    <i name="hartreedc"> -14470.60843972 </i>
    <i name="XCdc">    117.10253721 </i>
    <i name="pawpsdc">   2541.98879359 </i>
    <i name="pawaedc">  -2623.73813098 </i>
    <i name="eentropy">      0.00000000 </i>
    <i name="bandstr">   -495.77971731 </i>
    <i name="atom">   4040.26366069 </i>
    <i name="e_fr_energy">    -43.07935507 </i>
    <i name="e_wo_entrp">    -43.07935507 </i>
    <i name="e_0_energy">    -43.07935507 </i>
   </energy>
  </scstep>
  <structure>
   <crystal>
    <varray name="basis" >
     <v>       5.88561143       0.00000011      -0.00000000 </v>
     <v>       2.94280534       5.09708887       0.00000000 </v>
     <v>      -0.00000000       0.00000000      21.45331052 </v>
    </varray>
    <i name="volume">    643.58825015 </i>
    <varray name="rec_basis" >
     <v>       0.16990588      -0.09809520       0.00000000 </v>
     <v>      -0.00000000       0.19619042      -0.00000000 </v>
     <v>       0.00000000      -0.00000000       0.04661285 </v>
    </varray>
   </crystal>
   <varray name="positions" >
    <v>       0.33333300       0.33333300       0.50071377 </v>
    <v>       0.66666700       0.66666700       0.50081693 </v>
    <v>       0.00000000       0.00000000       0.44311972 </v>
    <v>       0.00000000       0.00000000       0.55178400 </v>
    <v>       0.61562534       0.00015837       0.56946591 </v>
    <v>       0.00015837       0.38421728       0.56946591 </v>
    <v>       0.38421728       0.61562534       0.56946591 </v>
    <v>       0.36080984       0.99985093       0.43076914 </v>
    <v>       0.99985093       0.63933822       0.43076914 </v>
    <v>       0.63933822       0.36080984       0.43076914 </v>
   </varray>
  </structure>
  <varray name="forces" >
   <v>       0.00000000      -0.00000000       0.05457219 </v>
   <v>       0.00000000      -0.00000000       0.05147103 </v>
   <v>       0.00000000      -0.00000000       0.05832185 </v>
   <v>       0.00000000      -0.00000000       0.27278709 </v>
   <v>       0.07900457      -0.00512929      -0.07053465 </v>
   <v>      -0.04394438      -0.06585532      -0.07053465 </v>
   <v>      -0.03506019       0.07098461      -0.07053465 </v>
   <v>      -0.00048312       0.00062985      -0.07518273 </v>
   <v>       0.00078702       0.00010347      -0.07518273 </v>
   <v>      -0.00030390      -0.00073332      -0.07518273 </v>
  </varray>
  <varray name="stress" >
   <v>      -2.06532127      -0.00000166      -0.00000000 </v>
   <v>       0.00000189      -2.06532110       0.00000000 </v>
   <v>       0.00000000       0.00000000      -0.83269663 </v>
  </varray>
  <energy>
   <i name="e_fr_energy">    -43.07935507 </i>
   <i name="e_wo_entrp">    -43.07935507 </i>
   <i name="e_0_energy">      0.00000000 </i>
  </energy>
  <time name="totalsc">  448.54  450.69</time>
 </calculation>
 <calculation>
  <scstep>
   <time name="dav">   25.88   26.13</time>
   <time name="total">   80.37   80.75</time>
   <energy>
    <i name="alphaZ">     40.86251102 </i>
    <i name="ewald">  10831.51927735 </i>
    <i name="hartreedc"> -14501.18143182 </i>
    <i name="XCdc">    117.42227017 </i>
    <i name="pawpsdc">   2542.03427866 </i>
    <i name="pawaedc">  -2623.78468396 </i>
    <i name="eentropy">      0.00000000 </i>
    <i name="bandstr">   -490.23180424 </i>
    <i name="atom">   4040.26366069 </i>
    <i name="e_fr_energy">    -43.09592215 </i>
    <i name="e_wo_entrp">    -43.09592215 </i>
    <i name="e_0_energy">    -43.09592215 </i>
   </energy>
  </scstep>
  <scstep>
   <time name="dav">   24.11   24.20</time>
   <time name="total">   78.42   78.65</time>
   <energy>
    <i name="e_fr_energy">    -43.16798901 </i>
    <i name="e_wo_entrp">    -43.16798901 </i>
    <i name="e_0_energy">    -43.16798901 </i>
   </energy>
  </scstep>
  <scstep>
   <time name="dav">   23.40   23.83</time>
   <time name="total">   77.73   78.44</time>
   <energy>
    <i name="e_fr_energy">    -43.08180543 </i>
    <i name="e_wo_entrp">    -43.08180543 </i>
    <i name="e_0_energy">    -43.08180543 </i>
   </energy>
  </scstep>
  <scstep>
   <time name="dav">   29.33   29.59</time>
   <time name="total">   83.25   84.02</time>
   <energy>
    <i name="e_fr_energy">    -43.08293659 </i>
    <i name="e_wo_entrp">    -43.08293659 </i>
    <i name="e_0_energy">    -43.08293659 </i>
   </energy>
  </scstep>
  <scstep>
   <time name="dav">   29.20   29.37</time>
   <time name="total">   83.41   83.80</time>
   <energy>
    <i name="e_fr_energy">    -43.08063390 </i>
    <i name="e_wo_entrp">    -43.08063390 </i>
    <i name="e_0_energy">    -43.08063390 </i>
   </energy>
  </scstep>
  <scstep>
   <time name="dav">   23.76   23.83</time>
   <time name="total">   78.03   78.13</time>
   <energy>
    <i name="e_fr_energy">    -43.07994858 </i>
    <i name="e_wo_entrp">    -43.07994858 </i>
    <i name="e_0_energy">    -43.07994858 </i>
   </energy>
  </scstep>
  <scstep>
   <time name="dav">   21.98   22.02</time>
   <time name="total">   74.22   74.30</time>
   <energy>
    <i name="alphaZ">     40.86251102 </i>
    <i name="ewald">  10831.51927735 </i>
    <i name="hartreedc"> -14495.65727995 </i>
    <i name="XCdc">    117.21156874 </i>
    <i name="pawpsdc">   2545.59559728 </i>
    <i name="pawaedc">  -2627.43467932 </i>
    <i name="eentropy">      0.00000000 </i>
    <i name="bandstr">   -495.44058703 </i>
    <i name="atom">   4040.26366069 </i>
    <i name="e_fr_energy">    -43.07993122 </i>
    <i name="e_wo_entrp">    -43.07993122 </i>
    <i name="e_0_energy">    -43.07993122 </i>
   </energy>
  </scstep>
  <structure>
   <crystal>
    <varray name="basis" >
     <v>       5.87488941       0.00000008      -0.00000000 </v>
     <v>       2.93744436       5.08780331       0.00000000 </v>
     <v>      -0.00000000       0.00000000      21.41967507 </v>
    </varray>
    <i name="volume">    640.24011908 </i>
    <varray name="rec_basis" >
     <v>       0.17021597      -0.09827423       0.00000000 </v>
     <v>      -0.00000000       0.19654848      -0.00000000 </v>
     <v>       0.00000000      -0.00000000       0.04668605 </v>
    </varray>
   </crystal>
   <varray name="positions" >
    <v>       0.33333300       0.33333300       0.50110034 </v>
    <v>       0.66666700       0.66666700       0.50118863 </v>
    <v>       0.00000000       0.00000000       0.44330471 </v>
    <v>       0.00000000       0.00000000       0.55178400 </v>
    <v>       0.61552765       0.00007400       0.56915665 </v>
    <v>       0.00007400       0.38439935       0.56915665 </v>
    <v>       0.38439935       0.61552765       0.56915665 </v>
    <v>       0.36137586       0.99989015       0.43043576 </v>
    <v>       0.99989015       0.63873299       0.43043576 </v>
    <v>       0.63873299       0.36137586       0.43043576 </v>
   </varray>
  </structure>
  <varray name="forces" >
   <v>       0.00000000      -0.00000000      -0.08739245 </v>
   <v>       0.00000000       0.00000000      -0.09408505 </v>
   <v>       0.00000000      -0.00000000      -0.06007711 </v>
   <v>      -0.00000000       0.00000000       0.30641083 </v>
   <v>       0.06279260      -0.00041169       0.02309690 </v>
   <v>      -0.03175283      -0.05417414       0.02309690 </v>
   <v>      -0.03103977       0.05458583       0.02309690 </v>
   <v>      -0.03389865       0.00184575      -0.04471563 </v>
   <v>       0.01854779       0.02843422      -0.04471563 </v>
   <v>       0.01535086      -0.03027997      -0.04471563 </v>
  </varray>
  <varray name="stress" >
   <v>       0.74776480      -0.00000190      -0.00000000 </v>
   <v>       0.00000182       0.74776474      -0.00000000 </v>
   <v>       0.00000000      -0.00000000       1.66847413 </v>
  </varray>
  <energy>
   <i name="e_fr_energy">    -43.07993122 </i>
   <i name="e_wo_entrp">    -43.07993122 </i>
   <i name="e_0_energy">      0.00000000 </i>
  </energy>
  <time name="totalsc">  692.15  695.16</time>
 </calculation>
 <calculation>
  <scstep>
   <time name="dav">   26.68   26.92</time>
   <time name="total">   81.21   81.71</time>
   <energy>
    <i name="alphaZ">     40.75530159 </i>
    <i name="ewald">  10819.19191507 </i>
    <i name="hartreedc"> -14480.02782064 </i>
    <i name="XCdc">    117.04718179 </i>
    <i name="pawpsdc">   2545.92739634 </i>
    <i name="pawaedc">  -2627.78554030 </i>
    <i name="eentropy">      0.00000000 </i>
    <i name="bandstr">   -498.45629877 </i>
    <i name="atom">   4040.26366069 </i>
    <i name="e_fr_energy">    -43.08420423 </i>
    <i name="e_wo_entrp">    -43.08420423 </i>
    <i name="e_0_energy">    -43.08420423 </i>
   </energy>
  </scstep>
  <scstep>
   <time name="dav">   25.03   25.12</time>
   <time name="total">   79.32   79.63</time>
   <energy>
    <i name="e_fr_energy">    -43.10187920 </i>
    <i name="e_wo_entrp">    -43.10187920 </i>
    <i name="e_0_energy">    -43.10187920 </i>
   </energy>
  </scstep>
  <scstep>
   <time name="dav">   22.72   23.12</time>
   <time name="total">   76.75   77.47</time>
   <energy>
    <i name="e_fr_energy">    -43.08106308 </i>
    <i name="e_wo_entrp">    -43.08106308 </i>
    <i name="e_0_energy">    -43.08106308 </i>
   </energy>
  </scstep>
  <scstep>
   <time name="dav">   26.03   26.50</time>
   <time name="total">   80.00   80.80</time>
   <energy>
    <i name="e_fr_energy">    -43.08079077 </i>
    <i name="e_wo_entrp">    -43.08079077 </i>
    <i name="e_0_energy">    -43.08079077 </i>
   </energy>
  </scstep>
  <scstep>
   <time name="dav">   20.82   20.98</time>
   <time name="total">   72.74   73.15</time>
   <energy>
    <i name="alphaZ">     40.75530159 </i>
    <i name="ewald">  10819.19191507 </i>
    <i name="hartreedc"> -14481.78804365 </i>
    <i name="XCdc">    117.14668933 </i>
    <i name="pawpsdc">   2544.91531271 </i>
    <i name="pawaedc">  -2626.76165800 </i>
    <i name="eentropy">      0.00000000 </i>
    <i name="bandstr">   -496.80388043 </i>
    <i name="atom">   4040.26366069 </i>
    <i name="e_fr_energy">    -43.08070269 </i>
    <i name="e_wo_entrp">    -43.08070269 </i>
    <i name="e_0_energy">    -43.08070269 </i>
   </energy>
  </scstep>
  <structure>
   <crystal>
    <varray name="basis" >
     <v>       5.88028750       0.00000009      -0.00000000 </v>
     <v>       2.94014339       5.09247820       0.00000000 </v>
     <v>      -0.00000000       0.00000000      21.43660912 </v>
    </varray>
    <i name="volume">    641.92431164 </i>
    <varray name="rec_basis" >
     <v>       0.17005971      -0.09818401       0.00000000 </v>
[...]
        <r>  0.0001  0.0049  0.0004  0.0024  0.0000  0.0000  0.0000  0.0000  0.0000 </r>
        <r>  0.0024  0.0091  0.0207  0.0049  0.0000  0.0000  0.0000  0.0000  0.0000 </r>
        <r>  0.0001  0.0092  0.0122  0.0106  0.0000  0.0000  0.0000  0.0000  0.0000 </r>
       </set>
       <set comment="band 30">
        <r>  0.0005  0.0053  0.0004  0.0092  0.0680  0.0079  0.1464  0.0032  0.0346 </r>
        <r>  0.0005  0.0067  0.0004  0.0078  0.0369  0.0039  0.1388  0.0062  0.0645 </r>
        <r>  0.0000  0.0001  0.0000  0.0003  0.0000  0.0000  0.0000  0.0000  0.0000 </r>
        <r>  0.0000  0.0005  0.0000  0.0016  0.0001  0.0000  0.0000  0.0001  0.0002 </r>
        <r>  0.0000  0.0291  0.0119  0.0010  0.0000  0.0000  0.0000  0.0000  0.0000 </r>
        <r>  0.0000  0.0090  0.0000  0.0269  0.0000  0.0000  0.0000  0.0000  0.0000 </r>
        <r>  0.0000  0.0100  0.0119  0.0202  0.0000  0.0000  0.0000  0.0000  0.0000 </r>
        <r>  0.0000  0.0407  0.0025  0.0003  0.0000  0.0000  0.0000  0.0000  0.0000 </r>
        <r>  0.0000  0.0139  0.0000  0.0415  0.0000  0.0000  0.0000  0.0000  0.0000 </r>
        <r>  0.0000  0.0130  0.0024  0.0281  0.0000  0.0000  0.0000  0.0000  0.0000 </r>
       </set>
       <set comment="band 31">
        <r>  0.0015  0.0038  0.0000  0.0052  0.0013  0.0499  0.0287  0.0406  0.0020 </r>
        <r>  0.0015  0.0042  0.0000  0.0048  0.0015  0.0722  0.0278  0.0180  0.0017 </r>
        <r>  0.0022  0.0003  0.0521  0.0001  0.0000  0.0000  0.0000  0.0000  0.0000 </r>
        <r>  0.0139  0.0004  0.0787  0.0001  0.0001  0.0000  0.0080  0.0000  0.0000 </r>
        <r>  0.0008  0.0002  0.0161  0.0218  0.0000  0.0000  0.0000  0.0000  0.0000 </r>
        <r>  0.0018  0.0137  0.0399  0.0046  0.0000  0.0000  0.0000  0.0000  0.0000 </r>
        <r>  0.0008  0.0180  0.0162  0.0039  0.0000  0.0000  0.0000  0.0000  0.0000 </r>
        <r>  0.0017  0.0002  0.0182  0.0129  0.0000  0.0000  0.0000  0.0000  0.0000 </r>
        <r>  0.0028  0.0102  0.0435  0.0034  0.0000  0.0000  0.0000  0.0000  0.0000 </r>
        <r>  0.0017  0.0108  0.0180  0.0023  0.0000  0.0000  0.0000  0.0000  0.0000 </r>
       </set>
       <set comment="band 32">
        <r>  0.0000  0.0000  0.0000  0.0003  0.0281  0.0488  0.0011  0.1036  0.0615 </r>
        <r>  0.0000  0.0003  0.0000  0.0001  0.0336  0.0306  0.0009  0.1298  0.0569 </r>
        <r>  0.0029  0.0007  0.0072  0.0002  0.0000  0.0000  0.0000  0.0000  0.0000 </r>
        <r>  0.0066  0.0008  0.0175  0.0003  0.0004  0.0001  0.0031  0.0000  0.0001 </r>
        <r>  0.0022  0.0065  0.0143  0.0070  0.0000  0.0000  0.0000  0.0000  0.0000 </r>
        <r>  0.0100  0.0026  0.0379  0.0008  0.0000  0.0000  0.0000  0.0000  0.0000 </r>
        <r>  0.0024  0.0086  0.0153  0.0055  0.0000  0.0000  0.0000  0.0000  0.0000 </r>
        <r>  0.0023  0.0065  0.0140  0.0051  0.0000  0.0000  0.0000  0.0000  0.0000 </r>
        <r>  0.0092  0.0019  0.0435  0.0007  0.0000  0.0000  0.0000  0.0000  0.0000 </r>
        <r>  0.0021  0.0091  0.0131  0.0022  0.0000  0.0000  0.0000  0.0000  0.0000 </r>
       </set>
       <set comment="band 33">
        <r>  0.0004  0.0007  0.0003  0.0000  0.0281  0.1104  0.0056  0.0849  0.0213 </r>
        <r>  0.0004  0.0001  0.0003  0.0006  0.0303  0.1063  0.0054  0.0894  0.0210 </r>
        <r>  0.0000  0.0013  0.0000  0.0041  0.0000  0.0000  0.0000  0.0000  0.0000 </r>
        <r>  0.0000  0.0028  0.0000  0.0082  0.0006  0.0001  0.0000  0.0004  0.0018 </r>
        <r>  0.0060  0.0279  0.0161  0.0102  0.0000  0.0000  0.0000  0.0000  0.0000 </r>
        <r>  0.0000  0.0051  0.0000  0.0145  0.0000  0.0000  0.0000  0.0000  0.0000 </r>
        <r>  0.0057  0.0082  0.0147  0.0292  0.0000  0.0000  0.0000  0.0000  0.0000 </r>
        <r>  0.0044  0.0189  0.0124  0.0093  0.0000  0.0000  0.0000  0.0000  0.0000 </r>
        <r>  0.0000  0.0039  0.0000  0.0123  0.0000  0.0000  0.0000  0.0000  0.0000 </r>
        <r>  0.0047  0.0047  0.0136  0.0238  0.0000  0.0000  0.0000  0.0000  0.0000 </r>
       </set>
       <set comment="band 34">
        <r>  0.0000  0.0002  0.0001  0.0002  0.0807  0.0831  0.0060  0.0523  0.0160 </r>
        <r>  0.0000  0.0003  0.0001  0.0001  0.0607  0.0913  0.0062  0.0369  0.0330 </r>
        <r>  0.0029  0.0004  0.0017  0.0001  0.0000  0.0000  0.0000  0.0000  0.0000 </r>
        <r>  0.0100  0.0006  0.0024  0.0002  0.0002  0.0005  0.0025  0.0002  0.0001 </r>
        <r>  0.0043  0.0119  0.0409  0.0014  0.0000  0.0000  0.0000  0.0000  0.0000 </r>
        <r>  0.0022  0.0212  0.0107  0.0074  0.0000  0.0000  0.0000  0.0000  0.0000 </r>
        <r>  0.0044  0.0053  0.0413  0.0083  0.0000  0.0000  0.0000  0.0000  0.0000 </r>
        <r>  0.0036  0.0103  0.0342  0.0011  0.0000  0.0000  0.0000  0.0000  0.0000 </r>
        <r>  0.0014  0.0145  0.0091  0.0046  0.0000  0.0000  0.0000  0.0000  0.0000 </r>
        <r>  0.0035  0.0060  0.0339  0.0053  0.0000  0.0000  0.0000  0.0000  0.0000 </r>
       </set>
       <set comment="band 35">
        <r>  0.0004  0.0005  0.0003  0.0001  0.0101  0.0734  0.0001  0.1043  0.0174 </r>
        <r>  0.0004  0.0000  0.0003  0.0005  0.0129  0.0729  0.0001  0.1016  0.0136 </r>
        <r>  0.0000  0.0002  0.0000  0.0007  0.0000  0.0000  0.0000  0.0000  0.0000 </r>
        <r>  0.0000  0.0006  0.0000  0.0019  0.0001  0.0000  0.0000  0.0000  0.0004 </r>
        <r>  0.0014  0.0552  0.0017  0.0003  0.0000  0.0000  0.0000  0.0000  0.0000 </r>
        <r>  0.0000  0.0151  0.0000  0.0455  0.0000  0.0000  0.0000  0.0000  0.0000 </r>
        <r>  0.0014  0.0104  0.0017  0.0452  0.0000  0.0000  0.0000  0.0000  0.0000 </r>
        <r>  0.0010  0.0568  0.0016  0.0006  0.0000  0.0000  0.0000  0.0000  0.0000 </r>
        <r>  0.0000  0.0137  0.0000  0.0410  0.0000  0.0000  0.0000  0.0000  0.0000 </r>
        <r>  0.0010  0.0097  0.0016  0.0476  0.0000  0.0000  0.0000  0.0000  0.0000 </r>
       </set>
       <set comment="band 36">
        <r>  0.0000  0.0027  0.0003  0.0010  0.0014  0.0138  0.0002  0.0007  0.0067 </r>
        <r>  0.0000  0.0015  0.0003  0.0022  0.0068  0.0049  0.0003  0.0095  0.0012 </r>
        <r>  0.0273  0.0001  0.0026  0.0000  0.0000  0.0000  0.0000  0.0000  0.0000 </r>
        <r>  0.1203  0.0004  0.0814  0.0001  0.0002  0.0000  0.0027  0.0000  0.0001 </r>
        <r>  0.0076  0.0049  0.0028  0.0754  0.0000  0.0000  0.0000  0.0000  0.0000 </r>
        <r>  0.0034  0.0514  0.0070  0.0172  0.0000  0.0000  0.0000  0.0000  0.0000 </r>
        <r>  0.0076  0.0412  0.0028  0.0391  0.0000  0.0000  0.0000  0.0000  0.0000 </r>
        <r>  0.0039  0.0021  0.0088  0.0098  0.0000  0.0000  0.0000  0.0000  0.0000 </r>
        <r>  0.0025  0.0126  0.0033  0.0042  0.0000  0.0000  0.0000  0.0000  0.0000 </r>
        <r>  0.0039  0.0040  0.0087  0.0079  0.0000  0.0000  0.0000  0.0000  0.0000 </r>
       </set>
       <set comment="band 37">
        <r>  0.0000  0.0007  0.0000  0.0022  0.0105  0.0110  0.0003  0.0125  0.0035 </r>
        <r>  0.0000  0.0023  0.0000  0.0006  0.0054  0.0176  0.0003  0.0058  0.0085 </r>
        <r>  0.0904  0.0008  0.0755  0.0003  0.0000  0.0000  0.0000  0.0000  0.0000 </r>
        <r>  0.0052  0.0001  0.0109  0.0000  0.0000  0.0000  0.0013  0.0000  0.0000 </r>
        <r>  0.0002  0.0000  0.0073  0.0052  0.0000  0.0000  0.0000  0.0000  0.0000 </r>
        <r>  0.0006  0.0021  0.0020  0.0007  0.0000  0.0000  0.0000  0.0000  0.0000 </r>
        <r>  0.0002  0.0038  0.0073  0.0013  0.0000  0.0000  0.0000  0.0000  0.0000 </r>
        <r>  0.0079  0.0029  0.0132  0.0549  0.0000  0.0000  0.0000  0.0000  0.0000 </r>
        <r>  0.0035  0.0378  0.0142  0.0126  0.0000  0.0000  0.0000  0.0000  0.0000 </r>
        <r>  0.0080  0.0310  0.0132  0.0267  0.0000  0.0000  0.0000  0.0000  0.0000 </r>
       </set>
       <set comment="band 38">
        <r>  0.0393  0.0009  0.0026  0.0020  0.0008  0.0002  0.0020  0.0002  0.0002 </r>
        <r>  0.0395  0.0006  0.0026  0.0024  0.0006  0.0000  0.0020  0.0004  0.0005 </r>
        <r>  0.0003  0.0253  0.0002  0.0084  0.0000  0.0000  0.0000  0.0000  0.0000 </r>
        <r>  0.0005  0.0781  0.0002  0.0260  0.0095  0.0053  0.0002  0.0018  0.0032 </r>
        <r>  0.0023  0.0014  0.0010  0.0035  0.0000  0.0000  0.0000  0.0000  0.0000 </r>
        <r>  0.0173  0.0341  0.0011  0.0114  0.0000  0.0000  0.0000  0.0000  0.0000 </r>
        <r>  0.0023  0.0017  0.0010  0.0032  0.0000  0.0000  0.0000  0.0000  0.0000 </r>
        <r>  0.0018  0.0006  0.0018  0.0023  0.0000  0.0000  0.0000  0.0000  0.0000 </r>
        <r>  0.0122  0.0188  0.0010  0.0063  0.0000  0.0000  0.0000  0.0000  0.0000 </r>
        <r>  0.0018  0.0011  0.0018  0.0018  0.0000  0.0000  0.0000  0.0000  0.0000 </r>
       </set>
       <set comment="band 39">
        <r>  0.0266  0.0022  0.0022  0.0027  0.0046  0.0011  0.0034  0.0021  0.0006 </r>
        <r>  0.0265  0.0033  0.0022  0.0017  0.0017  0.0031  0.0034  0.0001  0.0035 </r>
        <r>  0.0000  0.0038  0.0000  0.0113  0.0000  0.0000  0.0000  0.0000  0.0000 </r>
        <r>  0.0000  0.0321  0.0000  0.0964  0.0037  0.0013  0.0000  0.0040  0.0110 </r>
        <r>  0.0127  0.0186  0.0004  0.0377  0.0000  0.0000  0.0000  0.0000  0.0000 </r>
        <r>  0.0000  0.0023  0.0000  0.0067  0.0000  0.0000  0.0000  0.0000  0.0000 </r>
        <r>  0.0127  0.0555  0.0004  0.0009  0.0000  0.0000  0.0000  0.0000  0.0000 </r>
        <r>  0.0033  0.0060  0.0010  0.0120  0.0000  0.0000  0.0000  0.0000  0.0000 </r>
        <r>  0.0000  0.0003  0.0000  0.0010  0.0000  0.0000  0.0000  0.0000  0.0000 </r>
        <r>  0.0033  0.0175  0.0010  0.0005  0.0000  0.0000  0.0000  0.0000  0.0000 </r>
       </set>
       <set comment="band 40">
        <r>  0.0256  0.0008  0.0065  0.0006  0.0010  0.0014  0.0026  0.0004  0.0082 </r>
        <r>  0.0256  0.0002  0.0065  0.0012  0.0065  0.0006  0.0026  0.0012  0.0027 </r>
        <r>  0.0049  0.0321  0.0065  0.0107  0.0000  0.0000  0.0000  0.0000  0.0000 </r>
        <r>  0.0027  0.0430  0.0097  0.0143  0.0091  0.0013  0.0023  0.0004  0.0030 </r>
        <r>  0.0010  0.0016  0.0030  0.0012  0.0000  0.0000  0.0000  0.0000  0.0000 </r>
        <r>  0.0155  0.0128  0.0093  0.0043  0.0000  0.0000  0.0000  0.0000  0.0000 </r>
        <r>  0.0010  0.0001  0.0030  0.0027  0.0000  0.0000  0.0000  0.0000  0.0000 </r>
        <r>  0.0020  0.0018  0.0056  0.0015  0.0000  0.0000  0.0000  0.0000  0.0000 </r>
        <r>  0.0192  0.0063  0.0004  0.0021  0.0000  0.0000  0.0000  0.0000  0.0000 </r>
        <r>  0.0021  0.0003  0.0057  0.0030  0.0000  0.0000  0.0000  0.0000  0.0000 </r>
       </set>
       <set comment="band 41">
        <r>  0.0182  0.0016  0.0042  0.0003  0.0020  0.0044  0.0017  0.0025  0.0055 </r>
        <r>  0.0183  0.0003  0.0042  0.0015  0.0040  0.0026  0.0017  0.0043  0.0034 </r>
        <r>  0.0000  0.0184  0.0000  0.0555  0.0000  0.0000  0.0000  0.0000  0.0000 </r>
        <r>  0.0000  0.0081  0.0000  0.0246  0.0017  0.0009  0.0000  0.0028  0.0053 </r>
        <r>  0.0037  0.0032  0.0021  0.0033  0.0000  0.0000  0.0000  0.0000  0.0000 </r>
        <r>  0.0000  0.0022  0.0000  0.0064  0.0000  0.0000  0.0000  0.0000  0.0000 </r>
        <r>  0.0037  0.0061  0.0022  0.0005  0.0000  0.0000  0.0000  0.0000  0.0000 </r>
        <r>  0.0140  0.0139  0.0023  0.0182  0.0000  0.0000  0.0000  0.0000  0.0000 </r>
        <r>  0.0000  0.0047  0.0000  0.0137  0.0000  0.0000  0.0000  0.0000  0.0000 </r>
        <r>  0.0140  0.0306  0.0023  0.0014  0.0000  0.0000  0.0000  0.0000  0.0000 </r>
       </set>
       <set comment="band 42">
        <r>  0.0033  0.0027  0.0000  0.0021  0.0063  0.0025  0.0004  0.0034  0.0036 </r>
        <r>  0.0030  0.0044  0.0000  0.0005  0.0039  0.0025  0.0004  0.0035  0.0060 </r>
        <r>  0.0574  0.0066  0.0298  0.0021  0.0000  0.0000  0.0000  0.0000  0.0000 </r>
        <r>  0.0256  0.0074  0.0399  0.0024  0.0016  0.0003  0.0148  0.0001  0.0005 </r>
        <r>  0.0005  0.0006  0.0098  0.0007  0.0000  0.0000  0.0000  0.0000  0.0000 </r>
        <r>  0.0020  0.0046  0.0210  0.0015  0.0000  0.0000  0.0000  0.0000  0.0000 </r>
        <r>  0.0005  0.0011  0.0097  0.0001  0.0000  0.0000  0.0000  0.0000  0.0000 </r>
        <r>  0.0003  0.0000  0.0042  0.0051  0.0000  0.0000  0.0000  0.0000  0.0000 </r>
        <r>  0.0050  0.0101  0.0246  0.0035  0.0000  0.0000  0.0000  0.0000  0.0000 </r>
        <r>  0.0003  0.0040  0.0042  0.0012  0.0000  0.0000  0.0000  0.0000  0.0000 </r>
       </set>
       <set comment="band 43">
        <r>  0.0027  0.0003  0.0008  0.0040  0.0014  0.0001  0.0023  0.0002  0.0013 </r>
        <r>  0.0027  0.0028  0.0008  0.0015  0.0002  0.0002  0.0023  0.0001  0.0025 </r>
        <r>  0.0057  0.0004  0.0022  0.0001  0.0000  0.0000  0.0000  0.0000  0.0000 </r>
        <r>  0.0049  0.0071  0.0056  0.0024  0.0020  0.0003  0.0032  0.0001  0.0007 </r>
        <r>  0.0006  0.0010  0.0004  0.0013  0.0000  0.0000  0.0000  0.0000  0.0000 </r>
        <r>  0.0012  0.0058  0.0044  0.0019  0.0000  0.0000  0.0000  0.0000  0.0000 </r>
        <r>  0.0006  0.0008  0.0004  0.0015  0.0000  0.0000  0.0000  0.0000  0.0000 </r>
        <r>  0.0003  0.0010  0.0006  0.0009  0.0000  0.0000  0.0000  0.0000  0.0000 </r>
        <r>  0.0020  0.0018  0.0001  0.0006  0.0000  0.0000  0.0000  0.0000  0.0000 </r>
        <r>  0.0003  0.0002  0.0006  0.0018  0.0000  0.0000  0.0000  0.0000  0.0000 </r>
       </set>
       <set comment="band 44">
        <r>  0.0198  0.0037  0.0082  0.0018  0.0017  0.0005  0.0044  0.0003  0.0047 </r>
        <r>  0.0199  0.0012  0.0083  0.0042  0.0037  0.0004  0.0044  0.0004  0.0027 </r>
        <r>  0.0014  0.0083  0.0013  0.0028  0.0000  0.0000  0.0000  0.0000  0.0000 </r>
        <r>  0.0004  0.0140  0.0012  0.0047  0.0020  0.0017  0.0006  0.0006  0.0007 </r>
        <r>  0.0002  0.0052  0.0001  0.0001  0.0000  0.0000  0.0000  0.0000  0.0000 </r>
        <r>  0.0028  0.0033  0.0064  0.0011  0.0000  0.0000  0.0000  0.0000  0.0000 </r>
        <r>  0.0002  0.0008  0.0001  0.0046  0.0000  0.0000  0.0000  0.0000  0.0000 </r>
        <r>  0.0003  0.0061  0.0020  0.0001  0.0000  0.0000  0.0000  0.0000  0.0000 </r>
        <r>  0.0002  0.0055  0.0128  0.0018  0.0000  0.0000  0.0000  0.0000  0.0000 </r>
        <r>  0.0003  0.0014  0.0020  0.0048  0.0000  0.0000  0.0000  0.0000  0.0000 </r>
       </set>
       <set comment="band 45">
        <r>  0.0085  0.0022  0.0035  0.0016  0.0017  0.0002  0.0017  0.0002  0.0021 </r>
        <r>  0.0082  0.0031  0.0034  0.0007  0.0016  0.0002  0.0017  0.0001  0.0023 </r>
        <r>  0.0000  0.0003  0.0000  0.0008  0.0000  0.0000  0.0000  0.0000  0.0000 </r>
        <r>  0.0000  0.0014  0.0000  0.0040  0.0003  0.0001  0.0000  0.0003  0.0009 </r>
        <r>  0.0037  0.0021  0.0067  0.0012  0.0000  0.0000  0.0000  0.0000  0.0000 </r>
        <r>  0.0000  0.0012  0.0000  0.0038  0.0000  0.0000  0.0000  0.0000  0.0000 </r>
        <r>  0.0037  0.0028  0.0067  0.0005  0.0000  0.0000  0.0000  0.0000  0.0000 </r>
        <r>  0.0013  0.0008  0.0067  0.0004  0.0000  0.0000  0.0000  0.0000  0.0000 </r>
        <r>  0.0000  0.0011  0.0000  0.0034  0.0000  0.0000  0.0000  0.0000  0.0000 </r>
        <r>  0.0013  0.0002  0.0068  0.0010  0.0000  0.0000  0.0000  0.0000  0.0000 </r>
       </set>
       <set comment="band 46">
        <r>  0.0010  0.0014  0.0013  0.0007  0.0002  0.0001  0.0018  0.0000  0.0003 </r>
        <r>  0.0010  0.0006  0.0013  0.0015  0.0003  0.0000  0.0018  0.0001  0.0002 </r>
        <r>  0.0000  0.0016  0.0000  0.0048  0.0000  0.0000  0.0000  0.0000  0.0000 </r>
        <r>  0.0000  0.0013  0.0000  0.0039  0.0001  0.0000  0.0000  0.0001  0.0002 </r>
        <r>  0.0005  0.0001  0.0008  0.0028  0.0000  0.0000  0.0000  0.0000  0.0000 </r>
        <r>  0.0000  0.0001  0.0000  0.0003  0.0000  0.0000  0.0000  0.0000  0.0000 </r>
        <r>  0.0005  0.0023  0.0008  0.0005  0.0000  0.0000  0.0000  0.0000  0.0000 </r>
        <r>  0.0015  0.0015  0.0057  0.0038  0.0000  0.0000  0.0000  0.0000  0.0000 </r>
        <r>  0.0000  0.0005  0.0000  0.0014  0.0000  0.0000  0.0000  0.0000  0.0000 </r>
        <r>  0.0015  0.0049  0.0056  0.0004  0.0000  0.0000  0.0000  0.0000  0.0000 </r>
       </set>
       <set comment="band 47">
        <r>  0.0258  0.0004  0.0042  0.0025  0.0002  0.0005  0.0018  0.0009  0.0000 </r>
        <r>  0.0259  0.0014  0.0041  0.0015  0.0000  0.0010  0.0018  0.0004  0.0002 </r>
        <r>  0.0019  0.0130  0.0113  0.0043  0.0000  0.0000  0.0000  0.0000  0.0000 </r>
        <r>  0.0012  0.0059  0.0096  0.0020  0.0001  0.0026  0.0034  0.0009  0.0000 </r>
        <r>  0.0001  0.0039  0.0053  0.0001  0.0000  0.0000  0.0000  0.0000  0.0000 </r>
        <r>  0.0004  0.0003  0.0183  0.0001  0.0000  0.0000  0.0000  0.0000  0.0000 </r>
        <r>  0.0001  0.0005  0.0053  0.0035  0.0000  0.0000  0.0000  0.0000  0.0000 </r>
        <r>  0.0001  0.0062  0.0041  0.0007  0.0000  0.0000  0.0000  0.0000  0.0000 </r>
        <r>  0.0024  0.0031  0.0073  0.0010  0.0000  0.0000  0.0000  0.0000  0.0000 </r>
        <r>  0.0001  0.0003  0.0041  0.0067  0.0000  0.0000  0.0000  0.0000  0.0000 </r>
       </set>
       <set comment="band 48">
        <r>  0.0590  0.0029  0.0025  0.0027  0.0007  0.0003  0.0038  0.0007  0.0007 </r>
        <r>  0.0587  0.0027  0.0025  0.0030  0.0003  0.0005  0.0038  0.0006  0.0010 </r>
        <r>  0.0000  0.0019  0.0000  0.0058  0.0000  0.0000  0.0000  0.0000  0.0000 </r>
        <r>  0.0000  0.0020  0.0000  0.0059  0.0004  0.0003  0.0000  0.0009  0.0013 </r>
        <r>  0.0033  0.0034  0.0157  0.0003  0.0000  0.0000  0.0000  0.0000  0.0000 </r>
        <r>  0.0000  0.0038  0.0000  0.0113  0.0000  0.0000  0.0000  0.0000  0.0000 </r>
        <r>  0.0033  0.0020  0.0157  0.0018  0.0000  0.0000  0.0000  0.0000  0.0000 </r>
        <r>  0.0045  0.0038  0.0106  0.0014  0.0000  0.0000  0.0000  0.0000  0.0000 </r>
        <r>  0.0000  0.0062  0.0000  0.0186  0.0000  0.0000  0.0000  0.0000  0.0000 </r>
        <r>  0.0045  0.0039  0.0106  0.0014  0.0000  0.0000  0.0000  0.0000  0.0000 </r>
       </set>
      </set>
     </set>
    </set>
   </array>
  </projected>
 </calculation>
 <structure name="finalpos" >
  <crystal>
   <varray name="basis" >
    <v>       5.88115658       0.00000007      -0.00000000 </v>
    <v>       2.94057796       5.09323083       0.00000000 </v>
    <v>      -0.00000000       0.00000000      21.51834065 </v>
   </varray>
   <i name="volume">    644.56226551 </i>
   <varray name="rec_basis" >
    <v>       0.17003458      -0.09816950       0.00000000 </v>
    <v>      -0.00000000       0.19633903      -0.00000000 </v>
    <v>       0.00000000      -0.00000000       0.04647198 </v>
   </varray>
  </crystal>
  <varray name="positions" >
   <v>       0.33333300       0.33333300       0.50095645 </v>
   <v>       0.66666700       0.66666700       0.50101880 </v>
   <v>       0.00000000       0.00000000       0.44330010 </v>
   <v>       0.00000000       0.00000000       0.55178400 </v>
   <v>       0.61631788       0.00005900       0.56908087 </v>
   <v>       0.00005900       0.38362412       0.56908087 </v>
   <v>       0.38362412       0.61631788       0.56908087 </v>
   <v>       0.36103339       0.99993084       0.43028874 </v>
   <v>       0.99993084       0.63903477       0.43028874 </v>
   <v>       0.63903477       0.36103339       0.43028874 </v>
  </varray>
  <varray name="selective"  type="logical" >
   <v type="logical" >  T  T  T </v>
   <v type="logical" >  T  T  T </v>
   <v type="logical" >  T  T  T </v>
   <v type="logical" >  F  F  F </v>
   <v type="logical" >  T  T  T </v>
   <v type="logical" >  T  T  T </v>
   <v type="logical" >  T  T  T </v>
   <v type="logical" >  T  T  T </v>
   <v type="logical" >  T  T  T </v>
   <v type="logical" >  T  T  T </v>
  </varray>
  <nose>
   <v>      -3.00000000       0.00000000       0.00010000       0.00010000 </v>
  </nose>
 </structure>
</modeling>
