unknown system                          
           1
     6.907777   -0.000000    0.000000
     3.453888    5.982310    0.000000
     0.000000    0.000000   23.444588
   Ni   Si   Ge   S 
   2   1   1   6
Direct configuration=     1
   0.33333300  0.33333300  0.49992500
   0.66666700  0.66666700  0.50007500
   0.00000000  0.00000000  0.44821600
   0.00000000  0.00000000  0.55178400
   0.62635700  0.00042000  0.57375200
   0.00042000  0.37322400  0.57375200
   0.37322400  0.62635700  0.57375200
   0.37364300  0.99958000  0.42624800
   0.99958000  0.62677600  0.42624800
   0.62677600  0.37364300  0.42624800
unknown system                          
           1
     5.935299    0.000000    0.000000
     2.967649    5.140119   -0.000000
    -0.000000   -0.000000   21.749762
   Ni   Si   Ge   S 
   2   1   1   6
Direct configuration=     2
   0.33333300  0.33333300  0.50001208
   0.66666700  0.66666700  0.50011552
   0.00000000  0.00000000  0.44642432
   0.00000000  0.00000000  0.55178400
   0.63244815  0.00039308  0.57048872
   0.00039308  0.36715978  0.57048872
   0.36715978  0.63244815  0.57048872
   0.36404994  0.99961169  0.42967076
   0.99961169  0.63633737  0.42967076
   0.63633737  0.36404994  0.42967076
unknown system                          
           1
     5.889261    0.000000    0.000000
     2.944630    5.100250   -0.000000
    -0.000000   -0.000000   21.669528
   Ni   Si   Ge   S 
   2   1   1   6
Direct configuration=     3
   0.33333300  0.33333300  0.50001652
   0.66666700  0.66666700  0.50011758
  -0.00000000 -0.00000000  0.44633289
   0.00000000  0.00000000  0.55178400
   0.63278375  0.00039159  0.57032220
   0.00039159  0.36682566  0.57032220
   0.36682566  0.63278375  0.57032220
   0.36352139  0.99961344  0.42984542
   0.99961344  0.63686417  0.42984542
   0.63686417  0.36352139  0.42984542
unknown system                          
           1
     5.880585    0.000000    0.000000
     2.940292    5.092736    0.000000
    -0.000000   -0.000000   21.559582
   Ni   Si   Ge   S 
   2   1   1   6
Direct configuration=     4
   0.33333300  0.33333300  0.50018361
   0.66666700  0.66666700  0.50029190
   0.00000000  0.00000000  0.44461691
   0.00000000  0.00000000  0.55178400
   0.62434445  0.00029988  0.56999720
   0.00029988  0.37535667  0.56999720
   0.37535667  0.62434445  0.56999720
   0.36171302  0.99971307  0.43045413
   0.99971307  0.63857291  0.43045413
   0.63857291  0.36171302  0.43045413
unknown system                          
           1
     5.872575    0.000000    0.000000
     2.936287    5.085799    0.000000
    -0.000000    0.000000   21.458074
   Ni   Si   Ge   S 
   2   1   1   6
Direct configuration=     5
   0.33333300  0.33333300  0.50033867
   0.66666700  0.66666700  0.50045365
   0.00000000  0.00000000  0.44302454
   0.00000000  0.00000000  0.55178400
   0.61654134  0.00021508  0.56969561
   0.00021508  0.38324458  0.56969561
   0.38324458  0.61654134  0.56969561
   0.36004097  0.99980518  0.43101899
   0.99980518  0.64015284  0.43101899
   0.64015284  0.36004097  0.43101899
unknown system                          
           1
     5.888395    0.000000   -0.000000
     2.944197    5.099499    0.000000
    -0.000000    0.000000   21.452294
   Ni   Si   Ge   S 
   2   1   1   6
Direct configuration=     6
   0.33333300  0.33333300  0.50079388
   0.66666700  0.66666700  0.50089451
   0.00000000  0.00000000  0.44314004
   0.00000000  0.00000000  0.55178400
   0.61543042  0.00014631  0.56941685
   0.00014631  0.38442427  0.56941685
   0.38442427  0.61543042  0.56941685
   0.36097346  0.99986067  0.43071578
   0.99986067  0.63916488  0.43071578
   0.63916488  0.36097346  0.43071578
unknown system                          
           1
     5.885611    0.000000   -0.000000
     2.942805    5.097089    0.000000
    -0.000000    0.000000   21.453311
   Ni   Si   Ge   S 
   2   1   1   6
Direct configuration=     7
   0.33333300  0.33333300  0.50071377
   0.66666700  0.66666700  0.50081693
   0.00000000  0.00000000  0.44311972
   0.00000000  0.00000000  0.55178400
   0.61562534  0.00015837  0.56946591
   0.00015837  0.38421728  0.56946591
   0.38421728  0.61562534  0.56946591
   0.36080984  0.99985093  0.43076914
   0.99985093  0.63933822  0.43076914
   0.63933822  0.36080984  0.43076914
unknown system                          
           1
     5.874889    0.000000   -0.000000
     2.937444    5.087803    0.000000
    -0.000000    0.000000   21.419675
   Ni   Si   Ge   S 
   2   1   1   6
Direct configuration=     8
   0.33333300  0.33333300  0.50110034
   0.66666700  0.66666700  0.50118863
   0.00000000  0.00000000  0.44330471
   0.00000000  0.00000000  0.55178400
   0.61552765  0.00007400  0.56915665
   0.00007400  0.38439935  0.56915665
   0.38439935  0.61552765  0.56915665
   0.36137586  0.99989015  0.43043576
   0.99989015  0.63873299  0.43043576
   0.63873299  0.36137586  0.43043576
unknown system                          
           1
     5.880288    0.000000   -0.000000
     2.940143    5.092478    0.000000
    -0.000000    0.000000   21.436609
   Ni   Si   Ge   S 
   2   1   1   6
Direct configuration=     9
   0.33333300  0.33333300  0.50090541
   0.66666700  0.66666700  0.50100120
   0.00000000  0.00000000  0.44321143
   0.00000000  0.00000000  0.55178400
   0.61557692  0.00011655  0.56931259
   0.00011655  0.38430752  0.56931259
   0.38430752  0.61557692  0.56931259
   0.36109038  0.99987037  0.43060387
   0.99987037  0.63903826  0.43060387
   0.63903826  0.36109038  0.43060387
unknown system                          
           1
     5.879584    0.000000   -0.000000
     2.939791    5.091869    0.000000
    -0.000000    0.000000   21.475234
   Ni   Si   Ge   S 
   2   1   1   6
Direct configuration=    10
   0.33333300  0.33333300  0.50102395
   0.66666700  0.66666700  0.50109788
   0.00000000  0.00000000  0.44327959
   0.00000000  0.00000000  0.55178400
   0.61599848  0.00008448  0.56915643
   0.00008448  0.38391804  0.56915643
   0.38391804  0.61599848  0.56915643
   0.36117293  0.99991540  0.43037260
   0.99991540  0.63891067  0.43037260
   0.63891067  0.36117293  0.43037260
unknown system                          
           1
     5.879351    0.000000   -0.000000
     2.939675    5.091667    0.000000
    -0.000000    0.000000   21.488014
   Ni   Si   Ge   S 
   2   1   1   6
Direct configuration=    11
   0.33333300  0.33333300  0.50106310
   0.66666700  0.66666700  0.50112981
   0.00000000  0.00000000  0.44330210
   0.00000000  0.00000000  0.55178400
   0.61613799  0.00007386  0.56910485
   0.00007386  0.38378915  0.56910485
   0.38378915  0.61613799  0.56910485
   0.36120024  0.99993030  0.43029622
   0.99993030  0.63886845  0.43029622
   0.63886845  0.36120024  0.43029622
unknown system                          
           1
     5.882184    0.000000   -0.000000
     2.941092    5.094120    0.000000
    -0.000000    0.000000   21.535591
   Ni   Si   Ge   S 
   2   1   1   6
Direct configuration=    12
   0.33333300  0.33333300  0.50089600
   0.66666700  0.66666700  0.50095588
   0.00000000  0.00000000  0.44329897
   0.00000000  0.00000000  0.55178400
   0.61642013  0.00005055  0.56906727
   0.00005055  0.38353032  0.56906727
   0.38353032  0.61642013  0.56906727
   0.36093855  0.99993114  0.43028450
   0.99993114  0.63912931  0.43028450
   0.63912931  0.36093855  0.43028450
unknown system                          
           1
     5.881157    0.000000   -0.000000
     2.940578    5.093231    0.000000
    -0.000000    0.000000   21.518341
   Ni   Si   Ge   S 
   2   1   1   6
Direct configuration=    13
   0.33333300  0.33333300  0.50095645
   0.66666700  0.66666700  0.50101880
   0.00000000  0.00000000  0.44330010
   0.00000000  0.00000000  0.55178400
   0.61631788  0.00005900  0.56908087
   0.00005900  0.38362412  0.56908087
   0.38362412  0.61631788  0.56908087
   0.36103339  0.99993084  0.43028874
   0.99993084  0.63903477  0.43028874
   0.63903477  0.36103339  0.43028874
