 vasp.5.4.4.18Apr17-6-g9f103f2a35 (build May  1 2020 15:48:39) complex           
 executed on             LinuxGNU date 2020.07.02  05:24:04
 running on    8 total cores
 distrk:  each k-point on    8 cores,    1 groups
 distr:  one band on NCORES_PER_BAND=   1 cores,    8 groups


--------------------------------------------------------------------------------------------------------


 INCAR:
 POTCAR:   PAW_PBE Cr 06Sep2000                   
 POTCAR:   PAW_PBE Ge 05Jan2001                   
 POTCAR:   PAW_PBE Si 05Jan2001                   
 POTCAR:    PAW_PBE S 17Jan2003                   

 ----------------------------------------------------------------------------- 
|                                                                             |
|           W    W    AA    RRRRR   N    N  II  N    N   GGGG   !!!           |
|           W    W   A  A   R    R  NN   N  II  NN   N  G    G  !!!           |
|           W    W  A    A  R    R  N N  N  II  N N  N  G       !!!           |
|           W WW W  AAAAAA  RRRRR   N  N N  II  N  N N  G  GGG   !            |
|           WW  WW  A    A  R   R   N   NN  II  N   NN  G    G                |
|           W    W  A    A  R    R  N    N  II  N    N   GGGG   !!!           |
|                                                                             |
|      For optimal performance we recommend to set                            |
|        NCORE= 4 - approx SQRT( number of cores)                             |
|      NCORE specifies how many cores store one orbital (NPAR=cpu/NCORE).     |
|      This setting can  greatly improve the performance of VASP for DFT.     |
|      The default,   NCORE=1            might be grossly inefficient         |
|      on modern multi-core architectures or massively parallel machines.     |
|      Do your own testing !!!!                                               |
|      Unfortunately you need to use the default for GW and RPA calculations. |
|      (for HF NCORE is supported but not extensively tested yet)             |
|                                                                             |
 ----------------------------------------------------------------------------- 


 ----------------------------------------------------------------------------- 
|                                                                             |
|  ADVICE TO THIS USER RUNNING 'VASP/VAMP'   (HEAR YOUR MASTER'S VOICE ...):  |
|                                                                             |
|      You have switched on vdW-DFT.                                          |
|      This routine was written and supplied by Jiri Klimes.                  |
|      We recommed that you carefully read and cite the following             |
|      publication                                                            |
|      J. Klimes, D.R. Bowler, A. Michelides                                  |
|        J. Phys.: Cond Matt. 22 022201 (2010)                                |
|      J. Klimes, D.R. Bowler, A. Michelides                                  |
|        Phys. Rev. B. 83, 195131 (2011)                                      |
|      and references therein.                                                |
|                                                                             |
 ----------------------------------------------------------------------------- 

 POTCAR:   PAW_PBE Cr 06Sep2000                   
   VRHFIN =Cr : d5 s1                                                           
   LEXCH  = PE                                                                  
   EATOM  =   276.9744 eV,   20.3570 Ry                                         
                                                                                
   TITEL  = PAW_PBE Cr 06Sep2000                                                
   LULTRA =        F    use ultrasoft PP ?                                      
   IUNSCR =        1    unscreen: 0-lin 1-nonlin 2-no                           
   RPACOR =    2.080    partial core radius                                     
   POMASS =   51.996; ZVAL   =    6.000    mass and valenz                      
   RCORE  =    2.500    outmost cutoff radius                                   
   RWIGS  =    2.500; RWIGS  =    1.323    wigner-seitz radius (au A)           
   ENMAX  =  227.082; ENMIN  =  170.311 eV                                      
   RCLOC  =    1.721    cutoff for local pot                                    
   LCOR   =        T    correct aug charges                                     
   LPAW   =        T    paw PP                                                  
   EAUG   =  402.108                                                            
   DEXC   =    -.035                                                            
   RMAX   =    3.060    core radius for proj-oper                               
   RAUG   =    1.300    factor for augmentation sphere                          
   RDEP   =    2.609    radius for radial grids                                 
   QCUT   =   -4.085; QGAM   =    8.171    optimization parameters              
                                                                                
   Description                                                                  
     l     E      TYP  RCUT    TYP  RCUT                                        
     2   .000     23  2.500                                                     
     2   .000     23  2.500                                                     
     0   .000     23  2.500                                                     
     0   .000     23  2.500                                                     
     1  -.400     23  2.500                                                     
     1  2.000     23  2.500                                                     
     3   .000      7   .000                                                     
  local pseudopotential read in
  partial core-charges read in
  atomic valenz-charges read in
  non local Contribution for L=           2  read in
    real space projection operators read in
  non local Contribution for L=           2  read in
    real space projection operators read in
  non local Contribution for L=           0  read in
    real space projection operators read in
  non local Contribution for L=           0  read in
    real space projection operators read in
  non local Contribution for L=           1  read in
    real space projection operators read in
  non local Contribution for L=           1  read in
    real space projection operators read in
    PAW grid and wavefunctions read in

   number of l-projection  operators is LMAX  =           6
   number of lm-projection operators is LMMAX =          18

 POTCAR:   PAW_PBE Ge 05Jan2001                   
   VRHFIN =Ge: s2p2                                                             
   LEXCH  = PE                                                                  
   EATOM  =   104.9960 eV,    7.7170 Ry                                         
                                                                                
   TITEL  = PAW_PBE Ge 05Jan2001                                                
   LULTRA =        F    use ultrasoft PP ?                                      
   IUNSCR =        1    unscreen: 0-lin 1-nonlin 2-no                           
   RPACOR =    2.170    partial core radius                                     
   POMASS =   72.610; ZVAL   =    4.000    mass and valenz                      
   RCORE  =    2.300    outmost cutoff radius                                   
   RWIGS  =    2.300; RWIGS  =    1.217    wigner-seitz radius (au A)           
   ENMAX  =  173.807; ENMIN  =  130.355 eV                                      
   ICORE  =        3    local potential                                         
   LCOR   =        T    correct aug charges                                     
   LPAW   =        T    paw PP                                                  
   EAUG   =  385.843                                                            
   DEXC   =    -.138                                                            
   RMAX   =    3.497    core radius for proj-oper                               
   RAUG   =    1.300    factor for augmentation sphere                          
   RDEP   =    2.318    radius for radial grids                                 
   QCUT   =   -3.574; QGAM   =    7.148    optimization parameters              
                                                                                
   Description                                                                  
     l     E      TYP  RCUT    TYP  RCUT                                        
     0   .000     23  2.300                                                     
     0   .000     23  2.300                                                     
     1   .000     23  2.300                                                     
     1   .000     23  2.300                                                     
     2   .000     23  2.300                                                     
     3  -.100      7  2.300                                                     
  local pseudopotential read in
  partial core-charges read in
  atomic valenz-charges read in
  non local Contribution for L=           0  read in
    real space projection operators read in
  non local Contribution for L=           0  read in
    real space projection operators read in
  non local Contribution for L=           1  read in
    real space projection operators read in
  non local Contribution for L=           1  read in
    real space projection operators read in
  non local Contribution for L=           2  read in
    real space projection operators read in
    PAW grid and wavefunctions read in

   number of l-projection  operators is LMAX  =           5
   number of lm-projection operators is LMMAX =          13

 POTCAR:   PAW_PBE Si 05Jan2001                   
   VRHFIN =Si: s2p2                                                             
   LEXCH  = PE                                                                  
   EATOM  =   103.0669 eV,    7.5752 Ry                                         
                                                                                
   TITEL  = PAW_PBE Si 05Jan2001                                                
   LULTRA =        F    use ultrasoft PP ?                                      
   IUNSCR =        1    unscreen: 0-lin 1-nonlin 2-no                           
   RPACOR =    1.500    partial core radius                                     
   POMASS =   28.085; ZVAL   =    4.000    mass and valenz                      
   RCORE  =    1.900    outmost cutoff radius                                   
   RWIGS  =    2.480; RWIGS  =    1.312    wigner-seitz radius (au A)           
   ENMAX  =  245.345; ENMIN  =  184.009 eV                                      
   ICORE  =        2    local potential                                         
   LCOR   =        T    correct aug charges                                     
   LPAW   =        T    paw PP                                                  
   EAUG   =  322.069                                                            
   DEXC   =    -.007                                                            
   RMAX   =    2.944    core radius for proj-oper                               
   RAUG   =    1.300    factor for augmentation sphere                          
   RDEP   =    1.993    radius for radial grids                                 
   QCUT   =   -4.246; QGAM   =    8.493    optimization parameters              
                                                                                
   Description                                                                  
     l     E      TYP  RCUT    TYP  RCUT                                        
     0   .000     23  1.900                                                     
     0   .000     23  1.900                                                     
     1   .000     23  1.900                                                     
     1   .000     23  1.900                                                     
     2   .000      7  1.900                                                     
  local pseudopotential read in
  partial core-charges read in
  atomic valenz-charges read in
  non local Contribution for L=           0  read in
    real space projection operators read in
  non local Contribution for L=           0  read in
    real space projection operators read in
  non local Contribution for L=           1  read in
    real space projection operators read in
  non local Contribution for L=           1  read in
    real space projection operators read in
    PAW grid and wavefunctions read in

   number of l-projection  operators is LMAX  =           4
   number of lm-projection operators is LMMAX =           8

 POTCAR:    PAW_PBE S 17Jan2003                   
   VRHFIN =S : s2p4                                                             
   LEXCH  = PE                                                                  
   EATOM  =   276.8230 eV,   20.3459 Ry                                         
                                                                                
   TITEL  = PAW_PBE S 17Jan2003                                                 
   LULTRA =        F    use ultrasoft PP ?                                      
   IUNSCR =        1    unscreen: 0-lin 1-nonlin 2-no                           
   RPACOR =    1.500    partial core radius                                     
   POMASS =   32.066; ZVAL   =    6.000    mass and valenz                      
   RCORE  =    1.900    outmost cutoff radius                                   
   RWIGS  =    2.200; RWIGS  =    1.164    wigner-seitz radius (au A)           
   ENMAX  =  280.000; ENMIN  =  194.016 eV                                      
   ICORE  =        2    local potential                                         
   LCOR   =        T    correct aug charges                                     
   LPAW   =        T    paw PP                                                  
   EAUG   =  335.092                                                            
   DEXC   =     .000                                                            
   RMAX   =    2.867    core radius for proj-oper                               
   RAUG   =    1.300    factor for augmentation sphere                          
   RDEP   =    1.954    radius for radial grids                                 
   QCUT   =   -4.360; QGAM   =    8.721    optimization parameters              
                                                                                
   Description                                                                  
     l     E      TYP  RCUT    TYP  RCUT                                        
     0   .000     23  1.900                                                     
     0   .000     23  1.900                                                     
     1   .000     23  1.900                                                     
     1   .000     23  1.900                                                     
     2   .000     23  1.900                                                     
  local pseudopotential read in
  partial core-charges read in
  atomic valenz-charges read in
  non local Contribution for L=           0  read in
    real space projection operators read in
  non local Contribution for L=           0  read in
    real space projection operators read in
  non local Contribution for L=           1  read in
    real space projection operators read in
  non local Contribution for L=           1  read in
    real space projection operators read in
    PAW grid and wavefunctions read in

   number of l-projection  operators is LMAX  =           4
   number of lm-projection operators is LMMAX =           8

 Optimization of the real space projectors (new method)

 maximal supplied QI-value         = 15.12
 optimisation between [QCUT,QGAM] = [ 11.64, 23.28] = [ 37.95,151.78] Ry 
 Optimized for a Real-space Cutoff    1.49 Angstroem

   l    n(q)    QCUT    max X(q) W(low)/X(q) W(high)/X(q)  e(spline) 
   2      9    11.641     4.777    0.25E-04    0.21E-05    0.63E-07
   2      9    11.641    31.132    0.13E-03    0.22E-03    0.64E-06
   0     10    11.641    20.416    0.11E-04    0.74E-05    0.19E-07
   0     10    11.641    45.408    0.10E-03    0.85E-04    0.30E-06
   1     10    11.641     7.848    0.22E-04    0.23E-04    0.56E-07
   1     10    11.641     9.895    0.85E-04    0.54E-04    0.16E-06
 Optimization of the real space projectors (new method)

 maximal supplied QI-value         = 16.25
 optimisation between [QCUT,QGAM] = [ 11.54, 23.24] = [ 37.28,151.24] Ry 
 Optimized for a Real-space Cutoff    1.28 Angstroem

   l    n(q)    QCUT    max X(q) W(low)/X(q) W(high)/X(q)  e(spline) 
   0      9    11.539     8.651    0.22E-04    0.16E-04    0.10E-07
   0      9    11.539    33.192    0.11E-03    0.16E-03    0.65E-07
   1      8    11.539     5.899    0.37E-04    0.28E-04    0.43E-07
   1      8    11.539    27.289    0.22E-03    0.28E-04    0.14E-06
   2      8    11.539     4.673    0.11E-03    0.18E-03    0.58E-07
 Optimization of the real space projectors (new method)

 maximal supplied QI-value         = 19.84
 optimisation between [QCUT,QGAM] = [ 11.51, 23.22] = [ 37.09,150.92] Ry 
 Optimized for a Real-space Cutoff    1.21 Angstroem

   l    n(q)    QCUT    max X(q) W(low)/X(q) W(high)/X(q)  e(spline) 
   0      8    11.508     8.708    0.18E-04    0.44E-05    0.47E-08
   0      8    11.508   106.241    0.70E-04    0.15E-03    0.51E-07
   1      8    11.508     5.901    0.63E-05    0.23E-04    0.21E-07
   1      8    11.508    73.241    0.15E-03    0.36E-04    0.79E-07
 Optimization of the real space projectors (new method)

 maximal supplied QI-value         = 19.84
 optimisation between [QCUT,QGAM] = [ 11.51, 23.22] = [ 37.09,150.92] Ry 
 Optimized for a Real-space Cutoff    1.21 Angstroem

   l    n(q)    QCUT    max X(q) W(low)/X(q) W(high)/X(q)  e(spline) 
   0      8    11.508     5.487    0.18E-04    0.22E-05    0.47E-08
   0      8    11.508    85.627    0.96E-04    0.18E-03    0.54E-07
   1      8    11.508     3.530    0.17E-04    0.28E-04    0.21E-07
   1      8    11.508    42.714    0.18E-03    0.63E-04    0.92E-07

 ----------------------------------------------------------------------------- 
|                                                                             |
|  ADVICE TO THIS USER RUNNING 'VASP/VAMP'   (HEAR YOUR MASTER'S VOICE ...):  |
|                                                                             |
|      You enforced a specific xc-type in the INCAR file,                     |
|      a different type was found on the POTCAR file                          |
|          I HOPE YOU KNOW, WHAT YOU ARE  DOING                               |
|                                                                             |
 ----------------------------------------------------------------------------- 

 PAW_PBE Cr 06Sep2000                   :
 energy of atom  1       EATOM= -276.9744
 kinetic energy error for atom=    0.0010 (will be added to EATOM!!)
 PAW_PBE Ge 05Jan2001                   :
 energy of atom  2       EATOM= -104.9960
 kinetic energy error for atom=    0.0002 (will be added to EATOM!!)
 PAW_PBE Si 05Jan2001                   :
 energy of atom  3       EATOM= -103.0669
 kinetic energy error for atom=    0.0005 (will be added to EATOM!!)
  PAW_PBE S 17Jan2003                   :
 energy of atom  4       EATOM= -276.8230
 kinetic energy error for atom=    0.0016 (will be added to EATOM!!)


 POSCAR: Cr2 Ge Si S6                            
  positions in direct lattice
  velocities in cartesian coordinates
  No initial velocities read in
 exchange correlation table for  LEXCH =       42
   RHO(1)=    0.500       N(1)  =     2000
   RHO(2)=  100.500       N(2)  =     4000



--------------------------------------------------------------------------------------------------------


 ion  position               nearest neighbor table
   1  0.333  0.333  0.500-   6 2.78   5 2.78   7 2.78   8 2.78  10 2.78   9 2.78
   2  0.667  0.667  0.500-   9 2.78   8 2.78  10 2.78   5 2.78   7 2.78   6 2.78
   3  0.000  0.000  0.448-   4 2.43   8 2.63  10 2.63   9 2.63
   4  0.000  0.000  0.552-   3 2.43   5 2.63   7 2.63   6 2.63
   5  0.626  0.000  0.574-   4 2.63   1 2.78   2 2.78
   6  0.000  0.373  0.574-   4 2.63   1 2.78   2 2.78
   7  0.373  0.626  0.574-   4 2.63   1 2.78   2 2.78
   8  0.374  1.000  0.426-   3 2.63   2 2.78   1 2.78
   9  1.000  0.627  0.426-   3 2.63   2 2.78   1 2.78
  10  0.627  0.374  0.426-   3 2.63   2 2.78   1 2.78

  LATTYP: Found a hexagonal cell.
 ALAT       =     6.9077769333
 C/A-ratio  =     3.3939410937
  
  Lattice vectors:
  
 A1 = (   3.4538890000,  -5.9823100000,   0.0000000000)
 A2 = (  -6.9077770000,   0.0000000000,   0.0000000000)
 A3 = (   0.0000000000,   0.0000000000, -23.4445880000)


Analysis of symmetry for initial positions (statically):
=====================================================================
 Subroutine PRICEL returns:
 Original cell was already a primitive cell.
 

 Routine SETGRP: Setting up the symmetry group for a 
 hexagonal supercell.


 Subroutine GETGRP returns: Found  3 space group operations
 (whereof  3 operations were pure point group operations)
 out of a pool of 24 trial point group operations.


The static configuration has the point symmetry C_3 .


Analysis of symmetry for dynamics (positions and initial velocities):
=====================================================================
 Subroutine PRICEL returns:
 Original cell was already a primitive cell.
 

 Routine SETGRP: Setting up the symmetry group for a 
 hexagonal supercell.


 Subroutine GETGRP returns: Found  3 space group operations
 (whereof  3 operations were pure point group operations)
 out of a pool of 24 trial point group operations.


The dynamic configuration has the point symmetry C_3 .


Analysis of constrained symmetry for selective dynamics:
=====================================================================
 Subroutine PRICEL returns:
 Original cell was already a primitive cell.
 

 Routine SETGRP: Setting up the symmetry group for a 
 hexagonal supercell.


 Subroutine GETGRP returns: Found  3 space group operations
 (whereof  3 operations were pure point group operations)
 out of a pool of 24 trial point group operations.


The constrained configuration has the point symmetry C_3 .


Analysis of structural, dynamic, and magnetic symmetry:
=====================================================================
 Subroutine PRICEL returns:
 Original cell was already a primitive cell.
 

 Routine SETGRP: Setting up the symmetry group for a 
 hexagonal supercell.


 Subroutine GETGRP returns: Found  3 space group operations
 (whereof  3 operations were pure point group operations)
 out of a pool of 24 trial point group operations.


The magnetic configuration has the point symmetry C_3 .


 Subroutine INISYM returns: Found  3 space group operations
 (whereof  3 operations are pure point group operations),
 and found     1 'primitive' translations



 KPOINTS: Kpoints from vasprun.xml                

Automatic generation of k-mesh.
Space group operators:
 irot       det(A)        alpha          n_x          n_y          n_z        tau_x        tau_y        tau_z
    1     1.000000     0.000000     1.000000     0.000000     0.000000     0.000000     0.000000     0.000000
    2     1.000000   120.000000     0.000000     0.000000     1.000000     0.000000     0.000000     0.000000
    3     1.000000   120.000000     0.000000     0.000000    -1.000000     0.000000     0.000000     0.000000
 
 Subroutine IBZKPT returns following result:
 ===========================================
 
 Found      5 irreducible k-points:
 
 Following reciprocal coordinates:
            Coordinates               Weight
  0.000000  0.000000  0.000000      1.000000
  0.200000  0.000000  0.000000      6.000000
  0.400000  0.000000  0.000000      6.000000
  0.400000  0.200000  0.000000      6.000000
 -0.400000  0.200000  0.000000      6.000000
 
 Following cartesian coordinates:
            Coordinates               Weight
  0.000000  0.000000  0.000000      1.000000
  0.028953 -0.016716  0.000000      6.000000
  0.057906 -0.033432  0.000000      6.000000
  0.057906  0.000000  0.000000      6.000000
 -0.057906  0.066864  0.000000      6.000000
 
 TETIRR: Found     15 inequivalent tetrahedra from      150


--------------------------------------------------------------------------------------------------------




 Dimension of arrays:
   k-points           NKPTS =      5   k-points in BZ     NKDIM =      5   number of bands    NBANDS=     40
   number of dos      NEDOS =    301   number of ions     NIONS =     10
   non local maximal  LDIM  =      6   non local SUM 2l+1 LMDIM =     18
   total plane-waves  NPLWV = 524880
   max r-space proj   IRMAX =   7543   max aug-charges    IRDMAX=  29641
   dimension x,y,z NGX =    54 NGY =   54 NGZ =  180
   dimension x,y,z NGXF=   108 NGYF=  108 NGZF=  360
   support grid    NGXF=   108 NGYF=  108 NGZF=  360
   ions per type =               2   1   1   6
   NGX,Y,Z   is equivalent  to a cutoff of  13.00, 13.00, 12.76 a.u.
   NGXF,Y,Z  is equivalent  to a cutoff of  25.99, 25.99, 25.53 a.u.

 SYSTEM =  unknown system                          
 POSCAR =  Cr2 Ge Si S6                            

 Startparameter for this run:
   NWRITE =      2    write-flag & timer
   PREC   = accura    normal or accurate (medium, high low for compatibility)
   ISTART =      0    job   : 0-new  1-cont  2-samecut
   ICHARG =      2    charge: 1-file 2-atom 10-const
   ISPIN  =      2    spin polarized calculation?
   LNONCOLLINEAR =      F non collinear calculations
   LSORBIT =      F    spin-orbit coupling
   INIWAV =      1    electr: 0-lowe 1-rand  2-diag
   LASPH  =      F    aspherical Exc in radial PAW
   METAGGA=      F    non-selfconsistent MetaGGA calc.

 Electronic Relaxation 1
   ENCUT  =  520.0 eV  38.22 Ry    6.18 a.u.  12.84 12.84 43.59*2*pi/ulx,y,z
   ENINI  =  520.0     initial cutoff
   ENAUG  =  402.1 eV  augmentation charge cutoff
   NELM   =    400;   NELMIN=  2; NELMDL=  0     # of ELM steps 
   EDIFF  = 0.1E-03   stopping-criterion for ELM
   LREAL  =      T    real-space projection
   NLSPLINE    = F    spline interpolate recip. space projectors
   LCOMPAT=      F    compatible to vasp.4.4
   GGA_COMPAT  = T    GGA compatible to vasp.4.4-vasp.4.6
   LMAXPAW     = -100 max onsite density
   LMAXMIX     =    2 max onsite mixed and CHGCAR
   VOSKOWN=      0    Vosko Wilk Nusair interpolation
   ROPT   =   -0.00025  -0.00025  -0.00025  -0.00025
 Ionic relaxation
   EDIFFG = 0.1E-02   stopping-criterion for IOM
   NSW    =     99    number of steps for IOM
   NBLOCK =      1;   KBLOCK =     99    inner block; outer block 
   IBRION =      2    ionic relax: 0-MD 1-quasi-New 2-CG
   NFREE  =      1    steps in history (QN), initial steepest desc. (CG)
   ISIF   =      3    stress and relaxation
   IWAVPR =     11    prediction:  0-non 1-charg 2-wave 3-comb
   ISYM   =      2    0-nonsym 1-usesym 2-fastsym
   LCORR  =      T    Harris-Foulkes like correction to forces

   POTIM  = 0.5000    time-step for ionic-motion
   TEIN   =    0.0    initial temperature
   TEBEG  =    0.0;   TEEND  =   0.0 temperature during run
   SMASS  =  -3.00    Nose mass-parameter (am)
   estimated Nose-frequenzy (Omega)   =  0.10E-29 period in steps =****** mass=  -0.109E-26a.u.
   SCALEE = 1.0000    scale energy and forces
   NPACO  =    256;   APACO  = 16.0  distance and # of slots for P.C.
   PSTRESS=    0.0 pullay stress

  Mass of Ions in am
   POMASS =  52.00 72.61 28.09 32.07
  Ionic Valenz
   ZVAL   =   6.00  4.00  4.00  6.00
  Atomic Wigner-Seitz radii
   RWIGS  =  -1.00 -1.00 -1.00 -1.00
  virtual crystal weights 
   VCA    =   1.00  1.00  1.00  1.00
   NELECT =      56.0000    total number of electrons
   NUPDOWN=      -1.0000    fix difference up-down

 DOS related values:
   EMIN   =  10.00;   EMAX   =-10.00  energy-range for DOS
   EFERMI =   0.00
   ISMEAR =    -5;   SIGMA  =   0.05  broadening in eV -4-tet -1-fermi 0-gaus

 Electronic relaxation 2 (details)
   IALGO  =     38    algorithm
   LDIAG  =      T    sub-space diagonalisation (order eigenvalues)
   LSUBROT=      F    optimize rotation matrix (better conditioning)
   TURBO    =      0    0=normal 1=particle mesh
   IRESTART =      0    0=no restart 2=restart with 2 vectors
   NREBOOT  =      0    no. of reboots
   NMIN     =      0    reboot dimension
   EREF     =   0.00    reference energy to select bands
   IMIX   =      4    mixing-type and parameters
     AMIX     =   0.40;   BMIX     =  1.00
     AMIX_MAG =   1.60;   BMIX_MAG =  1.00
     AMIN     =   0.01
     WC   =   100.;   INIMIX=   1;  MIXPRE=   1;  MAXMIX= -45

 Intra band minimization:
   WEIMIN = 0.0010     energy-eigenvalue tresh-hold
   EBREAK =  0.63E-06  absolut break condition
   DEPER  =   0.30     relativ break condition  

   TIME   =   0.40     timestep for ELM

  volume/ion in A,a.u.               =      96.88       653.80
  Fermi-wavevector in a.u.,A,eV,Ry     =   0.632976  1.196152  5.451299  0.400659
  Thomas-Fermi vector in A             =   1.696476

 Write flags
   LWAVE        =      F    write WAVECAR
   LDOWNSAMPLE  =      F    k-point downsampling of WAVECAR
   LCHARG       =      T    write CHGCAR
   LVTOT        =      F    write LOCPOT, total local potential
   LVHAR        =      F    write LOCPOT, Hartree potential only
   LELF         =      F    write electronic localiz. function (ELF)
   LORBIT       =     11    0 simple, 1 ext, 2 COOP (PROOUT), +10 PAW based schemes


 Dipole corrections
   LMONO  =      F    monopole corrections only (constant potential shift)
   LDIPOL =      F    correct potential (dipole corrections)
   IDIPOL =      0    1-x, 2-y, 3-z, 4-all directions 
   EPSILON=  1.0000000 bulk dielectric constant

 Exchange correlation treatment:
   GGA     =    BO    GGA type
   LEXCH   =    42    internal setting for exchange type
   VOSKOWN=      0    Vosko Wilk Nusair interpolation
   LHFCALC =     F    Hartree Fock is set to
   LHFONE  =     F    Hartree Fock one center treatment
   AEXX    =    0.0000 exact exchange contribution

 vdW DFT:
   LUSE_VDW   =     T    switch on vdW DFT
   Zab_VDW    =-.8491    correlation parameter
   PARAM1     =0.1833
   PARAM2     =0.2200
   PARAM3     =0.0000
   -- rVV10 --
   BPARAM     = 6.3000
   CPARAM     = 0.0093

 Linear response parameters
   LEPSILON=     F    determine dielectric tensor
   LRPA    =     F    only Hartree local field effects (RPA)
   LNABLA  =     F    use nabla operator in PAW spheres
   LVEL    =     F    velocity operator in full k-point grid
   LINTERFAST=   F  fast interpolation
   KINTER  =     0    interpolate to denser k-point grid
   CSHIFT  =0.1000    complex shift for real part using Kramers Kronig
   OMEGAMAX=  -1.0    maximum frequency
   DEG_THRESHOLD= 0.2000000E-02 threshold for treating states as degnerate
   RTIME   =   -0.100 relaxation time in fs
  (WPLASMAI=    0.000 imaginary part of plasma frequency in eV, 0.658/RTIME)
   DFIELD  = 0.0000000 0.0000000 0.0000000 field for delta impulse in time

 Orbital magnetization related:
   ORBITALMAG=     F  switch on orbital magnetization
   LCHIMAG   =     F  perturbation theory with respect to B field
   DQ        =  0.001000  dq finite difference perturbation B field
   LLRAUG    =     F  two centre corrections for induced B field



--------------------------------------------------------------------------------------------------------


 conjugate gradient relaxation of ions
   using selective dynamics as specified on POSCAR
 charge density and potential will be updated during run
 spin polarized calculation
 Variant of blocked Davidson
 Davidson routine will perform the subspace rotation
 perform sub-space diagonalisation
    after iterative eigenvector-optimisation
 modified Broyden-mixing scheme, WC =      100.0
 initial mixing is a Kerker type mixing with AMIX =  0.4000 and BMIX =      1.0000
 Hartree-type preconditioning will be used
 using additional bands           12
 real space projection scheme for non local part
 use partial core corrections
 calculate Harris-corrections to forces   (improved forces if not selfconsistent)
 use gradient corrections 
 use of overlap-Matrix (Vanderbilt PP)
 Fermi weights with tetrahedron method with Bloechl corrections


--------------------------------------------------------------------------------------------------------


  energy-cutoff  :      520.00
  volume of cell :      968.84
      direct lattice vectors                 reciprocal lattice vectors
     6.907777000 -0.000000000  0.000000000     0.144764372 -0.083579742  0.000000000
     3.453888000  5.982310000  0.000000000     0.000000000  0.167159509 -0.000000000
     0.000000000  0.000000000 23.444588000    -0.000000000  0.000000000  0.042653767

  length of vectors
     6.907777000  6.907776433 23.444588000     0.167159495  0.167159509  0.042653767



 k-points in units of 2pi/SCALE and weight: Kpoints from vasprun.xml                
   0.00000000  0.00000000  0.00000000       0.040
   0.02895287 -0.01671595  0.00000000       0.240
   0.05790575 -0.03343190  0.00000000       0.240
   0.05790575  0.00000000  0.00000000       0.240
  -0.05790575  0.06686380  0.00000000       0.240

 k-points in reciprocal lattice and weights: Kpoints from vasprun.xml                
   0.00000000  0.00000000  0.00000000       0.040
   0.20000000  0.00000000  0.00000000       0.240
   0.40000000  0.00000000  0.00000000       0.240
   0.40000000  0.20000000  0.00000000       0.240
  -0.40000000  0.20000000  0.00000000       0.240

 position of ions in fractional coordinates (direct lattice) 
   0.33333300  0.33333300  0.49992500
   0.66666700  0.66666700  0.50007500
   0.00000000  0.00000000  0.44821600
   0.00000000  0.00000000  0.55178400
   0.62635700  0.00042000  0.57375200
   0.00042000  0.37322400  0.57375200
   0.37322400  0.62635700  0.57375200
   0.37364300  0.99958000  0.42624800
   0.99958000  0.62677600  0.42624800
   0.62677600  0.37364300  0.42624800

 position of ions in cartesian coordinates  (Angst):
   3.45388488  1.99410134 11.72053566
   6.90778012  3.98820866 11.72405234
   0.00000000  0.00000000 10.50823946
   0.00000000  0.00000000 12.93634854
   4.32818511  0.00251257 13.45137925
   1.29197516  2.23274167 13.45137925
   4.74151509  3.74706174 13.45137925
   6.03347989  5.97979743  9.99320875
   9.06968984  3.74956833  9.99320875
   5.62014991  2.23524826  9.99320875



--------------------------------------------------------------------------------------------------------


 k-point  1 :   0.0000 0.0000 0.0000  plane waves:   26073
 k-point  2 :   0.2000 0.0000 0.0000  plane waves:   26070
 k-point  3 :   0.4000 0.0000 0.0000  plane waves:   26086
 k-point  4 :   0.4000 0.2000 0.0000  plane waves:   26085
 k-point  5 :  -0.4000 0.2000 0.0000  plane waves:   26115

 maximum and minimum number of plane-waves per node :     26115    26070

 maximum number of plane-waves:     26115
 maximum index in each direction: 
   IXMAX=   13   IYMAX=   12   IZMAX=   43
   IXMIN=  -13   IYMIN=  -13   IZMIN=  -43


 serial   3D FFT for wavefunctions
 parallel 3D FFT for charge:
    minimum data exchange during FFTs selected (reduces bandwidth)


 total amount of memory used by VASP MPI-rank0   172196. kBytes
=======================================================================

   base      :      30000. kBytes
   nonlr-proj:       6036. kBytes
   fftplans  :      20284. kBytes
   grid      :      94580. kBytes
   one-center:        311. kBytes
   wavefun   :      20985. kBytes

     INWAV:  cpu time    0.0000: real time    0.0005
 Broyden mixing: mesh for mixing (old mesh)
   NGX = 25   NGY = 25   NGZ = 87
  (NGX  =108   NGY  =108   NGZ  =360)
  gives a total of  54375 points

 initial charge density was supplied:
 charge density of overlapping atoms calculated
 number of electron      56.0000000 magnetization       6.0000000
 keeping initial charge density in first step


--------------------------------------------------------------------------------------------------------


 Maximum index for non-local projection operator         7247
 Maximum index for augmentation-charges         4076 (set IRDMAX)


--------------------------------------------------------------------------------------------------------


 First call to EWALD:  gamma=   0.179
 Maximum number of real-space cells 4x 4x 1
 Maximum number of reciprocal cells 2x 2x 6

    FEWALD:  cpu time    0.0040: real time    0.0020


--------------------------------------- Iteration      1(   1)  ---------------------------------------


vdW kernel read from vdw_kernel.bindat
  0.0000  0.2424  0.5071  0.7962  1.1119  1.4567  1.8333  2.2446  2.6937  3.1842
  3.7199  4.3049  4.9438  5.6415  6.4036  7.2358  8.1446  9.1372 10.2212 11.4050
 12.6979 14.1099 15.6519 17.3360 19.1751 21.1837 23.3773 25.7729 28.3892 31.2465
 34.3669 37.7748 41.4965 45.5611 50.0000

    POTLOK:  cpu time  111.7440: real time  112.5215
    SETDIJ:  cpu time    0.0560: real time    0.0562
     EDDAV:  cpu time   20.1960: real time   20.4366
 BZINTS: Fermi energy:  6.125300; 56.000000 electrons
         Band energy:  13.636258;  BLOECHL correction: -0.054902
       DOS:  cpu time    0.0040: real time    0.0040
    --------------------------------------------
      LOOP:  cpu time  132.0000: real time  133.0183

 eigenvalue-minimisations  :   800
 total energy-change (2. order) : 0.4316351E+03  (-0.1588701E+04)
 number of electron      56.0000000 magnetization       6.0000000
 augmentation part       56.0000000 magnetization       6.0000000

 Free energy of the ion-electron system (eV)
  ---------------------------------------------------
  alpha Z        PSCENC =        19.93249583
  Ewald energy   TEWEN  =      5985.89955237
  -Hartree energ DENC   =     -8126.32762610
  -exchange      EXHF   =         0.00000000
  -V(xc)+E(xc)   XCENC  =         8.72487904
  PAW double counting   =      1121.76638338    -1024.58584483
  entropy T*S    EENTRO =         0.00000000
  eigenvalues    EBANDS =        13.63625849
  atomic energy  EATOM  =      2432.58897501
  Solvation  Ediel_sol  =         0.00000000
  ---------------------------------------------------
  free energy    TOTEN  =       431.63507319 eV

  energy without entropy =      431.63507319  energy(sigma->0) =      431.63507319


--------------------------------------------------------------------------------------------------------




--------------------------------------- Iteration      1(   2)  ---------------------------------------


     EDDAV:  cpu time   25.7840: real time   25.9544
 BZINTS: Fermi energy: -0.438874; 56.000000 electrons
         Band energy:-369.949886;  BLOECHL correction: -0.086984
       DOS:  cpu time    0.0040: real time    0.0039
    --------------------------------------------
      LOOP:  cpu time   25.7880: real time   25.9583

 eigenvalue-minimisations  :  1088
 total energy-change (2. order) :-0.3835861E+03  (-0.3679144E+03)
 number of electron      56.0000000 magnetization       6.0000000
 augmentation part       56.0000000 magnetization       6.0000000

 Free energy of the ion-electron system (eV)
  ---------------------------------------------------
  alpha Z        PSCENC =        19.93249583
  Ewald energy   TEWEN  =      5985.89955237
  -Hartree energ DENC   =     -8126.32762610
  -exchange      EXHF   =         0.00000000
  -V(xc)+E(xc)   XCENC  =         8.72487904
  PAW double counting   =      1121.76638338    -1024.58584483
  entropy T*S    EENTRO =         0.00000000
  eigenvalues    EBANDS =      -369.94988638
  atomic energy  EATOM  =      2432.58897501
  Solvation  Ediel_sol  =         0.00000000
  ---------------------------------------------------
  free energy    TOTEN  =        48.04892832 eV

  energy without entropy =       48.04892832  energy(sigma->0) =       48.04892832


--------------------------------------------------------------------------------------------------------




--------------------------------------- Iteration      1(   3)  ---------------------------------------


     EDDAV:  cpu time   39.8840: real time   40.1170
 BZINTS: Fermi energy: -2.209055; 56.000000 electrons
         Band energy:-468.357960;  BLOECHL correction: -0.019208
       DOS:  cpu time    0.0040: real time    0.0047
    --------------------------------------------
      LOOP:  cpu time   39.8880: real time   40.1217

 eigenvalue-minimisations  :  1184
 total energy-change (2. order) :-0.9840807E+02  (-0.9513813E+02)
 number of electron      56.0000000 magnetization       6.0000000
 augmentation part       56.0000000 magnetization       6.0000000

 Free energy of the ion-electron system (eV)
  ---------------------------------------------------
  alpha Z        PSCENC =        19.93249583
  Ewald energy   TEWEN  =      5985.89955237
  -Hartree energ DENC   =     -8126.32762610
  -exchange      EXHF   =         0.00000000
  -V(xc)+E(xc)   XCENC  =         8.72487904
  PAW double counting   =      1121.76638338    -1024.58584483
  entropy T*S    EENTRO =         0.00000000
  eigenvalues    EBANDS =      -468.35796049
  atomic energy  EATOM  =      2432.58897501
  Solvation  Ediel_sol  =         0.00000000
  ---------------------------------------------------
  free energy    TOTEN  =       -50.35914579 eV

  energy without entropy =      -50.35914579  energy(sigma->0) =      -50.35914579


--------------------------------------------------------------------------------------------------------




--------------------------------------- Iteration      1(   4)  ---------------------------------------


     EDDAV:  cpu time   38.9520: real time   39.3223
 BZINTS: Fermi energy: -2.316854; 56.000000 electrons
         Band energy:-476.195008;  BLOECHL correction:  0.000000
       DOS:  cpu time    0.0000: real time    0.0009
    --------------------------------------------
      LOOP:  cpu time   38.9520: real time   39.3233

 eigenvalue-minimisations  :  1136
 total energy-change (2. order) :-0.7837048E+01  (-0.7354624E+01)
 number of electron      56.0000000 magnetization       6.0000000
 augmentation part       56.0000000 magnetization       6.0000000

 Free energy of the ion-electron system (eV)
  ---------------------------------------------------
  alpha Z        PSCENC =        19.93249583
  Ewald energy   TEWEN  =      5985.89955237
  -Hartree energ DENC   =     -8126.32762610
  -exchange      EXHF   =         0.00000000
  -V(xc)+E(xc)   XCENC  =         8.72487904
  PAW double counting   =      1121.76638338    -1024.58584483
  entropy T*S    EENTRO =         0.00000000
  eigenvalues    EBANDS =      -476.19500817
  atomic energy  EATOM  =      2432.58897501
  Solvation  Ediel_sol  =         0.00000000
  ---------------------------------------------------
  free energy    TOTEN  =       -58.19619346 eV

  energy without entropy =      -58.19619346  energy(sigma->0) =      -58.19619346


--------------------------------------------------------------------------------------------------------




--------------------------------------- Iteration      1(   5)  ---------------------------------------


     EDDAV:  cpu time   27.9360: real time   28.1322
 BZINTS: Fermi energy: -2.334386; 56.000000 electrons
         Band energy:-476.598564;  BLOECHL correction:  0.000000
       DOS:  cpu time    0.0000: real time    0.0015
    CHARGE:  cpu time    2.0240: real time    2.0270
    MIXING:  cpu time    0.0520: real time    0.0516
    --------------------------------------------
      LOOP:  cpu time   30.0120: real time   30.2124

 eigenvalue-minimisations  :  1192
 total energy-change (2. order) :-0.4035559E+00  (-0.3949358E+00)
 number of electron      55.9999997 magnetization       5.5711250
 augmentation part       -4.9254193 magnetization       4.9204667

 Broyden mixing:
  rms(total) = 0.27932E+01    rms(broyden)= 0.27932E+01
  rms(prec ) = 0.31469E+01
  weight for this iteration     100.00

 Free energy of the ion-electron system (eV)
  ---------------------------------------------------
  alpha Z        PSCENC =        19.93249583
  Ewald energy   TEWEN  =      5985.89955237
  -Hartree energ DENC   =     -8126.32762610
  -exchange      EXHF   =         0.00000000
  -V(xc)+E(xc)   XCENC  =         8.72487904
  PAW double counting   =      1121.76638338    -1024.58584483
  entropy T*S    EENTRO =         0.00000000
  eigenvalues    EBANDS =      -476.59856409
  atomic energy  EATOM  =      2432.58897501
  Solvation  Ediel_sol  =         0.00000000
  ---------------------------------------------------
  free energy    TOTEN  =       -58.59974939 eV

  energy without entropy =      -58.59974939  energy(sigma->0) =      -58.59974939


--------------------------------------------------------------------------------------------------------




--------------------------------------- Iteration      1(   6)  ---------------------------------------


    POTLOK:  cpu time  103.7920: real time  104.7027
    SETDIJ:  cpu time    0.0480: real time    0.0513
     EDDAV:  cpu time   25.1480: real time   26.1444
 BZINTS: Fermi energy: -5.063400; 56.000000 electrons
         Band energy:-622.727847;  BLOECHL correction: -0.037996
       DOS:  cpu time    0.0040: real time    0.0048
    CHARGE:  cpu time    1.9960: real time    2.0138
    MIXING:  cpu time    0.0720: real time    0.0693
    --------------------------------------------
      LOOP:  cpu time  131.0600: real time  132.9863

 eigenvalue-minimisations  :  1064
 total energy-change (2. order) :-0.9356348E+02  (-0.6492095E+02)
 number of electron      55.9999994 magnetization       5.4415632
 augmentation part        9.7973181 magnetization       3.9242509

 Broyden mixing:
  rms(total) = 0.65345E+01    rms(broyden)= 0.65345E+01
  rms(prec ) = 0.73697E+01
  weight for this iteration     100.00

 eigenvalues of (default mixing * dielectric matrix)
  average eigenvalue GAMMA=   0.3002
  0.3002

 Free energy of the ion-electron system (eV)
  ---------------------------------------------------
  alpha Z        PSCENC =        19.93249583
  Ewald energy   TEWEN  =      5985.89955237
  -Hartree energ DENC   =     -8084.65008539
  -exchange      EXHF   =         0.00000000
  -V(xc)+E(xc)   XCENC  =         9.27041580
  PAW double counting   =      1044.26141262     -936.73814855
  entropy T*S    EENTRO =         0.00000000
  eigenvalues    EBANDS =      -622.72784688
  atomic energy  EATOM  =      2432.58897501
  Solvation  Ediel_sol  =         0.00000000
  ---------------------------------------------------
  free energy    TOTEN  =      -152.16322919 eV

  energy without entropy =     -152.16322919  energy(sigma->0) =     -152.16322919


--------------------------------------------------------------------------------------------------------




--------------------------------------- Iteration      1(   7)  ---------------------------------------


    POTLOK:  cpu time  103.7960: real time  104.2996
    SETDIJ:  cpu time    0.0560: real time    0.0564
     EDDAV:  cpu time   24.6400: real time   25.5722
 BZINTS: Fermi energy: -4.385193; 56.000000 electrons
         Band energy:-470.630891;  BLOECHL correction:  0.000000
       DOS:  cpu time    0.0000: real time    0.0018
    CHARGE:  cpu time    1.9680: real time    1.9956
    MIXING:  cpu time    0.0480: real time    0.0877
    --------------------------------------------
      LOOP:  cpu time  130.5080: real time  132.0133

 eigenvalue-minimisations  :  1024
 total energy-change (2. order) : 0.1074433E+03  (-0.1307276E+02)
 number of electron      55.9999996 magnetization       5.4637562
 augmentation part       -0.1676564 magnetization       3.1371894

 Broyden mixing:
  rms(total) = 0.19418E+01    rms(broyden)= 0.19417E+01
  rms(prec ) = 0.19559E+01
  weight for this iteration     100.00

 eigenvalues of (default mixing * dielectric matrix)
  average eigenvalue GAMMA=   0.2915
  0.2915  0.2915

 Free energy of the ion-electron system (eV)
  ---------------------------------------------------
  alpha Z        PSCENC =        19.93249583
  Ewald energy   TEWEN  =      5985.89955237
  -Hartree energ DENC   =     -8118.06344548
  -exchange      EXHF   =         0.00000000
  -V(xc)+E(xc)   XCENC  =         8.44376364
  PAW double counting   =      1113.07100054    -1015.96136584
  entropy T*S    EENTRO =         0.00000000
  eigenvalues    EBANDS =      -470.63089103
  atomic energy  EATOM  =      2432.58897501
  Solvation  Ediel_sol  =         0.00000000
  ---------------------------------------------------
  free energy    TOTEN  =       -44.71991495 eV

  energy without entropy =      -44.71991495  energy(sigma->0) =      -44.71991495


--------------------------------------------------------------------------------------------------------




--------------------------------------- Iteration      1(   8)  ---------------------------------------


    POTLOK:  cpu time  104.1160: real time  106.1535
    SETDIJ:  cpu time    0.0640: real time    0.0619
     EDDAV:  cpu time   22.9560: real time   23.2759
 BZINTS: Fermi energy: -4.585764; 56.000000 electrons
         Band energy:-474.346371;  BLOECHL correction:  0.000000
       DOS:  cpu time    0.0040: real time    0.0019
    CHARGE:  cpu time    1.9400: real time    2.0039
    MIXING:  cpu time    0.0440: real time    0.0539
    --------------------------------------------
      LOOP:  cpu time  129.1240: real time  131.5511

 eigenvalue-minimisations  :   936
 total energy-change (2. order) :-0.2527285E+01  (-0.1005119E+01)
 number of electron      55.9999996 magnetization       5.5107166
 augmentation part       -0.3266294 magnetization       3.3861140

 Broyden mixing:
  rms(total) = 0.12519E+01    rms(broyden)= 0.12519E+01
  rms(prec ) = 0.12679E+01
  weight for this iteration     100.00

 eigenvalues of (default mixing * dielectric matrix)
  average eigenvalue GAMMA=   0.4941
  0.5918  0.5918  0.2986

 Free energy of the ion-electron system (eV)
  ---------------------------------------------------
  alpha Z        PSCENC =        19.93249583
  Ewald energy   TEWEN  =      5985.89955237
  -Hartree energ DENC   =     -8117.49841529
  -exchange      EXHF   =         0.00000000
  -V(xc)+E(xc)   XCENC  =         8.83972258
  PAW double counting   =      1111.62956761    -1014.29272704
  entropy T*S    EENTRO =         0.00000000
  eigenvalues    EBANDS =      -474.34637087
  atomic energy  EATOM  =      2432.58897501
  Solvation  Ediel_sol  =         0.00000000
  ---------------------------------------------------
  free energy    TOTEN  =       -47.24719979 eV

  energy without entropy =      -47.24719979  energy(sigma->0) =      -47.24719979


--------------------------------------------------------------------------------------------------------




--------------------------------------- Iteration      1(   9)  ---------------------------------------


    POTLOK:  cpu time  104.0960: real time  105.1363
    SETDIJ:  cpu time    0.0520: real time    0.0507
     EDDAV:  cpu time   28.7080: real time   28.8716
 BZINTS: Fermi energy: -4.628921; 56.000000 electrons
         Band energy:-471.922674;  BLOECHL correction:  0.000000
       DOS:  cpu time    0.0000: real time    0.0017
    CHARGE:  cpu time    1.9280: real time    2.0143
    MIXING:  cpu time    0.0640: real time    0.0614
    --------------------------------------------
      LOOP:  cpu time  134.8480: real time  136.1361

 eigenvalue-minimisations  :  1232
 total energy-change (2. order) :-0.8365482E+00  (-0.9957208E-01)
 number of electron      55.9999996 magnetization       5.5771804
 augmentation part       -0.4607035 magnetization       3.8310500

 Broyden mixing:
  rms(total) = 0.79436E+00    rms(broyden)= 0.79436E+00
  rms(prec ) = 0.80209E+00
  weight for this iteration     100.00

 eigenvalues of (default mixing * dielectric matrix)
  average eigenvalue GAMMA=   0.6473
  0.9015  0.9015  0.3018  0.4842

 Free energy of the ion-electron system (eV)
  ---------------------------------------------------
  alpha Z        PSCENC =        19.93249583
  Ewald energy   TEWEN  =      5985.89955237
  -Hartree energ DENC   =     -8121.98261224
  -exchange      EXHF   =         0.00000000
  -V(xc)+E(xc)   XCENC  =        10.13483518
  PAW double counting   =      1118.79578884    -1021.53010898
  entropy T*S    EENTRO =         0.00000000
  eigenvalues    EBANDS =      -471.92267403
  atomic energy  EATOM  =      2432.58897501
  Solvation  Ediel_sol  =         0.00000000
  ---------------------------------------------------
  free energy    TOTEN  =       -48.08374801 eV

  energy without entropy =      -48.08374801  energy(sigma->0) =      -48.08374801


--------------------------------------------------------------------------------------------------------




--------------------------------------- Iteration      1(  10)  ---------------------------------------


    POTLOK:  cpu time  103.7680: real time  104.1307
    SETDIJ:  cpu time    0.0640: real time    0.0611
     EDDAV:  cpu time   28.4880: real time   28.6910
 BZINTS: Fermi energy: -4.649083; 56.000000 electrons
         Band energy:-471.647441;  BLOECHL correction:  0.000000
       DOS:  cpu time    0.0000: real time    0.0017
    CHARGE:  cpu time    1.9640: real time    1.9847
    MIXING:  cpu time    0.0640: real time    0.0627
    --------------------------------------------
      LOOP:  cpu time  134.3480: real time  134.9321

 eigenvalue-minimisations  :  1232
 total energy-change (2. order) :-0.2935807E+00  (-0.3366734E-01)
 number of electron      55.9999996 magnetization       5.6538984
 augmentation part       -0.4458694 magnetization       4.2214300

 Broyden mixing:
  rms(total) = 0.36694E+00    rms(broyden)= 0.36693E+00
  rms(prec ) = 0.37410E+00
  weight for this iteration     100.00

 eigenvalues of (default mixing * dielectric matrix)
  average eigenvalue GAMMA=   0.8518
  1.3378  1.3378  0.3004  0.6416  0.6416

 Free energy of the ion-electron system (eV)
  ---------------------------------------------------
  alpha Z        PSCENC =        19.93249583
  Ewald energy   TEWEN  =      5985.89955237
  -Hartree energ DENC   =     -8123.82466425
  -exchange      EXHF   =         0.00000000
  -V(xc)+E(xc)   XCENC  =        11.75714923
  PAW double counting   =      1118.27221162    -1021.35560758
  entropy T*S    EENTRO =         0.00000000
  eigenvalues    EBANDS =      -471.64744095
  atomic energy  EATOM  =      2432.58897501
  Solvation  Ediel_sol  =         0.00000000
  ---------------------------------------------------
  free energy    TOTEN  =       -48.37732872 eV

  energy without entropy =      -48.37732872  energy(sigma->0) =      -48.37732872


--------------------------------------------------------------------------------------------------------




--------------------------------------- Iteration      1(  11)  ---------------------------------------


    POTLOK:  cpu time  101.7040: real time  102.8401
    SETDIJ:  cpu time    0.0880: real time    0.0871
     EDDAV:  cpu time   29.5120: real time   29.9176
 BZINTS: Fermi energy: -4.658956; 56.000000 electrons
         Band energy:-472.066909;  BLOECHL correction:  0.000000
       DOS:  cpu time    0.0000: real time    0.0021
    CHARGE:  cpu time    2.0680: real time    2.0866
    MIXING:  cpu time    0.0760: real time    0.0755
    --------------------------------------------
      LOOP:  cpu time  133.4480: real time  135.0091

 eigenvalue-minimisations  :  1272
 total energy-change (2. order) :-0.9111466E-01  (-0.1417009E-01)
 number of electron      55.9999996 magnetization       5.6935759
 augmentation part       -0.5311153 magnetization       4.4192555

 Broyden mixing:
  rms(total) = 0.11327E+00    rms(broyden)= 0.11326E+00
  rms(prec ) = 0.11971E+00
  weight for this iteration     100.00

 eigenvalues of (default mixing * dielectric matrix)
  average eigenvalue GAMMA=   0.8420
  1.3831  1.3831  0.3005  0.7056  0.7056  0.5742

 Free energy of the ion-electron system (eV)
  ---------------------------------------------------
  alpha Z        PSCENC =        19.93249583
  Ewald energy   TEWEN  =      5985.89955237
  -Hartree energ DENC   =     -8124.60069984
  -exchange      EXHF   =         0.00000000
  -V(xc)+E(xc)   XCENC  =        13.10652308
  PAW double counting   =      1117.31521476    -1020.64359524
  entropy T*S    EENTRO =         0.00000000
  eigenvalues    EBANDS =      -472.06690935
  atomic energy  EATOM  =      2432.58897501
  Solvation  Ediel_sol  =         0.00000000
  ---------------------------------------------------
  free energy    TOTEN  =       -48.46844338 eV

  energy without entropy =      -48.46844338  energy(sigma->0) =      -48.46844338


--------------------------------------------------------------------------------------------------------




--------------------------------------- Iteration      1(  12)  ---------------------------------------


    POTLOK:  cpu time  103.4600: real time  104.1873
    SETDIJ:  cpu time    0.0520: real time    0.0506
     EDDAV:  cpu time   28.9840: real time   29.1741
 BZINTS: Fermi energy: -4.611201; 56.000000 electrons
         Band energy:-472.095026;  BLOECHL correction:  0.000000
       DOS:  cpu time    0.0000: real time    0.0019
    CHARGE:  cpu time    1.9600: real time    1.9712
    MIXING:  cpu time    0.0680: real time    0.0710
    --------------------------------------------
      LOOP:  cpu time  134.5240: real time  135.4561

 eigenvalue-minimisations  :  1256
 total energy-change (2. order) : 0.3354743E-02  (-0.4536756E-02)
 number of electron      55.9999996 magnetization       5.7367458
 augmentation part       -0.5709458 magnetization       4.4702660

 Broyden mixing:
  rms(total) = 0.68414E-01    rms(broyden)= 0.68413E-01
  rms(prec ) = 0.72643E-01
  weight for this iteration     100.00

 eigenvalues of (default mixing * dielectric matrix)
  average eigenvalue GAMMA=   0.8865
  1.9099  1.1798  1.1798  0.6505  0.6505  0.3005  0.3343

 Free energy of the ion-electron system (eV)
  ---------------------------------------------------
  alpha Z        PSCENC =        19.93249583
  Ewald energy   TEWEN  =      5985.89955237
  -Hartree energ DENC   =     -8124.68711227
  -exchange      EXHF   =         0.00000000
  -V(xc)+E(xc)   XCENC  =        13.38428504
  PAW double counting   =      1116.60010659    -1020.08836539
  entropy T*S    EENTRO =         0.00000000
  eigenvalues    EBANDS =      -472.09502581
  atomic energy  EATOM  =      2432.58897501
  Solvation  Ediel_sol  =         0.00000000
  ---------------------------------------------------
  free energy    TOTEN  =       -48.46508863 eV

  energy without entropy =      -48.46508863  energy(sigma->0) =      -48.46508863


--------------------------------------------------------------------------------------------------------




--------------------------------------- Iteration      1(  13)  ---------------------------------------


    POTLOK:  cpu time  102.3080: real time  102.9981
    SETDIJ:  cpu time    0.0520: real time    0.0512
     EDDAV:  cpu time   28.0000: real time   28.2460
 BZINTS: Fermi energy: -4.607233; 56.000000 electrons
         Band energy:-472.078003;  BLOECHL correction:  0.000000
       DOS:  cpu time    0.0000: real time    0.0017
    CHARGE:  cpu time    1.9520: real time    1.9552
    MIXING:  cpu time    0.1080: real time    0.1077
    --------------------------------------------
      LOOP:  cpu time  132.4200: real time  133.3600

 eigenvalue-minimisations  :  1200
 total energy-change (2. order) :-0.6392859E-02  (-0.1481875E-02)
 number of electron      55.9999996 magnetization       5.7881180
 augmentation part       -0.6087758 magnetization       4.5011121

 Broyden mixing:
  rms(total) = 0.40427E-01    rms(broyden)= 0.40426E-01
  rms(prec ) = 0.41465E-01
  weight for this iteration     100.00

 eigenvalues of (default mixing * dielectric matrix)
  average eigenvalue GAMMA=   1.0129
  2.5726  1.4150  1.4150  0.7245  0.7245  0.6076  0.3004  0.3432

 Free energy of the ion-electron system (eV)
  ---------------------------------------------------
  alpha Z        PSCENC =        19.93249583
  Ewald energy   TEWEN  =      5985.89955237
  -Hartree energ DENC   =     -8124.64785854
  -exchange      EXHF   =         0.00000000
  -V(xc)+E(xc)   XCENC  =        13.43297516
  PAW double counting   =      1116.00380289    -1019.60342121
  entropy T*S    EENTRO =         0.00000000
  eigenvalues    EBANDS =      -472.07800301
  atomic energy  EATOM  =      2432.58897501
  Solvation  Ediel_sol  =         0.00000000
  ---------------------------------------------------
  free energy    TOTEN  =       -48.47148149 eV

  energy without entropy =      -48.47148149  energy(sigma->0) =      -48.47148149


--------------------------------------------------------------------------------------------------------




--------------------------------------- Iteration      1(  14)  ---------------------------------------


    POTLOK:  cpu time  103.3480: real time  103.8184
    SETDIJ:  cpu time    0.0640: real time    0.0631
     EDDAV:  cpu time   24.8560: real time   25.1024
 BZINTS: Fermi energy: -4.639545; 56.000000 electrons
         Band energy:-472.154235;  BLOECHL correction:  0.000000
       DOS:  cpu time    0.0000: real time    0.0019
    CHARGE:  cpu time    1.9560: real time    1.9578
    MIXING:  cpu time    0.0680: real time    0.0669
    --------------------------------------------
      LOOP:  cpu time  130.2920: real time  131.0104

 eigenvalue-minimisations  :  1056
 total energy-change (2. order) :-0.4124289E-02  (-0.6918992E-03)
 number of electron      55.9999996 magnetization       5.8092739
 augmentation part       -0.6147074 magnetization       4.5040984

 Broyden mixing:
  rms(total) = 0.29792E-01    rms(broyden)= 0.29792E-01
  rms(prec ) = 0.30751E-01
  weight for this iteration     100.00

 eigenvalues of (default mixing * dielectric matrix)
  average eigenvalue GAMMA=   0.9961
  2.3866  1.3646  1.3646  1.1286  0.7333  0.7333  0.6080  0.3005  0.3457

 Free energy of the ion-electron system (eV)
  ---------------------------------------------------
  alpha Z        PSCENC =        19.93249583
  Ewald energy   TEWEN  =      5985.89955237
  -Hartree energ DENC   =     -8124.44270058
  -exchange      EXHF   =         0.00000000
  -V(xc)+E(xc)   XCENC  =        13.25887674
  PAW double counting   =      1115.90422999    -1019.46280061
  entropy T*S    EENTRO =         0.00000000
  eigenvalues    EBANDS =      -472.15423452
  atomic energy  EATOM  =      2432.58897501
  Solvation  Ediel_sol  =         0.00000000
  ---------------------------------------------------
  free energy    TOTEN  =       -48.47560578 eV

  energy without entropy =      -48.47560578  energy(sigma->0) =      -48.47560578


--------------------------------------------------------------------------------------------------------




--------------------------------------- Iteration      1(  15)  ---------------------------------------


    POTLOK:  cpu time  103.2240: real time  103.7230
    SETDIJ:  cpu time    0.0640: real time    0.0622
     EDDAV:  cpu time   26.2600: real time   26.3499
 BZINTS: Fermi energy: -4.640604; 56.000000 electrons
         Band energy:-472.184652;  BLOECHL correction:  0.000000
       DOS:  cpu time    0.0000: real time    0.0016
    CHARGE:  cpu time    2.0000: real time    2.0057
    MIXING:  cpu time    0.0520: real time    0.0551
    --------------------------------------------
      LOOP:  cpu time  131.6000: real time  132.1976

 eigenvalue-minimisations  :  1096
 total energy-change (2. order) :-0.1991918E-03  (-0.3628732E-03)
 number of electron      55.9999996 magnetization       5.8382858
 augmentation part       -0.5881433 magnetization       4.5437982

 Broyden mixing:
  rms(total) = 0.35338E-01    rms(broyden)= 0.35338E-01
  rms(prec ) = 0.35575E-01
  weight for this iteration     100.00

 eigenvalues of (default mixing * dielectric matrix)
  average eigenvalue GAMMA=   1.0381
  2.1356  2.1356  1.3309  1.3309  0.7770  0.7770  0.6240  0.6240  0.3005  0.3450

 Free energy of the ion-electron system (eV)
  ---------------------------------------------------
  alpha Z        PSCENC =        19.93249583
  Ewald energy   TEWEN  =      5985.89955237
  -Hartree energ DENC   =     -8124.38957687
  -exchange      EXHF   =         0.00000000
  -V(xc)+E(xc)   XCENC  =        13.22489080
  PAW double counting   =      1115.67774274    -1019.22523275
  entropy T*S    EENTRO =         0.00000000
  eigenvalues    EBANDS =      -472.18465211
  atomic energy  EATOM  =      2432.58897501
  Solvation  Ediel_sol  =         0.00000000
  ---------------------------------------------------
  free energy    TOTEN  =       -48.47580497 eV

  energy without entropy =      -48.47580497  energy(sigma->0) =      -48.47580497


--------------------------------------------------------------------------------------------------------




--------------------------------------- Iteration      1(  16)  ---------------------------------------


    POTLOK:  cpu time  103.6840: real time  104.2997
    SETDIJ:  cpu time    0.0560: real time    0.0555
     EDDAV:  cpu time   24.3880: real time   24.5571
 BZINTS: Fermi energy: -4.642220; 56.000000 electrons
         Band energy:-472.090736;  BLOECHL correction:  0.000000
       DOS:  cpu time    0.0040: real time    0.0020
    CHARGE:  cpu time    1.9840: real time    2.0042
    MIXING:  cpu time    0.0600: real time    0.0609
    --------------------------------------------
      LOOP:  cpu time  130.1760: real time  130.9794

 eigenvalue-minimisations  :  1024
 total energy-change (2. order) :-0.1772358E-02  (-0.1439739E-03)
 number of electron      55.9999996 magnetization       5.9032434
 augmentation part       -0.5776404 magnetization       4.6212727

 Broyden mixing:
  rms(total) = 0.27260E-01    rms(broyden)= 0.27260E-01
  rms(prec ) = 0.27872E-01
  weight for this iteration     100.00

 eigenvalues of (default mixing * dielectric matrix)
  average eigenvalue GAMMA=   1.1664
  2.7545  2.7545  1.4475  1.4475  0.8944  0.8944  0.6900  0.6900  0.6122  0.3005
  0.3449

 Free energy of the ion-electron system (eV)
  ---------------------------------------------------
  alpha Z        PSCENC =        19.93249583
  Ewald energy   TEWEN  =      5985.89955237
  -Hartree energ DENC   =     -8124.54474179
  -exchange      EXHF   =         0.00000000
  -V(xc)+E(xc)   XCENC  =        13.28359374
  PAW double counting   =      1115.82900126    -1019.37571735
  entropy T*S    EENTRO =         0.00000000
  eigenvalues    EBANDS =      -472.09073641
  atomic energy  EATOM  =      2432.58897501
  Solvation  Ediel_sol  =         0.00000000
  ---------------------------------------------------
  free energy    TOTEN  =       -48.47757733 eV

  energy without entropy =      -48.47757733  energy(sigma->0) =      -48.47757733


--------------------------------------------------------------------------------------------------------




--------------------------------------- Iteration      1(  17)  ---------------------------------------


    POTLOK:  cpu time  103.0200: real time  103.6400
    SETDIJ:  cpu time    0.0480: real time    0.0499
     EDDAV:  cpu time   24.8680: real time   25.1284
 BZINTS: Fermi energy: -4.635673; 56.000000 electrons
         Band energy:-471.962699;  BLOECHL correction:  0.000000
       DOS:  cpu time    0.0000: real time    0.0021
    CHARGE:  cpu time    2.1080: real time    2.1203
    MIXING:  cpu time    0.0600: real time    0.0589
    --------------------------------------------
      LOOP:  cpu time  130.1040: real time  130.9996

 eigenvalue-minimisations  :  1024
 total energy-change (2. order) :-0.4086194E-03  (-0.1163838E-03)
 number of electron      55.9999996 magnetization       5.9432286
 augmentation part       -0.5870574 magnetization       4.6591690

 Broyden mixing:
  rms(total) = 0.14692E-01    rms(broyden)= 0.14692E-01
  rms(prec ) = 0.14913E-01
  weight for this iteration     100.00

 eigenvalues of (default mixing * dielectric matrix)
  average eigenvalue GAMMA=   1.2679
  4.1606  2.7408  1.4799  1.4799  0.9957  0.9957  0.3005  0.7310  0.7310  0.6276
  0.6276  0.3449

 Free energy of the ion-electron system (eV)
  ---------------------------------------------------
  alpha Z        PSCENC =        19.93249583
  Ewald energy   TEWEN  =      5985.89955237
  -Hartree energ DENC   =     -8124.69719544
  -exchange      EXHF   =         0.00000000
  -V(xc)+E(xc)   XCENC  =        13.32843605
  PAW double counting   =      1115.87032981    -1019.43788063
  entropy T*S    EENTRO =         0.00000000
  eigenvalues    EBANDS =      -471.96269894
  atomic energy  EATOM  =      2432.58897501
  Solvation  Ediel_sol  =         0.00000000
  ---------------------------------------------------
  free energy    TOTEN  =       -48.47798595 eV

  energy without entropy =      -48.47798595  energy(sigma->0) =      -48.47798595


--------------------------------------------------------------------------------------------------------




--------------------------------------- Iteration      1(  18)  ---------------------------------------


    POTLOK:  cpu time  102.0160: real time  102.6498
    SETDIJ:  cpu time    0.0520: real time    0.0509
     EDDAV:  cpu time   22.7920: real time   22.9251
 BZINTS: Fermi energy: -4.630692; 56.000000 electrons
         Band energy:-471.930420;  BLOECHL correction:  0.000000
       DOS:  cpu time    0.0040: real time    0.0019
    CHARGE:  cpu time    1.9560: real time    1.9673
    MIXING:  cpu time    0.0720: real time    0.0746
    --------------------------------------------
      LOOP:  cpu time  126.8920: real time  127.6696

 eigenvalue-minimisations  :   928
 total energy-change (2. order) : 0.1567750E-02  (-0.4216108E-04)
 number of electron      55.9999996 magnetization       5.9818906
 augmentation part       -0.5889240 magnetization       4.6990344

 Broyden mixing:
  rms(total) = 0.98505E-02    rms(broyden)= 0.98505E-02
  rms(prec ) = 0.99982E-02
  weight for this iteration     100.00

 eigenvalues of (default mixing * dielectric matrix)
  average eigenvalue GAMMA=   1.4049
  6.0836  2.5856  1.4887  1.4887  1.1830  1.1830  0.8125  0.8125  0.3005  0.3449
  0.6850  0.6850  0.6107

 Free energy of the ion-electron system (eV)
  ---------------------------------------------------
  alpha Z        PSCENC =        19.93249583
  Ewald energy   TEWEN  =      5985.89955237
  -Hartree energ DENC   =     -8124.75148852
  -exchange      EXHF   =         0.00000000
  -V(xc)+E(xc)   XCENC  =        13.34931783
  PAW double counting   =      1115.85571337    -1019.42056377
  entropy T*S    EENTRO =         0.00000000
  eigenvalues    EBANDS =      -471.93042032
  atomic energy  EATOM  =      2432.58897501
  Solvation  Ediel_sol  =         0.00000000
  ---------------------------------------------------
  free energy    TOTEN  =       -48.47641820 eV

  energy without entropy =      -48.47641820  energy(sigma->0) =      -48.47641820


--------------------------------------------------------------------------------------------------------




--------------------------------------- Iteration      1(  19)  ---------------------------------------


    POTLOK:  cpu time  100.8040: real time  101.4278
    SETDIJ:  cpu time    0.0600: real time    0.0600
     EDDAV:  cpu time   23.0320: real time   23.2515
 BZINTS: Fermi energy: -4.633558; 56.000000 electrons
         Band energy:-471.904659;  BLOECHL correction:  0.000000
       DOS:  cpu time    0.0000: real time    0.0019
    CHARGE:  cpu time    2.1440: real time    2.1623
    MIXING:  cpu time    0.0640: real time    0.0635
    --------------------------------------------
      LOOP:  cpu time  126.1040: real time  126.9670

 eigenvalue-minimisations  :   928
 total energy-change (2. order) : 0.1511843E-02  (-0.2595176E-04)
 number of electron      55.9999996 magnetization       5.9995966
 augmentation part       -0.5901933 magnetization       4.7194622

 Broyden mixing:
  rms(total) = 0.25607E-02    rms(broyden)= 0.25607E-02
  rms(prec ) = 0.27305E-02
  weight for this iteration     100.00

 eigenvalues of (default mixing * dielectric matrix)
  average eigenvalue GAMMA=   1.6174
  8.7426  2.6231  2.1598  1.4618  1.4618  1.0095  1.0095  0.3005  0.3449  0.7769
  0.7769  0.6837  0.6837  0.6092

 Free energy of the ion-electron system (eV)
  ---------------------------------------------------
  alpha Z        PSCENC =        19.93249583
  Ewald energy   TEWEN  =      5985.89955237
  -Hartree energ DENC   =     -8124.81396121
  -exchange      EXHF   =         0.00000000
  -V(xc)+E(xc)   XCENC  =        13.38735567
  PAW double counting   =      1115.82941790    -1019.39408259
  entropy T*S    EENTRO =         0.00000000
  eigenvalues    EBANDS =      -471.90465934
  atomic energy  EATOM  =      2432.58897501
  Solvation  Ediel_sol  =         0.00000000
  ---------------------------------------------------
  free energy    TOTEN  =       -48.47490636 eV

  energy without entropy =      -48.47490636  energy(sigma->0) =      -48.47490636


--------------------------------------------------------------------------------------------------------




--------------------------------------- Iteration      1(  20)  ---------------------------------------


    POTLOK:  cpu time  101.3400: real time  102.1278
    SETDIJ:  cpu time    0.0640: real time    0.0655
     EDDAV:  cpu time   18.2240: real time   18.3554
 BZINTS: Fermi energy: -4.640862; 56.000000 electrons
         Band energy:-471.880957;  BLOECHL correction:  0.000000
       DOS:  cpu time    0.0000: real time    0.0018
    CHARGE:  cpu time    1.9560: real time    2.0181
    MIXING:  cpu time    0.0800: real time    0.0792
    --------------------------------------------
      LOOP:  cpu time  121.6640: real time  122.6479

 eigenvalue-minimisations  :   688
 total energy-change (2. order) : 0.4121161E-03  (-0.9996119E-05)
 number of electron      55.9999996 magnetization       5.9995578
 augmentation part       -0.5907449 magnetization       4.7201336

 Broyden mixing:
  rms(total) = 0.16236E-02    rms(broyden)= 0.16236E-02
  rms(prec ) = 0.16768E-02
  weight for this iteration     100.00

 eigenvalues of (default mixing * dielectric matrix)
  average eigenvalue GAMMA=   1.6191
  9.2079  2.7452  2.2314  1.4760  1.4760  1.0739  1.0739  0.8484  0.8484  0.3005
  0.3449  0.7084  0.7084  0.6235  0.6192

 Free energy of the ion-electron system (eV)
  ---------------------------------------------------
  alpha Z        PSCENC =        19.93249583
  Ewald energy   TEWEN  =      5985.89955237
  -Hartree energ DENC   =     -8124.84937718
  -exchange      EXHF   =         0.00000000
  -V(xc)+E(xc)   XCENC  =        13.39859169
  PAW double counting   =      1115.84247871    -1019.40625356
  entropy T*S    EENTRO =         0.00000000
  eigenvalues    EBANDS =      -471.88095712
  atomic energy  EATOM  =      2432.58897501
  Solvation  Ediel_sol  =         0.00000000
  ---------------------------------------------------
  free energy    TOTEN  =       -48.47449424 eV

  energy without entropy =      -48.47449424  energy(sigma->0) =      -48.47449424


--------------------------------------------------------------------------------------------------------




--------------------------------------- Iteration      1(  21)  ---------------------------------------


    POTLOK:  cpu time  101.4080: real time  102.0620
    SETDIJ:  cpu time    0.0480: real time    0.0509
     EDDAV:  cpu time   17.3920: real time   17.5925
 BZINTS: Fermi energy: -4.646074; 56.000000 electrons
         Band energy:-471.870129;  BLOECHL correction:  0.000000
       DOS:  cpu time    0.0000: real time    0.0010
    --------------------------------------------
      LOOP:  cpu time  118.8480: real time  119.7064

 eigenvalue-minimisations  :   640
 total energy-change (2. order) :-0.6821588E-04  (-0.2957993E-05)
 number of electron      55.9999996 magnetization       5.9995578
 augmentation part       -0.5907449 magnetization       4.7201336

 Free energy of the ion-electron system (eV)
  ---------------------------------------------------
  alpha Z        PSCENC =        19.93249583
  Ewald energy   TEWEN  =      5985.89955237
  -Hartree energ DENC   =     -8124.85490922
  -exchange      EXHF   =         0.00000000
  -V(xc)+E(xc)   XCENC  =        13.39330678
  PAW double counting   =      1115.85455555    -1019.41840953
  entropy T*S    EENTRO =         0.00000000
  eigenvalues    EBANDS =      -471.87012925
  atomic energy  EATOM  =      2432.58897501
  Solvation  Ediel_sol  =         0.00000000
  ---------------------------------------------------
  free energy    TOTEN  =       -48.47456246 eV

  energy without entropy =      -48.47456246  energy(sigma->0) =      -48.47456246


--------------------------------------------------------------------------------------------------------




 average (electrostatic) potential at core
  the test charge radii are     1.1394  1.1631  0.9892  0.9698
  (the norm of the test charge is              1.0000)
       1 -52.7037       2 -52.7039       3 -41.2776       4 -94.7294       5 -95.1324
       6 -95.1324       7 -95.1324       8 -95.0890       9 -95.0889      10 -95.0889



 E-fermi :  -4.6461     XC(G=0):  -3.0719     alpha+bet : -2.1202


 spin component 1

 k-point     1 :       0.0000    0.0000    0.0000
  band No.  band energies     occupation 
      1     -16.2392      1.00000
      2     -15.7696      1.00000
      3     -15.3370      1.00000
      4     -15.3370      1.00000
      5     -15.2878      1.00000
      6     -15.2878      1.00000
      7     -12.3900      1.00000
      8      -9.9338      1.00000
      9      -7.5718      1.00000
     10      -7.5717      1.00000
     11      -7.4573      1.00000
     12      -7.3046      1.00000
     13      -7.1331      1.00000
     14      -7.1331      1.00000
     15      -6.3086      1.00000
     16      -6.1743      1.00000
     17      -6.1743      1.00000
     18      -5.9655      1.00000
     19      -5.9654      1.00000
     20      -5.7370      1.00000
     21      -5.3982      1.00000
     22      -5.3982      1.00000
     23      -5.1604      1.00000
     24      -5.0836      1.00000
     25      -5.0836      1.00000
     26      -5.0774      1.00000
     27      -5.0774      1.00000
     28      -5.0722      1.00000
     29      -4.7251      1.00000
     30      -4.6729      1.00000
     31      -4.6729      1.00000
     32      -3.5649      0.00000
     33      -3.4263      0.00000
     34      -3.4263      0.00000
     35      -3.1995      0.00000
     36      -3.1995      0.00000
     37      -3.1199      0.00000
     38      -1.2065      0.00000
     39      -1.2065      0.00000
     40       0.3614      0.00000

 k-point     2 :       0.2000    0.0000    0.0000
  band No.  band energies     occupation 
      1     -16.1615      1.00000
      2     -15.7214      1.00000
      3     -15.4128      1.00000
      4     -15.3709      1.00000
      5     -15.3300      1.00000
      6     -15.3113      1.00000
      7     -12.3697      1.00000
      8      -9.9798      1.00000
      9      -7.5471      1.00000
     10      -7.5231      1.00000
[...]
     18      -5.6240      1.00000
     19      -5.5793      1.00000
     20      -5.1163      1.00000
     21      -5.0703      1.00000
     22      -4.6891      1.00000
     23      -4.5357      1.00000
     24      -4.1773      1.00000
     25      -3.5508      1.00000
     26      -1.9880      0.00000
     27      -1.4948      0.00000
     28      -1.3722      0.00000
     29      -0.9917      0.00000
     30      -0.9071      0.00000
     31      -0.7474      0.00000
     32      -0.7380      0.00000
     33      -0.2142      0.00000
     34      -0.1984      0.00000
     35       0.0516      0.00000
     36       0.0554      0.00000
     37       1.0634      0.00000
     38       1.4166      0.00000
     39       1.4548      0.00000
     40       2.2332      0.00000

 k-point     5 :      -0.4000    0.2000    0.0000
  band No.  band energies     occupation 
      1     -16.5723      1.00000
      2     -16.0089      1.00000
      3     -15.8435      1.00000
      4     -15.6522      1.00000
      5     -15.4699      1.00000
      6     -15.3261      1.00000
      7     -11.1322      1.00000
      8      -9.5585      1.00000
      9      -7.8752      1.00000
     10      -7.4522      1.00000
     11      -7.3686      1.00000
     12      -6.8787      1.00000
     13      -6.8349      1.00000
     14      -6.3110      1.00000
     15      -5.9408      1.00000
     16      -5.7919      1.00000
     17      -5.7060      1.00000
     18      -5.4972      1.00000
     19      -5.4806      1.00000
     20      -5.2283      1.00000
     21      -5.0623      1.00000
     22      -4.5865      1.00000
     23      -4.4320      1.00000
     24      -4.2874      1.00000
     25      -3.6598      1.00000
     26      -2.3199      0.00000
     27      -1.5944      0.00000
     28      -1.5819      0.00000
     29      -0.8959      0.00000
     30      -0.8785      0.00000
     31      -0.7240      0.00000
     32      -0.6555      0.00000
     33      -0.3921      0.00000
     34      -0.3168      0.00000
     35       0.0304      0.00000
     36       0.0426      0.00000
     37       1.0621      0.00000
     38       1.2073      0.00000
     39       1.3643      0.00000
     40       2.2558      0.00000


--------------------------------------------------------------------------------------------------------


 soft charge-density along one line, spin component           1
         0         1         2         3         4         5         6         7         8         9
 total charge-density along one line

 soft charge-density along one line, spin component           2
         0         1         2         3         4         5         6         7         8         9
 total charge-density along one line

 pseudopotential strength for first ion, spin component:           1
 -8.996   0.103  -0.000  -0.011  -0.000   0.742  -0.028   0.000
  0.103  -8.918   0.000  -0.000  -0.011  -0.028   0.721  -0.000
 -0.000   0.000  -9.083   0.000   0.000   0.000  -0.000   0.766
 -0.011  -0.000   0.000  -8.918  -0.103   0.003   0.000  -0.000
 -0.000  -0.011   0.000  -0.103  -8.996   0.000   0.003  -0.000
  0.742  -0.028   0.000   0.003   0.000   0.347   0.007  -0.000
 -0.028   0.721  -0.000   0.000   0.003   0.007   0.352   0.000
  0.000  -0.000   0.766  -0.000  -0.000  -0.000   0.000   0.341
  0.003   0.000  -0.000   0.721   0.028  -0.001   0.000   0.000
  0.000   0.003  -0.000   0.028   0.742  -0.000  -0.001   0.000
 -0.000  -0.000   0.001  -0.000   0.000  -0.000   0.000  -0.000
  0.000   0.000  -0.000   0.000  -0.000  -0.000  -0.000   0.000
 -0.000  -0.003   0.000  -0.000   0.001   0.000   0.001  -0.000
 -0.000  -0.000  -0.003  -0.000  -0.000   0.000   0.000   0.001
  0.001  -0.000   0.000  -0.003   0.000   0.000   0.000  -0.000
  0.000   0.001  -0.000   0.000  -0.001  -0.000  -0.000   0.000
  0.000   0.000   0.001   0.000   0.000  -0.000  -0.000  -0.000
 -0.001   0.000  -0.000   0.001  -0.000   0.000  -0.000   0.000
 pseudopotential strength for first ion, spin component:           2
 -7.374  -0.193  -0.000   0.021   0.000   0.284   0.051   0.000
 -0.193  -7.568   0.000  -0.000   0.021   0.051   0.335  -0.000
 -0.000   0.000  -7.255   0.000   0.000   0.000  -0.000   0.253
  0.021  -0.000   0.000  -7.568   0.193  -0.005   0.000  -0.000
  0.000   0.021   0.000   0.193  -7.374  -0.000  -0.005  -0.000
  0.284   0.051   0.000  -0.005  -0.000   0.472  -0.013  -0.000
  0.051   0.335  -0.000   0.000  -0.005  -0.013   0.459   0.000
  0.000  -0.000   0.253  -0.000  -0.000  -0.000   0.000   0.480
 -0.005   0.000  -0.000   0.335  -0.051   0.001   0.000   0.000
 -0.000  -0.005  -0.000  -0.051   0.284   0.000   0.001   0.000
 -0.000  -0.000   0.008  -0.000   0.000  -0.000   0.000  -0.001
  0.000   0.000  -0.001   0.000  -0.000  -0.000  -0.000   0.000
 -0.001  -0.002   0.000  -0.000   0.001   0.000   0.001  -0.000
 -0.000  -0.000  -0.001  -0.000   0.000   0.000   0.000   0.000
  0.001  -0.000   0.000  -0.002   0.001   0.000   0.000  -0.000
  0.001   0.001  -0.000   0.000  -0.001  -0.000  -0.000   0.000
  0.000   0.000  -0.000   0.000  -0.000  -0.000  -0.000   0.000
 -0.001   0.000  -0.000   0.001  -0.001   0.000  -0.000   0.000
 total augmentation occupancy for first ion, spin component:           1
  0.984  -0.068   0.000   0.005  -0.000   0.038   0.265  -0.000  -0.030  -0.000  -0.000  -0.000  -0.011  -0.000   0.005  -0.000
 -0.068   0.900  -0.000  -0.000   0.005   0.263   0.298   0.000  -0.000  -0.030   0.000   0.000  -0.022   0.000   0.000   0.001
  0.000  -0.000   1.050  -0.000  -0.000  -0.000   0.000  -0.141   0.000   0.000  -0.012  -0.018  -0.000  -0.003  -0.000  -0.000
  0.005  -0.000  -0.000   0.900   0.068  -0.030   0.000   0.000   0.298  -0.263   0.000   0.000  -0.000   0.000  -0.022  -0.000
 -0.000   0.005  -0.000   0.068   0.984   0.000  -0.030   0.000  -0.265   0.038   0.000   0.000   0.005   0.000   0.011  -0.000
  0.038   0.263  -0.000  -0.030   0.000   0.221   0.091   0.000  -0.011  -0.000   0.000  -0.000  -0.001  -0.000   0.021   0.000
  0.265   0.298   0.000   0.000  -0.030   0.091   0.316   0.000  -0.000  -0.011   0.000  -0.000  -0.014  -0.000  -0.004   0.001
 -0.000   0.000  -0.141   0.000   0.000   0.000   0.000   0.215   0.000  -0.000   0.056  -0.010  -0.000  -0.011   0.000   0.000
 -0.030  -0.000   0.000   0.298  -0.265  -0.011  -0.000   0.000   0.316  -0.091   0.000   0.000   0.004   0.000  -0.014  -0.000
 -0.000  -0.030   0.000  -0.263   0.038  -0.000  -0.011  -0.000  -0.091   0.221  -0.000   0.000   0.021   0.000   0.001  -0.002
 -0.000   0.000  -0.012   0.000   0.000   0.000  -0.000   0.056  -0.000  -0.000   1.071  -0.191   0.000  -0.028   0.000   0.000
 -0.000   0.000  -0.018   0.000   0.000  -0.000  -0.000  -0.010   0.000   0.000  -0.191   0.078   0.000   0.005  -0.000   0.000
 -0.011  -0.022  -0.000  -0.000   0.005  -0.001  -0.014  -0.000   0.004   0.021   0.000   0.000   0.236   0.000  -0.000  -0.004
 -0.000   0.000  -0.003  -0.000   0.000  -0.000  -0.000  -0.011   0.000   0.000  -0.028   0.005   0.000   0.255  -0.000  -0.000
  0.005   0.000  -0.000  -0.022   0.011   0.021  -0.004   0.000  -0.014   0.001  -0.000  -0.000  -0.000  -0.000   0.236   0.000
 -0.000   0.001  -0.000  -0.000  -0.000   0.000   0.001   0.000  -0.000  -0.002   0.000   0.000  -0.004  -0.000   0.000   0.000
  0.000   0.000   0.001  -0.000  -0.000   0.000   0.000   0.000   0.000  -0.000   0.001  -0.001  -0.000  -0.005   0.000   0.000
 -0.000   0.000  -0.000   0.001   0.000  -0.002   0.000  -0.000   0.001  -0.000  -0.000  -0.000  -0.000   0.000  -0.004  -0.000
 total augmentation occupancy for first ion, spin component:           2
  0.697  -0.318   0.000   0.034  -0.000  -0.188   0.081  -0.000  -0.008   0.000  -0.000  -0.000  -0.004   0.000  -0.001  -0.000
 -0.318   0.399  -0.000  -0.000   0.034   0.077  -0.101   0.000   0.000  -0.008   0.000   0.000  -0.001  -0.000   0.004  -0.000
  0.000  -0.000   0.896  -0.000  -0.000  -0.000   0.000  -0.279   0.000   0.000  -0.030  -0.008  -0.000   0.005  -0.000  -0.000
  0.034  -0.000  -0.000   0.399   0.318  -0.008  -0.000   0.000  -0.101  -0.077   0.000   0.000  -0.004  -0.000  -0.001   0.000
 -0.000   0.034  -0.000   0.318   0.697  -0.000  -0.008   0.000  -0.081  -0.188   0.000   0.000  -0.001  -0.000   0.004   0.001
 -0.188   0.077  -0.000  -0.008  -0.000   0.017  -0.066   0.000   0.007  -0.000   0.000   0.000   0.003  -0.000  -0.002   0.000
  0.081  -0.101   0.000  -0.000  -0.008  -0.066  -0.046  -0.000   0.000   0.007   0.000  -0.000   0.003   0.000  -0.000  -0.000
 -0.000   0.000  -0.279   0.000   0.000   0.000  -0.000   0.085  -0.000  -0.000   0.017   0.006   0.000  -0.002   0.000   0.000
 -0.008   0.000   0.000  -0.101  -0.081   0.007   0.000  -0.000  -0.046   0.066  -0.000  -0.000   0.000   0.000   0.003  -0.000
  0.000  -0.008   0.000  -0.077  -0.188  -0.000   0.007  -0.000   0.066   0.017  -0.000  -0.000  -0.002   0.000  -0.003  -0.000
 -0.000   0.000  -0.030   0.000   0.000   0.000   0.000   0.017  -0.000  -0.000   0.148   0.066   0.000  -0.002   0.000   0.000
 -0.000  -0.000  -0.008   0.000   0.000   0.000   0.000   0.006  -0.000  -0.000   0.066  -0.023   0.000  -0.002   0.000   0.000
 -0.004  -0.001  -0.000  -0.004  -0.001   0.003   0.003   0.000   0.000  -0.002   0.000   0.000   0.024   0.000  -0.000   0.003
  0.000  -0.000   0.005  -0.000  -0.000  -0.000   0.000  -0.002   0.000   0.000  -0.002  -0.002   0.000   0.021  -0.000   0.000
 -0.001   0.004  -0.000  -0.001   0.004  -0.002  -0.000   0.000   0.003  -0.003   0.000  -0.000  -0.000  -0.000   0.024   0.000
 -0.000  -0.000  -0.000   0.000   0.001   0.000  -0.000   0.000  -0.000  -0.000   0.000   0.000   0.003   0.000   0.000  -0.000
  0.000   0.000   0.001  -0.000  -0.000  -0.000   0.000  -0.000  -0.000   0.000  -0.000   0.000   0.000   0.003  -0.000  -0.000
  0.001  -0.000   0.000  -0.000   0.000  -0.000   0.000   0.000  -0.000  -0.000   0.000  -0.000  -0.000  -0.000   0.003   0.000


------------------------ aborting loop because EDIFF is reached ----------------------------------------





 total charge     

# of ion       s       p       d       tot
------------------------------------------
    1        0.352   0.494   4.224   5.070
    2        0.351   0.494   4.224   5.070
    3        1.140   1.194   0.134   2.468
    4        0.734   0.892   0.000   1.626
    5        1.356   2.378   0.000   3.734
    6        1.350   2.393   0.000   3.743
    7        1.354   2.381   0.000   3.735
    8        1.365   2.342   0.000   3.707
    9        1.362   2.347   0.000   3.709
   10        1.364   2.341   0.000   3.705
--------------------------------------------------
tot         10.728  17.257   8.582  36.567



 magnetization (x)

# of ion       s       p       d       tot
------------------------------------------
    1        0.033   0.039   2.887   2.958
    2        0.033   0.039   2.887   2.958
    3        0.001   0.046  -0.002   0.045
    4        0.003   0.029   0.000   0.033
    5       -0.000  -0.046   0.000  -0.046
    6       -0.001  -0.037   0.000  -0.039
    7       -0.000  -0.043   0.000  -0.043
    8       -0.001  -0.072   0.000  -0.073
    9       -0.002  -0.057   0.000  -0.059
   10       -0.001  -0.067   0.000  -0.069
--------------------------------------------------
tot          0.064  -0.170   5.772   5.666

    CHARGE:  cpu time    1.9320: real time    1.9412
    FORLOC:  cpu time    0.0960: real time    0.1478
    FORNL :  cpu time    5.9920: real time    6.0563
    STRESS:  cpu time   18.6240: real time   18.8057
    FORCOR:  cpu time  100.2960: real time  100.7182
    FORHAR:  cpu time    0.4440: real time    0.4416
    MIXING:  cpu time    0.0520: real time    0.0535
    OFIELD:  cpu time    0.0000: real time    0.0000

  FORCE on cell =-STRESS in cart. coord.  units (eV):
  Direction    XX          YY          ZZ          XY          YZ          ZX
  --------------------------------------------------------------------------------------
  Alpha Z    28.49207    28.49207    28.49207
  Ewald    9437.98891  9437.98648-11090.48893    -0.00116    -0.00043    -0.00078
  Hartree  9778.52747  9778.52778 -9595.55100    -0.00007     0.00003     0.00005
  E(xc)    -211.28814  -211.28814  -210.86257     0.00001     0.00000     0.00001
  Local  -20094.38065-20094.37990 19775.50556     0.00081     0.00021     0.00039
  n-local   476.84705   478.58156   479.76173     0.79805     0.56871     0.49921
  augment   -48.17955   -48.17950   -51.39989     0.00001     0.00007    -0.00001
  Kinetic   633.64786   628.79232   664.72108    -3.42822     1.06726     1.00103
  Fock        0.00000     0.00000     0.00000     0.00000     0.00000     0.00000
  -------------------------------------------------------------------------------------
  Total       0.09385     0.09385     0.17805     0.00000     0.00000     0.00000
  in kB       0.22185     0.22185     0.42089     0.00000     0.00000     0.00000
  external pressure =        0.29 kB  Pullay stress =        0.00 kB


 VOLUME and BASIS-vectors are now :
 -----------------------------------------------------------------------------
  energy-cutoff  :      520.00
  volume of cell :      677.78
      direct lattice vectors                 reciprocal lattice vectors
     5.996034821  0.000000049 -0.000000000     0.166776884 -0.096288672  0.000000000
     2.998017067  5.192718281  0.000000000    -0.000000002  0.192577365 -0.000000000
    -0.000000000  0.000000000 21.768502475     0.000000000 -0.000000000  0.045937933

  length of vectors
     5.996034821  5.996034479 21.768502475     0.192577354  0.192577365  0.045937933


 FORCES acting on ions
    electron-ion (+dipol)            ewald-force                    non-local-force                 convergence-correction
 -----------------------------------------------------------------------------------------------
   -.148E-03 -.754E-04 -.740E+01   0.408E-03 0.240E-03 0.704E+01   -.557E-19 0.710E-17 0.355E+00   0.827E-07 0.569E-07 -.367E-01
   0.137E-03 0.947E-04 -.837E+01   -.391E-03 -.230E-03 0.800E+01   -.525E-19 0.156E-18 0.335E+00   0.508E-07 0.301E-07 -.365E-01
   -.263E-04 -.220E-04 0.223E+03   -.198E-03 -.111E-03 -.217E+03   0.780E-17 -.164E-16 -.550E+01   -.113E-07 -.305E-09 -.257E-01
   0.338E-04 0.174E-04 -.219E+03   0.214E-03 0.119E-03 0.211E+03   -.809E-17 0.104E-16 0.734E+01   0.299E-07 0.409E-07 -.152E-01
   0.547E+01 -.251E-01 -.454E+03   -.863E+01 0.364E-01 0.457E+03   0.314E+01 -.694E-02 -.333E+01   0.772E-02 -.559E-02 -.968E-02
   -.276E+01 -.473E+01 -.454E+03   0.435E+01 0.746E+01 0.457E+03   -.158E+01 -.272E+01 -.333E+01   -.870E-02 -.389E-02 -.968E-02
   -.272E+01 0.475E+01 -.454E+03   0.428E+01 -.749E+01 0.457E+03   -.157E+01 0.273E+01 -.333E+01   0.981E-03 0.948E-02 -.968E-02
   0.890E+01 0.183E-01 0.457E+03   -.485E+01 -.185E-01 -.460E+03   -.403E+01 0.863E-02 0.358E+01   -.733E-02 -.605E-02 -.466E-01
   -.443E+01 -.771E+01 0.457E+03   0.241E+01 0.421E+01 -.460E+03   0.202E+01 0.349E+01 0.358E+01   -.157E-02 0.937E-02 -.466E-01
   -.446E+01 0.770E+01 0.457E+03   0.244E+01 -.419E+01 -.460E+03   0.201E+01 -.349E+01 0.358E+01   0.890E-02 -.332E-02 -.466E-01
 -----------------------------------------------------------------------------------------------
   0.375E-04 0.565E-04 -.305E+01   0.124E-13 -.355E-14 -.568E-13   -.444E-15 0.000E+00 0.328E+01   0.145E-06 0.115E-06 -.283E+00


 POSITION                                       TOTAL-FORCE (eV/Angst)
 -----------------------------------------------------------------------------------
      2.99801      1.73090     10.88262         0.000000     -0.000000     -0.042992
      5.99604      3.46181     10.88588         0.000000     -0.000000     -0.059086
     -0.00000      0.00000      9.75699         0.000000     -0.000000     -0.082720
     -0.00000      0.00000     12.03371        -0.000000     -0.000000      0.057172
      3.87891      0.00076     12.42358        -0.002096     -0.000365      0.032101
      1.05923      1.83311     12.42358         0.000732      0.001998      0.032101
      4.05592      3.35885     12.42358         0.001364     -0.001633      0.032101
      5.25499      5.19194      9.34580         0.003720      0.001477      0.010441
      7.86489      3.23851      9.34580        -0.000581     -0.003961      0.010441
      4.86822      1.95498      9.34580        -0.003140      0.002483      0.010441
 -----------------------------------------------------------------------------------
    total drift:                                0.000038      0.000057     -0.056834


--------------------------------------------------------------------------------------------------------



  FREE ENERGIE OF THE ION-ELECTRON SYSTEM (eV)
  ---------------------------------------------------
  free  energy   TOTEN  =       -55.03176538 eV

  energy  without entropy=      -55.03176538  energy(sigma->0) =      -55.03176538

 d Force = 0.2085966E-04[-0.269E-04, 0.687E-04]  d Energy =-0.1610676E-05 0.225E-04
 d Force =-0.9304645E+00[-0.930E+00,-0.931E+00]  d Ewald  =-0.3351359E+01 0.242E+01


--------------------------------------------------------------------------------------------------------


    POTLOK:  cpu time  104.0160: real time  104.6993


--------------------------------------------------------------------------------------------------------




--------------------------------------------------------------------------------------------------------


  
 reached required accuracy - stopping structural energy minimisation
     LOOP+:  cpu time  485.3280: real time  489.3671
    4ORBIT:  cpu time    0.0000: real time    0.0000



 total charge     

# of ion       s       p       d       tot
------------------------------------------
    1        0.352   0.494   4.224   5.070
    2        0.351   0.494   4.224   5.070
    3        1.140   1.194   0.134   2.468
    4        0.734   0.892   0.000   1.626
    5        1.356   2.378   0.000   3.734
    6        1.350   2.393   0.000   3.743
    7        1.354   2.381   0.000   3.735
    8        1.365   2.342   0.000   3.707
    9        1.362   2.347   0.000   3.709
   10        1.364   2.341   0.000   3.705
--------------------------------------------------
tot         10.728  17.257   8.582  36.567



 magnetization (x)

# of ion       s       p       d       tot
------------------------------------------
    1        0.033   0.039   2.887   2.958
    2        0.033   0.039   2.887   2.958
    3        0.001   0.046  -0.002   0.045
    4        0.003   0.029   0.000   0.033
    5       -0.000  -0.046   0.000  -0.046
    6       -0.001  -0.037   0.000  -0.039
    7       -0.000  -0.043   0.000  -0.043
    8       -0.001  -0.072   0.000  -0.073
    9       -0.002  -0.057   0.000  -0.059
   10       -0.001  -0.067   0.000  -0.069
--------------------------------------------------
tot          0.064  -0.170   5.772   5.666

 BZINTS: Fermi energy: -3.119756; 56.000000 electrons
         Band energy:-454.791320;  BLOECHL correction:  0.000000

 total amount of memory used by VASP MPI-rank0   174986. kBytes
=======================================================================

   base      :      30000. kBytes
   nonlr-proj:       8826. kBytes
   fftplans  :      20284. kBytes
   grid      :      94580. kBytes
   one-center:        311. kBytes
   wavefun   :      20985. kBytes

  
  
 General timing and accounting informations for this job:
 ========================================================
  
                  Total CPU time used (sec):    11842.040
                            User time (sec):    11786.176
                          System time (sec):       55.864
                         Elapsed time (sec):    11935.976
  
                   Maximum memory used (kb):      592516.
                   Average memory used (kb):           0.
  
                          Minor page faults:     12545769
                          Major page faults:            7
                 Voluntary context switches:          821
