 vasp.5.4.4.18Apr17-6-g9f103f2a35 (build May  1 2020 15:48:39) complex           
 executed on             LinuxGNU date 2020.07.06  20:08:18
 running on   16 total cores
 distrk:  each k-point on   16 cores,    1 groups
 distr:  one band on NCORES_PER_BAND=   1 cores,   16 groups


--------------------------------------------------------------------------------------------------------


 INCAR:
 POTCAR:   PAW_PBE Fe 06Sep2000                   
 POTCAR:   PAW_PBE Si 05Jan2001                   
 POTCAR:   PAW_PBE Se 06Sep2000                   

 ----------------------------------------------------------------------------- 
|                                                                             |
|           W    W    AA    RRRRR   N    N  II  N    N   GGGG   !!!           |
|           W    W   A  A   R    R  NN   N  II  NN   N  G    G  !!!           |
|           W    W  A    A  R    R  N N  N  II  N N  N  G       !!!           |
|           W WW W  AAAAAA  RRRRR   N  N N  II  N  N N  G  GGG   !            |
|           WW  WW  A    A  R   R   N   NN  II  N   NN  G    G                |
|           W    W  A    A  R    R  N    N  II  N    N   GGGG   !!!           |
|                                                                             |
|      For optimal performance we recommend to set                            |
|        NCORE= 4 - approx SQRT( number of cores)                             |
|      NCORE specifies how many cores store one orbital (NPAR=cpu/NCORE).     |
|      This setting can  greatly improve the performance of VASP for DFT.     |
|      The default,   NCORE=1            might be grossly inefficient         |
|      on modern multi-core architectures or massively parallel machines.     |
|      Do your own testing !!!!                                               |
|      Unfortunately you need to use the default for GW and RPA calculations. |
|      (for HF NCORE is supported but not extensively tested yet)             |
|                                                                             |
 ----------------------------------------------------------------------------- 


 ----------------------------------------------------------------------------- 
|                                                                             |
|  ADVICE TO THIS USER RUNNING 'VASP/VAMP'   (HEAR YOUR MASTER'S VOICE ...):  |
|                                                                             |
|      You have switched on vdW-DFT.                                          |
|      This routine was written and supplied by Jiri Klimes.                  |
|      We recommed that you carefully read and cite the following             |
|      publication                                                            |
|      J. Klimes, D.R. Bowler, A. Michelides                                  |
|        J. Phys.: Cond Matt. 22 022201 (2010)                                |
|      J. Klimes, D.R. Bowler, A. Michelides                                  |
|        Phys. Rev. B. 83, 195131 (2011)                                      |
|      and references therein.                                                |
|                                                                             |
 ----------------------------------------------------------------------------- 

 POTCAR:   PAW_PBE Fe 06Sep2000                   
   VRHFIN =Fe:  d7 s1                                                           
   LEXCH  = PE                                                                  
   EATOM  =   594.4687 eV,   43.6922 Ry                                         
                                                                                
   TITEL  = PAW_PBE Fe 06Sep2000                                                
   LULTRA =        F    use ultrasoft PP ?                                      
   IUNSCR =        1    unscreen: 0-lin 1-nonlin 2-no                           
   RPACOR =    2.000    partial core radius                                     
   POMASS =   55.847; ZVAL   =    8.000    mass and valenz                      
   RCORE  =    2.300    outmost cutoff radius                                   
   RWIGS  =    2.460; RWIGS  =    1.302    wigner-seitz radius (au A)           
   ENMAX  =  267.883; ENMIN  =  200.912 eV                                      
   RCLOC  =    1.701    cutoff for local pot                                    
   LCOR   =        T    correct aug charges                                     
   LPAW   =        T    paw PP                                                  
   EAUG   =  511.368                                                            
   DEXC   =    -.022                                                            
   RMAX   =    2.817    core radius for proj-oper                               
   RAUG   =    1.300    factor for augmentation sphere                          
   RDEP   =    2.442    radius for radial grids                                 
   QCUT   =   -4.437; QGAM   =    8.874    optimization parameters              
                                                                                
   Description                                                                  
     l     E      TYP  RCUT    TYP  RCUT                                        
     2   .000     23  2.300                                                     
     2   .000     23  2.300                                                     
     0   .000     23  2.300                                                     
     0   .000     23  2.300                                                     
     1  -.200     23  2.300                                                     
     1   .000     23  2.300                                                     
     3   .000      7   .000                                                     
  local pseudopotential read in
  partial core-charges read in
  atomic valenz-charges read in
  non local Contribution for L=           2  read in
    real space projection operators read in
  non local Contribution for L=           2  read in
    real space projection operators read in
  non local Contribution for L=           0  read in
    real space projection operators read in
  non local Contribution for L=           0  read in
    real space projection operators read in
  non local Contribution for L=           1  read in
    real space projection operators read in
  non local Contribution for L=           1  read in
    real space projection operators read in
    PAW grid and wavefunctions read in

   number of l-projection  operators is LMAX  =           6
   number of lm-projection operators is LMMAX =          18

 POTCAR:   PAW_PBE Si 05Jan2001                   
   VRHFIN =Si: s2p2                                                             
   LEXCH  = PE                                                                  
   EATOM  =   103.0669 eV,    7.5752 Ry                                         
                                                                                
   TITEL  = PAW_PBE Si 05Jan2001                                                
   LULTRA =        F    use ultrasoft PP ?                                      
   IUNSCR =        1    unscreen: 0-lin 1-nonlin 2-no                           
   RPACOR =    1.500    partial core radius                                     
   POMASS =   28.085; ZVAL   =    4.000    mass and valenz                      
   RCORE  =    1.900    outmost cutoff radius                                   
   RWIGS  =    2.480; RWIGS  =    1.312    wigner-seitz radius (au A)           
   ENMAX  =  245.345; ENMIN  =  184.009 eV                                      
   ICORE  =        2    local potential                                         
   LCOR   =        T    correct aug charges                                     
   LPAW   =        T    paw PP                                                  
   EAUG   =  322.069                                                            
   DEXC   =    -.007                                                            
   RMAX   =    2.944    core radius for proj-oper                               
   RAUG   =    1.300    factor for augmentation sphere                          
   RDEP   =    1.993    radius for radial grids                                 
   QCUT   =   -4.246; QGAM   =    8.493    optimization parameters              
                                                                                
   Description                                                                  
     l     E      TYP  RCUT    TYP  RCUT                                        
     0   .000     23  1.900                                                     
     0   .000     23  1.900                                                     
     1   .000     23  1.900                                                     
     1   .000     23  1.900                                                     
     2   .000      7  1.900                                                     
  local pseudopotential read in
  partial core-charges read in
  atomic valenz-charges read in
  non local Contribution for L=           0  read in
    real space projection operators read in
  non local Contribution for L=           0  read in
    real space projection operators read in
  non local Contribution for L=           1  read in
    real space projection operators read in
  non local Contribution for L=           1  read in
    real space projection operators read in
    PAW grid and wavefunctions read in

   number of l-projection  operators is LMAX  =           4
   number of lm-projection operators is LMMAX =           8

 POTCAR:   PAW_PBE Se 06Sep2000                   
   VRHFIN =Se: s2p4                                                             
   LEXCH  = PE                                                                  
   EATOM  =   256.9644 eV,   18.8864 Ry                                         
                                                                                
   TITEL  = PAW_PBE Se 06Sep2000                                                
   LULTRA =        F    use ultrasoft PP ?                                      
   IUNSCR =        1    unscreen: 0-lin 1-nonlin 2-no                           
   RPACOR =    1.900    partial core radius                                     
   POMASS =   78.960; ZVAL   =    6.000    mass and valenz                      
   RCORE  =    2.100    outmost cutoff radius                                   
   RWIGS  =    2.200; RWIGS  =    1.164    wigner-seitz radius (au A)           
   ENMAX  =  211.534; ENMIN  =  158.651 eV                                      
   ICORE  =        3    local potential                                         
   LCOR   =        T    correct aug charges                                     
   LPAW   =        T    paw PP                                                  
   EAUG   =  446.842                                                            
   DEXC   =    -.031                                                            
   RMAX   =    3.170    core radius for proj-oper                               
   RAUG   =    1.300    factor for augmentation sphere                          
   RDEP   =    2.177    radius for radial grids                                 
   QCUT   =   -3.943; QGAM   =    7.886    optimization parameters              
                                                                                
   Description                                                                  
     l     E      TYP  RCUT    TYP  RCUT                                        
     0   .000     23  2.100                                                     
     0   .000     23  2.100                                                     
     1   .000     23  2.100                                                     
     1   .000     23  2.100                                                     
     2   .000     23  2.100                                                     
     3  -.100      7  2.100                                                     
  local pseudopotential read in
  partial core-charges read in
  atomic valenz-charges read in
  non local Contribution for L=           0  read in
    real space projection operators read in
  non local Contribution for L=           0  read in
    real space projection operators read in
  non local Contribution for L=           1  read in
    real space projection operators read in
  non local Contribution for L=           1  read in
    real space projection operators read in
  non local Contribution for L=           2  read in
    real space projection operators read in
    PAW grid and wavefunctions read in

   number of l-projection  operators is LMAX  =           5
   number of lm-projection operators is LMMAX =          13

 Optimization of the real space projectors (new method)

 maximal supplied QI-value         = 16.25
 optimisation between [QCUT,QGAM] = [ 11.54, 23.24] = [ 37.28,151.24] Ry 
 Optimized for a Real-space Cutoff    1.53 Angstroem

   l    n(q)    QCUT    max X(q) W(low)/X(q) W(high)/X(q)  e(spline) 
   2     10    11.539     4.378    0.86E-05    0.15E-04    0.46E-07
   2     10    11.539    23.237    0.11E-03    0.14E-03    0.22E-06
   0     11    11.539    17.641    0.19E-04    0.14E-05    0.18E-07
   0     11    11.539    50.908    0.43E-04    0.16E-04    0.30E-06
   1     10    11.539     6.148    0.11E-04    0.38E-05    0.26E-07
   1     10    11.539     8.345    0.44E-04    0.25E-04    0.11E-06
 Optimization of the real space projectors (new method)

 maximal supplied QI-value         = 19.84
 optimisation between [QCUT,QGAM] = [ 11.51, 23.22] = [ 37.09,150.92] Ry 
 Optimized for a Real-space Cutoff    1.21 Angstroem

   l    n(q)    QCUT    max X(q) W(low)/X(q) W(high)/X(q)  e(spline) 
   0      8    11.508     8.708    0.18E-04    0.44E-05    0.47E-08
   0      8    11.508   106.241    0.70E-04    0.15E-03    0.51E-07
   1      8    11.508     5.901    0.63E-05    0.23E-04    0.21E-07
   1      8    11.508    73.241    0.15E-03    0.36E-04    0.79E-07
 Optimization of the real space projectors (new method)

 maximal supplied QI-value         = 17.95
 optimisation between [QCUT,QGAM] = [ 11.67, 23.34] = [ 38.13,152.52] Ry 
 Optimized for a Real-space Cutoff    1.25 Angstroem

   l    n(q)    QCUT    max X(q) W(low)/X(q) W(high)/X(q)  e(spline) 
   0      9    11.669     6.499    0.13E-04    0.81E-05    0.11E-07
   0      9    11.669    52.623    0.18E-03    0.46E-04    0.72E-07
   1      8    11.669     4.229    0.40E-04    0.45E-04    0.31E-07
   1      8    11.669    29.991    0.22E-03    0.36E-03    0.10E-06
   2      8    11.669     3.719    0.19E-03    0.46E-04    0.50E-07

 ----------------------------------------------------------------------------- 
|                                                                             |
|  ADVICE TO THIS USER RUNNING 'VASP/VAMP'   (HEAR YOUR MASTER'S VOICE ...):  |
|                                                                             |
|      You enforced a specific xc-type in the INCAR file,                     |
|      a different type was found on the POTCAR file                          |
|          I HOPE YOU KNOW, WHAT YOU ARE  DOING                               |
|                                                                             |
 ----------------------------------------------------------------------------- 

 PAW_PBE Fe 06Sep2000                   :
 energy of atom  1       EATOM= -594.4687
 kinetic energy error for atom=    0.0026 (will be added to EATOM!!)
 PAW_PBE Si 05Jan2001                   :
 energy of atom  2       EATOM= -103.0669
 kinetic energy error for atom=    0.0005 (will be added to EATOM!!)
 PAW_PBE Se 06Sep2000                   :
 energy of atom  3       EATOM= -256.9644
 kinetic energy error for atom=    0.0007 (will be added to EATOM!!)


 POSCAR: Fe2 Si2 Se6                             
  positions in direct lattice
  velocities in cartesian coordinates
  No initial velocities read in
 exchange correlation table for  LEXCH =       42
   RHO(1)=    0.500       N(1)  =     2000
   RHO(2)=  100.500       N(2)  =     4000



--------------------------------------------------------------------------------------------------------


 ion  position               nearest neighbor table
   1  0.333  0.333  0.500-   6 2.78   5 2.78   7 2.78   8 2.78  10 2.78   9 2.78
   2  0.667  0.667  0.500-   9 2.78   8 2.78  10 2.78   5 2.78   7 2.78   6 2.78
   3  0.000  0.000  0.448-   4 2.43   8 2.63  10 2.63   9 2.63
   4  0.000  0.000  0.552-   3 2.43   5 2.63   7 2.63   6 2.63
   5  0.626  0.000  0.574-   4 2.63   1 2.78   2 2.78
   6  0.000  0.373  0.574-   4 2.63   1 2.78   2 2.78
   7  0.373  0.626  0.574-   4 2.63   1 2.78   2 2.78
   8  0.374  1.000  0.426-   3 2.63   2 2.78   1 2.78
   9  1.000  0.627  0.426-   3 2.63   2 2.78   1 2.78
  10  0.627  0.374  0.426-   3 2.63   2 2.78   1 2.78

  LATTYP: Found a hexagonal cell.
 ALAT       =     6.9077769333
 C/A-ratio  =     3.3939410937
  
  Lattice vectors:
  
 A1 = (   3.4538890000,  -5.9823100000,   0.0000000000)
 A2 = (  -6.9077770000,   0.0000000000,   0.0000000000)
 A3 = (   0.0000000000,   0.0000000000, -23.4445880000)


Analysis of symmetry for initial positions (statically):
=====================================================================
 Subroutine PRICEL returns:
 Original cell was already a primitive cell.
 

 Routine SETGRP: Setting up the symmetry group for a 
 hexagonal supercell.


 Subroutine GETGRP returns: Found  6 space group operations
 (whereof  6 operations were pure point group operations)
 out of a pool of 24 trial point group operations.


The static configuration has the point symmetry S_6 .


Analysis of symmetry for dynamics (positions and initial velocities):
=====================================================================
 Subroutine PRICEL returns:
 Original cell was already a primitive cell.
 

 Routine SETGRP: Setting up the symmetry group for a 
 hexagonal supercell.


 Subroutine GETGRP returns: Found  6 space group operations
 (whereof  6 operations were pure point group operations)
 out of a pool of 24 trial point group operations.


The dynamic configuration has the point symmetry S_6 .


Analysis of constrained symmetry for selective dynamics:
=====================================================================
 Subroutine PRICEL returns:
 Original cell was already a primitive cell.
 

 Routine SETGRP: Setting up the symmetry group for a 
 hexagonal supercell.


 Subroutine GETGRP returns: Found  6 space group operations
 (whereof  6 operations were pure point group operations)
 out of a pool of 24 trial point group operations.


The constrained configuration has the point symmetry S_6 .


Analysis of structural, dynamic, and magnetic symmetry:
=====================================================================
 Subroutine PRICEL returns:
 Original cell was already a primitive cell.
 

 Routine SETGRP: Setting up the symmetry group for a 
 hexagonal supercell.


 Subroutine GETGRP returns: Found  6 space group operations
 (whereof  6 operations were pure point group operations)
 out of a pool of 24 trial point group operations.


The magnetic configuration has the point symmetry S_6 .


 Subroutine INISYM returns: Found  6 space group operations
 (whereof  6 operations are pure point group operations),
 and found     1 'primitive' translations



 KPOINTS: Kpoints from vasprun.xml                

Automatic generation of k-mesh.
Space group operators:
 irot       det(A)        alpha          n_x          n_y          n_z        tau_x        tau_y        tau_z
    1     1.000000     0.000000     1.000000     0.000000     0.000000     0.000000     0.000000     0.000000
    2    -1.000000     0.000000     1.000000     0.000000     0.000000     0.000000     0.000000     0.000000
    3     1.000000   120.000000     0.000000     0.000000     1.000000     0.000000     0.000000     0.000000
    4    -1.000000   120.000000     0.000000     0.000000     1.000000     0.000000     0.000000     0.000000
    5     1.000000   120.000000     0.000000     0.000000    -1.000000     0.000000     0.000000     0.000000
    6    -1.000000   120.000000     0.000000     0.000000    -1.000000     0.000000     0.000000     0.000000
 
 Subroutine IBZKPT returns following result:
 ===========================================
 
 Found      5 irreducible k-points:
 
 Following reciprocal coordinates:
            Coordinates               Weight
  0.000000  0.000000  0.000000      1.000000
  0.200000  0.000000  0.000000      6.000000
  0.400000  0.000000  0.000000      6.000000
  0.400000  0.200000  0.000000      6.000000
 -0.400000  0.200000  0.000000      6.000000
 
 Following cartesian coordinates:
            Coordinates               Weight
  0.000000  0.000000  0.000000      1.000000
  0.028953 -0.016716  0.000000      6.000000
  0.057906 -0.033432  0.000000      6.000000
  0.057906  0.000000  0.000000      6.000000
 -0.057906  0.066864  0.000000      6.000000
 
 TETIRR: Found     15 inequivalent tetrahedra from      150


--------------------------------------------------------------------------------------------------------




 Dimension of arrays:
   k-points           NKPTS =      5   k-points in BZ     NKDIM =      5   number of bands    NBANDS=     48
   number of dos      NEDOS =    301   number of ions     NIONS =     10
   non local maximal  LDIM  =      6   non local SUM 2l+1 LMDIM =     18
   total plane-waves  NPLWV = 524880
   max r-space proj   IRMAX =   8238   max aug-charges    IRDMAX=  23823
   dimension x,y,z NGX =    54 NGY =   54 NGZ =  180
   dimension x,y,z NGXF=   108 NGYF=  108 NGZF=  360
   support grid    NGXF=   108 NGYF=  108 NGZF=  360
   ions per type =               2   2   6
   NGX,Y,Z   is equivalent  to a cutoff of  13.00, 13.00, 12.76 a.u.
   NGXF,Y,Z  is equivalent  to a cutoff of  25.99, 25.99, 25.53 a.u.

 SYSTEM =  unknown system                          
 POSCAR =  Fe2 Si2 Se6                             

 Startparameter for this run:
   NWRITE =      2    write-flag & timer
   PREC   = accura    normal or accurate (medium, high low for compatibility)
   ISTART =      0    job   : 0-new  1-cont  2-samecut
   ICHARG =      2    charge: 1-file 2-atom 10-const
   ISPIN  =      2    spin polarized calculation?
   LNONCOLLINEAR =      F non collinear calculations
   LSORBIT =      F    spin-orbit coupling
   INIWAV =      1    electr: 0-lowe 1-rand  2-diag
   LASPH  =      F    aspherical Exc in radial PAW
   METAGGA=      F    non-selfconsistent MetaGGA calc.

 Electronic Relaxation 1
   ENCUT  =  520.0 eV  38.22 Ry    6.18 a.u.  12.84 12.84 43.59*2*pi/ulx,y,z
   ENINI  =  520.0     initial cutoff
   ENAUG  =  511.4 eV  augmentation charge cutoff
   NELM   =    400;   NELMIN=  2; NELMDL=  0     # of ELM steps 
   EDIFF  = 0.1E-03   stopping-criterion for ELM
   LREAL  =      T    real-space projection
   NLSPLINE    = F    spline interpolate recip. space projectors
   LCOMPAT=      F    compatible to vasp.4.4
   GGA_COMPAT  = T    GGA compatible to vasp.4.4-vasp.4.6
   LMAXPAW     = -100 max onsite density
   LMAXMIX     =    2 max onsite mixed and CHGCAR
   VOSKOWN=      0    Vosko Wilk Nusair interpolation
   ROPT   =   -0.00025  -0.00025  -0.00025
 Ionic relaxation
   EDIFFG = 0.1E-02   stopping-criterion for IOM
   NSW    =     99    number of steps for IOM
   NBLOCK =      1;   KBLOCK =     99    inner block; outer block 
   IBRION =      2    ionic relax: 0-MD 1-quasi-New 2-CG
   NFREE  =      1    steps in history (QN), initial steepest desc. (CG)
   ISIF   =      3    stress and relaxation
   IWAVPR =     11    prediction:  0-non 1-charg 2-wave 3-comb
   ISYM   =      2    0-nonsym 1-usesym 2-fastsym
   LCORR  =      T    Harris-Foulkes like correction to forces

   POTIM  = 0.5000    time-step for ionic-motion
   TEIN   =    0.0    initial temperature
   TEBEG  =    0.0;   TEEND  =   0.0 temperature during run
   SMASS  =  -3.00    Nose mass-parameter (am)
   estimated Nose-frequenzy (Omega)   =  0.10E-29 period in steps =****** mass=  -0.109E-26a.u.
   SCALEE = 1.0000    scale energy and forces
   NPACO  =    256;   APACO  = 16.0  distance and # of slots for P.C.
   PSTRESS=    0.0 pullay stress

  Mass of Ions in am
   POMASS =  55.85 28.09 78.96
  Ionic Valenz
   ZVAL   =   8.00  4.00  6.00
  Atomic Wigner-Seitz radii
   RWIGS  =  -1.00 -1.00 -1.00
  virtual crystal weights 
   VCA    =   1.00  1.00  1.00
   NELECT =      60.0000    total number of electrons
   NUPDOWN=      -1.0000    fix difference up-down

 DOS related values:
   EMIN   =  10.00;   EMAX   =-10.00  energy-range for DOS
   EFERMI =   0.00
   ISMEAR =    -5;   SIGMA  =   0.05  broadening in eV -4-tet -1-fermi 0-gaus

 Electronic relaxation 2 (details)
   IALGO  =     38    algorithm
   LDIAG  =      T    sub-space diagonalisation (order eigenvalues)
   LSUBROT=      F    optimize rotation matrix (better conditioning)
   TURBO    =      0    0=normal 1=particle mesh
   IRESTART =      0    0=no restart 2=restart with 2 vectors
   NREBOOT  =      0    no. of reboots
   NMIN     =      0    reboot dimension
   EREF     =   0.00    reference energy to select bands
   IMIX   =      4    mixing-type and parameters
     AMIX     =   0.40;   BMIX     =  1.00
     AMIX_MAG =   1.60;   BMIX_MAG =  1.00
     AMIN     =   0.01
     WC   =   100.;   INIMIX=   1;  MIXPRE=   1;  MAXMIX= -45

 Intra band minimization:
   WEIMIN = 0.0010     energy-eigenvalue tresh-hold
   EBREAK =  0.52E-06  absolut break condition
   DEPER  =   0.30     relativ break condition  

   TIME   =   0.40     timestep for ELM

  volume/ion in A,a.u.               =      96.88       653.80
  Fermi-wavevector in a.u.,A,eV,Ry     =   0.647702  1.223979  5.707889  0.419518
  Thomas-Fermi vector in A             =   1.716096

 Write flags
   LWAVE        =      F    write WAVECAR
   LDOWNSAMPLE  =      F    k-point downsampling of WAVECAR
   LCHARG       =      T    write CHGCAR
   LVTOT        =      F    write LOCPOT, total local potential
   LVHAR        =      F    write LOCPOT, Hartree potential only
   LELF         =      F    write electronic localiz. function (ELF)
   LORBIT       =     11    0 simple, 1 ext, 2 COOP (PROOUT), +10 PAW based schemes


 Dipole corrections
   LMONO  =      F    monopole corrections only (constant potential shift)
   LDIPOL =      F    correct potential (dipole corrections)
   IDIPOL =      0    1-x, 2-y, 3-z, 4-all directions 
   EPSILON=  1.0000000 bulk dielectric constant

 Exchange correlation treatment:
   GGA     =    BO    GGA type
   LEXCH   =    42    internal setting for exchange type
   VOSKOWN=      0    Vosko Wilk Nusair interpolation
   LHFCALC =     F    Hartree Fock is set to
   LHFONE  =     F    Hartree Fock one center treatment
   AEXX    =    0.0000 exact exchange contribution

 vdW DFT:
   LUSE_VDW   =     T    switch on vdW DFT
   Zab_VDW    =-.8491    correlation parameter
   PARAM1     =0.1833
   PARAM2     =0.2200
   PARAM3     =0.0000
   -- rVV10 --
   BPARAM     = 6.3000
   CPARAM     = 0.0093

 Linear response parameters
   LEPSILON=     F    determine dielectric tensor
   LRPA    =     F    only Hartree local field effects (RPA)
   LNABLA  =     F    use nabla operator in PAW spheres
   LVEL    =     F    velocity operator in full k-point grid
   LINTERFAST=   F  fast interpolation
   KINTER  =     0    interpolate to denser k-point grid
   CSHIFT  =0.1000    complex shift for real part using Kramers Kronig
   OMEGAMAX=  -1.0    maximum frequency
   DEG_THRESHOLD= 0.2000000E-02 threshold for treating states as degnerate
   RTIME   =   -0.100 relaxation time in fs
  (WPLASMAI=    0.000 imaginary part of plasma frequency in eV, 0.658/RTIME)
   DFIELD  = 0.0000000 0.0000000 0.0000000 field for delta impulse in time

 Orbital magnetization related:
   ORBITALMAG=     F  switch on orbital magnetization
   LCHIMAG   =     F  perturbation theory with respect to B field
   DQ        =  0.001000  dq finite difference perturbation B field
   LLRAUG    =     F  two centre corrections for induced B field



--------------------------------------------------------------------------------------------------------


 conjugate gradient relaxation of ions
   using selective dynamics as specified on POSCAR
 charge density and potential will be updated during run
 spin polarized calculation
 Variant of blocked Davidson
 Davidson routine will perform the subspace rotation
 perform sub-space diagonalisation
    after iterative eigenvector-optimisation
 modified Broyden-mixing scheme, WC =      100.0
 initial mixing is a Kerker type mixing with AMIX =  0.4000 and BMIX =      1.0000
 Hartree-type preconditioning will be used
 using additional bands           18
 real space projection scheme for non local part
 use partial core corrections
 calculate Harris-corrections to forces   (improved forces if not selfconsistent)
 use gradient corrections 
 use of overlap-Matrix (Vanderbilt PP)
 Fermi weights with tetrahedron method with Bloechl corrections


--------------------------------------------------------------------------------------------------------


  energy-cutoff  :      520.00
  volume of cell :      968.84
      direct lattice vectors                 reciprocal lattice vectors
     6.907777000 -0.000000000  0.000000000     0.144764372 -0.083579742  0.000000000
     3.453888000  5.982310000  0.000000000     0.000000000  0.167159509 -0.000000000
     0.000000000  0.000000000 23.444588000    -0.000000000  0.000000000  0.042653767

  length of vectors
     6.907777000  6.907776433 23.444588000     0.167159495  0.167159509  0.042653767



 k-points in units of 2pi/SCALE and weight: Kpoints from vasprun.xml                
   0.00000000  0.00000000  0.00000000       0.040
   0.02895287 -0.01671595  0.00000000       0.240
   0.05790575 -0.03343190  0.00000000       0.240
   0.05790575  0.00000000  0.00000000       0.240
  -0.05790575  0.06686380  0.00000000       0.240

 k-points in reciprocal lattice and weights: Kpoints from vasprun.xml                
   0.00000000  0.00000000  0.00000000       0.040
   0.20000000  0.00000000  0.00000000       0.240
   0.40000000  0.00000000  0.00000000       0.240
   0.40000000  0.20000000  0.00000000       0.240
  -0.40000000  0.20000000  0.00000000       0.240

 position of ions in fractional coordinates (direct lattice) 
   0.33333300  0.33333300  0.49992500
   0.66666700  0.66666700  0.50007500
   0.00000000  0.00000000  0.44821600
   0.00000000  0.00000000  0.55178400
   0.62635700  0.00042000  0.57375200
   0.00042000  0.37322400  0.57375200
   0.37322400  0.62635700  0.57375200
   0.37364300  0.99958000  0.42624800
   0.99958000  0.62677600  0.42624800
   0.62677600  0.37364300  0.42624800

 position of ions in cartesian coordinates  (Angst):
   3.45388488  1.99410134 11.72053566
   6.90778012  3.98820866 11.72405234
   0.00000000  0.00000000 10.50823946
   0.00000000  0.00000000 12.93634854
   4.32818511  0.00251257 13.45137925
   1.29197516  2.23274167 13.45137925
   4.74151509  3.74706174 13.45137925
   6.03347989  5.97979743  9.99320875
   9.06968984  3.74956833  9.99320875
   5.62014991  2.23524826  9.99320875



--------------------------------------------------------------------------------------------------------


 k-point  1 :   0.0000 0.0000 0.0000  plane waves:   26073
 k-point  2 :   0.2000 0.0000 0.0000  plane waves:   26070
 k-point  3 :   0.4000 0.0000 0.0000  plane waves:   26086
 k-point  4 :   0.4000 0.2000 0.0000  plane waves:   26085
 k-point  5 :  -0.4000 0.2000 0.0000  plane waves:   26115

 maximum and minimum number of plane-waves per node :     26115    26070

 maximum number of plane-waves:     26115
 maximum index in each direction: 
   IXMAX=   13   IYMAX=   12   IZMAX=   43
   IXMIN=  -13   IYMIN=  -13   IZMIN=  -43


 serial   3D FFT for wavefunctions
 parallel 3D FFT for charge:
    minimum data exchange during FFTs selected (reduces bandwidth)


 total amount of memory used by VASP MPI-rank0   127696. kBytes
=======================================================================

   base      :      30000. kBytes
   nonlr-proj:       7386. kBytes
   fftplans  :      11247. kBytes
   grid      :      66142. kBytes
   one-center:        311. kBytes
   wavefun   :      12610. kBytes

     INWAV:  cpu time    0.0000: real time    0.0004
 Broyden mixing: mesh for mixing (old mesh)
   NGX = 25   NGY = 25   NGZ = 87
  (NGX  =108   NGY  =108   NGZ  =360)
  gives a total of  54375 points

 initial charge density was supplied:
 charge density of overlapping atoms calculated
 number of electron      60.0000000 magnetization       7.2600000
 keeping initial charge density in first step


--------------------------------------------------------------------------------------------------------


 Maximum index for non-local projection operator         7925
 Maximum index for augmentation-charges         1715 (set IRDMAX)


--------------------------------------------------------------------------------------------------------


 First call to EWALD:  gamma=   0.179
 Maximum number of real-space cells 4x 4x 1
 Maximum number of reciprocal cells 2x 2x 6

    FEWALD:  cpu time    0.0000: real time    0.0014


--------------------------------------- Iteration      1(   1)  ---------------------------------------


vdW kernel read from vdw_kernel.bindat
  0.0000  0.2424  0.5071  0.7962  1.1119  1.4567  1.8333  2.2446  2.6937  3.1842
  3.7199  4.3049  4.9438  5.6415  6.4036  7.2358  8.1446  9.1372 10.2212 11.4050
 12.6979 14.1099 15.6519 17.3360 19.1751 21.1837 23.3773 25.7729 28.3892 31.2465
 34.3669 37.7748 41.4965 45.5611 50.0000

    POTLOK:  cpu time   51.7120: real time   51.9685
    SETDIJ:  cpu time    0.0400: real time    0.0417
     EDDAV:  cpu time   22.7400: real time   22.8354
 BZINTS: Fermi energy:  5.081957; 60.000000 electrons
         Band energy: -27.553517;  BLOECHL correction: -0.034660
       DOS:  cpu time    0.0040: real time    0.0047
    --------------------------------------------
      LOOP:  cpu time   74.4960: real time   74.8502

 eigenvalue-minimisations  :   960
 total energy-change (2. order) : 0.3997543E+03  (-0.1763762E+04)
 number of electron      60.0000000 magnetization       7.2600000
 augmentation part       60.0000000 magnetization       7.2600000

 Free energy of the ion-electron system (eV)
  ---------------------------------------------------
  alpha Z        PSCENC =        33.32341968
  Ewald energy   TEWEN  =      7005.02028753
  -Hartree energ DENC   =     -9649.18274190
  -exchange      EXHF   =         0.00000000
  -V(xc)+E(xc)   XCENC  =       -23.29180954
  PAW double counting   =      1656.89535136    -1546.43522711
  entropy T*S    EENTRO =         0.00000000
  eigenvalues    EBANDS =       -27.55351689
  atomic energy  EATOM  =      2950.97855467
  Solvation  Ediel_sol  =         0.00000000
  ---------------------------------------------------
  free energy    TOTEN  =       399.75431780 eV

  energy without entropy =      399.75431780  energy(sigma->0) =      399.75431780


--------------------------------------------------------------------------------------------------------




--------------------------------------- Iteration      1(   2)  ---------------------------------------


     EDDAV:  cpu time   29.7040: real time   29.9695
 BZINTS: Fermi energy: -1.376612; 60.000000 electrons
         Band energy:-409.580952;  BLOECHL correction: -0.058522
       DOS:  cpu time    0.0040: real time    0.0052
    --------------------------------------------
      LOOP:  cpu time   29.7080: real time   29.9746

 eigenvalue-minimisations  :  1296
 total energy-change (2. order) :-0.3820274E+03  (-0.3571099E+03)
 number of electron      60.0000000 magnetization       7.2600000
 augmentation part       60.0000000 magnetization       7.2600000

 Free energy of the ion-electron system (eV)
  ---------------------------------------------------
  alpha Z        PSCENC =        33.32341968
  Ewald energy   TEWEN  =      7005.02028753
  -Hartree energ DENC   =     -9649.18274190
  -exchange      EXHF   =         0.00000000
  -V(xc)+E(xc)   XCENC  =       -23.29180954
  PAW double counting   =      1656.89535136    -1546.43522711
  entropy T*S    EENTRO =         0.00000000
  eigenvalues    EBANDS =      -409.58095191
  atomic energy  EATOM  =      2950.97855467
  Solvation  Ediel_sol  =         0.00000000
  ---------------------------------------------------
  free energy    TOTEN  =        17.72688278 eV

  energy without entropy =       17.72688278  energy(sigma->0) =       17.72688278


--------------------------------------------------------------------------------------------------------




--------------------------------------- Iteration      1(   3)  ---------------------------------------


     EDDAV:  cpu time   29.3480: real time   29.9369
 BZINTS: Fermi energy: -2.576923; 60.000000 electrons
         Band energy:-473.609135;  BLOECHL correction: -0.015470
       DOS:  cpu time    0.0040: real time    0.0051
    --------------------------------------------
      LOOP:  cpu time   29.3520: real time   29.9420

 eigenvalue-minimisations  :  1296
 total energy-change (2. order) :-0.6402818E+02  (-0.6282201E+02)
 number of electron      60.0000000 magnetization       7.2600000
 augmentation part       60.0000000 magnetization       7.2600000

 Free energy of the ion-electron system (eV)
  ---------------------------------------------------
  alpha Z        PSCENC =        33.32341968
  Ewald energy   TEWEN  =      7005.02028753
  -Hartree energ DENC   =     -9649.18274190
  -exchange      EXHF   =         0.00000000
  -V(xc)+E(xc)   XCENC  =       -23.29180954
  PAW double counting   =      1656.89535136    -1546.43522711
  entropy T*S    EENTRO =         0.00000000
  eigenvalues    EBANDS =      -473.60913467
  atomic energy  EATOM  =      2950.97855467
  Solvation  Ediel_sol  =         0.00000000
  ---------------------------------------------------
  free energy    TOTEN  =       -46.30129997 eV

  energy without entropy =      -46.30129997  energy(sigma->0) =      -46.30129997


--------------------------------------------------------------------------------------------------------




--------------------------------------- Iteration      1(   4)  ---------------------------------------


     EDDAV:  cpu time   28.2760: real time   28.6128
 BZINTS: Fermi energy: -2.623665; 60.000000 electrons
         Band energy:-476.131631;  BLOECHL correction: -0.011596
       DOS:  cpu time    0.0040: real time    0.0049
    --------------------------------------------
      LOOP:  cpu time   28.2800: real time   28.6176

 eigenvalue-minimisations  :  1232
 total energy-change (2. order) :-0.2522496E+01  (-0.2458521E+01)
 number of electron      60.0000000 magnetization       7.2600000
 augmentation part       60.0000000 magnetization       7.2600000

 Free energy of the ion-electron system (eV)
  ---------------------------------------------------
  alpha Z        PSCENC =        33.32341968
  Ewald energy   TEWEN  =      7005.02028753
  -Hartree energ DENC   =     -9649.18274190
  -exchange      EXHF   =         0.00000000
  -V(xc)+E(xc)   XCENC  =       -23.29180954
  PAW double counting   =      1656.89535136    -1546.43522711
  entropy T*S    EENTRO =         0.00000000
  eigenvalues    EBANDS =      -476.13163107
  atomic energy  EATOM  =      2950.97855467
  Solvation  Ediel_sol  =         0.00000000
  ---------------------------------------------------
  free energy    TOTEN  =       -48.82379637 eV

  energy without entropy =      -48.82379637  energy(sigma->0) =      -48.82379637


--------------------------------------------------------------------------------------------------------




--------------------------------------- Iteration      1(   5)  ---------------------------------------


     EDDAV:  cpu time   29.5600: real time   29.8555
 BZINTS: Fermi energy: -2.623901; 60.000000 electrons
         Band energy:-476.203873;  BLOECHL correction: -0.011574
       DOS:  cpu time    0.0040: real time    0.0047
    CHARGE:  cpu time    2.0000: real time    2.0098
    MIXING:  cpu time    0.0440: real time    0.0418
    --------------------------------------------
      LOOP:  cpu time   31.6080: real time   31.9119

 eigenvalue-minimisations  :  1296
 total energy-change (2. order) :-0.7224243E-01  (-0.7216465E-01)
 number of electron      60.0000004 magnetization       7.2885003
 augmentation part       -2.2844730 magnetization       4.9252576

 Broyden mixing:
  rms(total) = 0.24932E+01    rms(broyden)= 0.24931E+01
  rms(prec ) = 0.27490E+01
  weight for this iteration     100.00

 Free energy of the ion-electron system (eV)
  ---------------------------------------------------
  alpha Z        PSCENC =        33.32341968
  Ewald energy   TEWEN  =      7005.02028753
  -Hartree energ DENC   =     -9649.18274190
  -exchange      EXHF   =         0.00000000
  -V(xc)+E(xc)   XCENC  =       -23.29180954
  PAW double counting   =      1656.89535136    -1546.43522711
  entropy T*S    EENTRO =         0.00000000
  eigenvalues    EBANDS =      -476.20387350
  atomic energy  EATOM  =      2950.97855467
  Solvation  Ediel_sol  =         0.00000000
  ---------------------------------------------------
  free energy    TOTEN  =       -48.89603880 eV

  energy without entropy =      -48.89603880  energy(sigma->0) =      -48.89603880


--------------------------------------------------------------------------------------------------------




--------------------------------------- Iteration      1(   6)  ---------------------------------------


    POTLOK:  cpu time   51.8960: real time   52.5617
    SETDIJ:  cpu time    0.0520: real time    0.0524
     EDDAV:  cpu time   27.9320: real time   28.9493
 BZINTS: Fermi energy: -4.674261; 60.000000 electrons
         Band energy:-643.948895;  BLOECHL correction: -0.022945
       DOS:  cpu time    0.0040: real time    0.0071
    CHARGE:  cpu time    2.0440: real time    2.0756
    MIXING:  cpu time    0.0400: real time    0.0413
    --------------------------------------------
      LOOP:  cpu time   81.9680: real time   83.6876

 eigenvalue-minimisations  :  1248
 total energy-change (2. order) :-0.5294779E+02  (-0.3477429E+02)
 number of electron      60.0000013 magnetization       7.0669958
 augmentation part        8.4388047 magnetization       7.3784212

 Broyden mixing:
  rms(total) = 0.64288E+01    rms(broyden)= 0.64287E+01
  rms(prec ) = 0.68776E+01
  weight for this iteration     100.00

 eigenvalues of (default mixing * dielectric matrix)
  average eigenvalue GAMMA=   0.2297
  0.2297

 Free energy of the ion-electron system (eV)
  ---------------------------------------------------
  alpha Z        PSCENC =        33.32341968
  Ewald energy   TEWEN  =      7005.02028753
  -Hartree energ DENC   =     -9547.43045334
  -exchange      EXHF   =         0.00000000
  -V(xc)+E(xc)   XCENC  =       -22.47447555
  PAW double counting   =      1495.06853406    -1372.38079891
  entropy T*S    EENTRO =         0.00000000
  eigenvalues    EBANDS =      -643.94889546
  atomic energy  EATOM  =      2950.97855467
  Solvation  Ediel_sol  =         0.00000000
  ---------------------------------------------------
  free energy    TOTEN  =      -101.84382731 eV

  energy without entropy =     -101.84382731  energy(sigma->0) =     -101.84382731


--------------------------------------------------------------------------------------------------------




--------------------------------------- Iteration      1(   7)  ---------------------------------------


    POTLOK:  cpu time   52.0800: real time   52.4429
    SETDIJ:  cpu time    0.0400: real time    0.0424
     EDDAV:  cpu time   31.0640: real time   31.7674
 BZINTS: Fermi energy: -4.731676; 60.000000 electrons
         Band energy:-872.871949;  BLOECHL correction: -0.018884
       DOS:  cpu time    0.0040: real time    0.0074
    CHARGE:  cpu time    2.0160: real time    2.0306
    MIXING:  cpu time    0.0400: real time    0.0410
    --------------------------------------------
      LOOP:  cpu time   85.2440: real time   86.3317

 eigenvalue-minimisations  :  1376
 total energy-change (2. order) :-0.3050683E+03  (-0.3681068E+03)
 number of electron      60.0000010 magnetization       7.0493862
 augmentation part        4.7074561 magnetization       7.6138133

 Broyden mixing:
  rms(total) = 0.40481E+01    rms(broyden)= 0.40390E+01
  rms(prec ) = 0.42618E+01
  weight for this iteration     100.00

 eigenvalues of (default mixing * dielectric matrix)
  average eigenvalue GAMMA=   0.1271
  0.2126  0.0416

 Free energy of the ion-electron system (eV)
  ---------------------------------------------------
  alpha Z        PSCENC =        33.32341968
  Ewald energy   TEWEN  =      7005.02028753
  -Hartree energ DENC   =     -9610.38336470
  -exchange      EXHF   =         0.00000000
  -V(xc)+E(xc)   XCENC  =       -24.41910236
  PAW double counting   =      1607.48770257    -1496.04767864
  entropy T*S    EENTRO =         0.00000000
  eigenvalues    EBANDS =      -872.87194948
  atomic energy  EATOM  =      2950.97855467
  Solvation  Ediel_sol  =         0.00000000
  ---------------------------------------------------
  free energy    TOTEN  =      -406.91213073 eV

  energy without entropy =     -406.91213073  energy(sigma->0) =     -406.91213073


--------------------------------------------------------------------------------------------------------




--------------------------------------- Iteration      1(   8)  ---------------------------------------


    POTLOK:  cpu time   51.1960: real time   52.4660
    SETDIJ:  cpu time    0.0440: real time    0.0438
     EDDAV:  cpu time   28.0200: real time   28.2483
 BZINTS: Fermi energy: -4.707424; 60.000000 electrons
         Band energy:-679.159081;  BLOECHL correction: -0.012469
       DOS:  cpu time    0.0040: real time    0.0071
    CHARGE:  cpu time    2.0360: real time    2.0339
    MIXING:  cpu time    0.0440: real time    0.0441
    --------------------------------------------
      LOOP:  cpu time   81.3440: real time   82.8432

 eigenvalue-minimisations  :  1216
 total energy-change (2. order) : 0.1939657E+03  (-0.1438582E+03)
 number of electron      60.0000009 magnetization       7.0121785
 augmentation part        3.7668975 magnetization       7.9878993

 Broyden mixing:
  rms(total) = 0.28155E+01    rms(broyden)= 0.27921E+01
  rms(prec ) = 0.29911E+01
  weight for this iteration     100.00

 eigenvalues of (default mixing * dielectric matrix)
  average eigenvalue GAMMA=   0.1094
  0.1430  0.1430  0.0423

 Free energy of the ion-electron system (eV)
  ---------------------------------------------------
  alpha Z        PSCENC =        33.32341968
  Ewald energy   TEWEN  =      7005.02028753
  -Hartree energ DENC   =     -9610.49888305
  -exchange      EXHF   =         0.00000000
  -V(xc)+E(xc)   XCENC  =       -23.94713043
  PAW double counting   =      1609.31277326    -1497.97637528
  entropy T*S    EENTRO =         0.00000000
  eigenvalues    EBANDS =      -679.15908052
  atomic energy  EATOM  =      2950.97855467
  Solvation  Ediel_sol  =         0.00000000
  ---------------------------------------------------
  free energy    TOTEN  =      -212.94643413 eV

  energy without entropy =     -212.94643413  energy(sigma->0) =     -212.94643413


--------------------------------------------------------------------------------------------------------




--------------------------------------- Iteration      1(   9)  ---------------------------------------


    POTLOK:  cpu time   51.4720: real time   51.6143
    SETDIJ:  cpu time    0.0320: real time    0.0324
     EDDAV:  cpu time   32.2520: real time   32.5378
 BZINTS: Fermi energy: -4.583125; 60.000000 electrons
         Band energy:***********;  BLOECHL correction: -0.006486
       DOS:  cpu time    0.0080: real time    0.0048
    CHARGE:  cpu time    1.9840: real time    1.9891
    MIXING:  cpu time    0.0440: real time    0.0421
    --------------------------------------------
      LOOP:  cpu time   85.7920: real time   86.2204

 eigenvalue-minimisations  :  1440
 total energy-change (2. order) :-0.2000457E+04  (-0.2331600E+04)
 number of electron      60.0000008 magnetization       6.9946519
 augmentation part        2.9373918 magnetization       8.0915085

 Broyden mixing:
  rms(total) = 0.36160E+01    rms(broyden)= 0.34606E+01
  rms(prec ) = 0.35542E+01
  weight for this iteration     100.00

 eigenvalues of (default mixing * dielectric matrix)
  average eigenvalue GAMMA=   0.0952
  0.1523  0.1523  0.0382  0.0382

 Free energy of the ion-electron system (eV)
  ---------------------------------------------------
  alpha Z        PSCENC =        33.32341968
  Ewald energy   TEWEN  =      7005.02028753
  -Hartree energ DENC   =     -9610.21465348
  -exchange      EXHF   =         0.00000000
  -V(xc)+E(xc)   XCENC  =       -23.62309874
  PAW double counting   =      1612.01734236    -1500.80894972
  entropy T*S    EENTRO =         0.00000000
  eigenvalues    EBANDS =     -2680.09668983
  atomic energy  EATOM  =      2950.97855467
  Solvation  Ediel_sol  =         0.00000000
  ---------------------------------------------------
  free energy    TOTEN  =     -2213.40378753 eV

  energy without entropy =    -2213.40378753  energy(sigma->0) =    -2213.40378753


--------------------------------------------------------------------------------------------------------




--------------------------------------- Iteration      1(  10)  ---------------------------------------


    POTLOK:  cpu time   51.3760: real time   51.4306
    SETDIJ:  cpu time    0.0440: real time    0.0434
     EDDAV:  cpu time   26.6640: real time   27.1416
 BZINTS: Fermi energy: -4.414593; 60.000000 electrons
         Band energy:-508.331840;  BLOECHL correction: -0.014636
       DOS:  cpu time    0.0040: real time    0.0075
    CHARGE:  cpu time    1.9840: real time    2.0196
    MIXING:  cpu time    0.0320: real time    0.0647
    --------------------------------------------
      LOOP:  cpu time   80.1040: real time   80.7073

 eigenvalue-minimisations  :  1168
 total energy-change (2. order) : 0.2173979E+04  (-0.4433666E+03)
 number of electron      60.0000009 magnetization       6.7897500
 augmentation part        3.6911957 magnetization       6.7981521

 Broyden mixing:
  rms(total) = 0.21427E+01    rms(broyden)= 0.19798E+01
  rms(prec ) = 0.21510E+01
  weight for this iteration     100.00

 eigenvalues of (default mixing * dielectric matrix)
  average eigenvalue GAMMA=   0.1969
  0.4150  0.4150  0.0596  0.0596  0.0354

 Free energy of the ion-electron system (eV)
  ---------------------------------------------------
  alpha Z        PSCENC =        33.32341968
  Ewald energy   TEWEN  =      7005.02028753
  -Hartree energ DENC   =     -9609.99699954
  -exchange      EXHF   =         0.00000000
  -V(xc)+E(xc)   XCENC  =       -21.58313969
  PAW double counting   =      1612.77510907    -1501.60999985
  entropy T*S    EENTRO =         0.00000000
  eigenvalues    EBANDS =      -508.33184017
  atomic energy  EATOM  =      2950.97855467
  Solvation  Ediel_sol  =         0.00000000
  ---------------------------------------------------
  free energy    TOTEN  =       -39.42460829 eV

  energy without entropy =      -39.42460829  energy(sigma->0) =      -39.42460829


--------------------------------------------------------------------------------------------------------




--------------------------------------- Iteration      1(  11)  ---------------------------------------


    POTLOK:  cpu time   50.9760: real time   51.0833
    SETDIJ:  cpu time    0.0400: real time    0.0427
     EDDAV:  cpu time   28.4440: real time   28.6682
 BZINTS: Fermi energy: -3.543549; 60.000000 electrons
         Band energy:-491.007939;  BLOECHL correction: -0.020529
       DOS:  cpu time    0.0040: real time    0.0067
    CHARGE:  cpu time    2.0080: real time    2.0071
    MIXING:  cpu time    0.0440: real time    0.0436
    --------------------------------------------
      LOOP:  cpu time   81.5160: real time   81.8515

 eigenvalue-minimisations  :  1264
 total energy-change (2. order) :-0.1311402E+01  (-0.9416047E+00)
 number of electron      60.0000005 magnetization       6.9049925
 augmentation part        0.2214685 magnetization       3.8392242

 Broyden mixing:
  rms(total) = 0.16280E+01    rms(broyden)= 0.16196E+01
  rms(prec ) = 0.16554E+01
  weight for this iteration     100.00

 eigenvalues of (default mixing * dielectric matrix)
  average eigenvalue GAMMA=   0.2109
  0.4040  0.3530  0.3530  0.0598  0.0598  0.0360

 Free energy of the ion-electron system (eV)
  ---------------------------------------------------
  alpha Z        PSCENC =        33.32341968
  Ewald energy   TEWEN  =      7005.02028753
  -Hartree energ DENC   =     -9625.33925984
  -exchange      EXHF   =         0.00000000
  -V(xc)+E(xc)   XCENC  =       -23.94312389
  PAW double counting   =      1644.14369596    -1533.91164557
  entropy T*S    EENTRO =         0.00000000
  eigenvalues    EBANDS =      -491.00793864
  atomic energy  EATOM  =      2950.97855467
  Solvation  Ediel_sol  =         0.00000000
  ---------------------------------------------------
  free energy    TOTEN  =       -40.73601010 eV

  energy without entropy =      -40.73601010  energy(sigma->0) =      -40.73601010


--------------------------------------------------------------------------------------------------------




--------------------------------------- Iteration      1(  12)  ---------------------------------------


    POTLOK:  cpu time   50.6520: real time   50.9804
    SETDIJ:  cpu time    0.0440: real time    0.0422
     EDDAV:  cpu time   31.1960: real time   31.4088
 BZINTS: Fermi energy: -3.756931; 60.000000 electrons
         Band energy:-495.805143;  BLOECHL correction: -0.016633
       DOS:  cpu time    0.0080: real time    0.0074
    CHARGE:  cpu time    2.0320: real time    2.0464
    MIXING:  cpu time    0.0440: real time    0.0440
    --------------------------------------------
      LOOP:  cpu time   83.9760: real time   84.5292

 eigenvalue-minimisations  :  1392
 total energy-change (2. order) :-0.3513271E+00  (-0.8304455E-01)
 number of electron      60.0000005 magnetization       7.0427995
 augmentation part        0.7550800 magnetization       4.1471185

 Broyden mixing:
  rms(total) = 0.87564E+00    rms(broyden)= 0.87502E+00
  rms(prec ) = 0.88891E+00
  weight for this iteration     100.00

 eigenvalues of (default mixing * dielectric matrix)
  average eigenvalue GAMMA=   0.2757
  0.4665  0.4665  0.4207  0.4207  0.0599  0.0599  0.0360

 Free energy of the ion-electron system (eV)
  ---------------------------------------------------
  alpha Z        PSCENC =        33.32341968
  Ewald energy   TEWEN  =      7005.02028753
  -Hartree energ DENC   =     -9620.67506162
  -exchange      EXHF   =         0.00000000
  -V(xc)+E(xc)   XCENC  =       -23.62034573
  PAW double counting   =      1633.85732002    -1524.16636894
  entropy T*S    EENTRO =         0.00000000
  eigenvalues    EBANDS =      -495.80514285
  atomic energy  EATOM  =      2950.97855467
  Solvation  Ediel_sol  =         0.00000000
  ---------------------------------------------------
  free energy    TOTEN  =       -41.08733723 eV

  energy without entropy =      -41.08733723  energy(sigma->0) =      -41.08733723


--------------------------------------------------------------------------------------------------------




--------------------------------------- Iteration      1(  13)  ---------------------------------------


    POTLOK:  cpu time   50.8840: real time   51.1699
    SETDIJ:  cpu time    0.0480: real time    0.0493
     EDDAV:  cpu time   30.8080: real time   31.0710
 BZINTS: Fermi energy: -3.897553; 60.000000 electrons
         Band energy:-497.715834;  BLOECHL correction: -0.004900
       DOS:  cpu time    0.0040: real time    0.0053
    CHARGE:  cpu time    1.9600: real time    2.0410
    MIXING:  cpu time    0.0480: real time    0.0450
    --------------------------------------------
      LOOP:  cpu time   83.7520: real time   84.3816

 eigenvalue-minimisations  :  1376
 total energy-change (2. order) :-0.1984420E+00  (-0.5170547E-01)
 number of electron      60.0000006 magnetization       7.1831386
 augmentation part        1.3757693 magnetization       4.8267865

 Broyden mixing:
  rms(total) = 0.25994E+00    rms(broyden)= 0.25982E+00
  rms(prec ) = 0.27777E+00
  weight for this iteration     100.00

 eigenvalues of (default mixing * dielectric matrix)
  average eigenvalue GAMMA=   0.4287
  0.8871  0.8871  0.5383  0.4806  0.4806  0.0599  0.0599  0.0360

 Free energy of the ion-electron system (eV)
  ---------------------------------------------------
  alpha Z        PSCENC =        33.32341968
  Ewald energy   TEWEN  =      7005.02028753
  -Hartree energ DENC   =     -9619.02785770
  -exchange      EXHF   =         0.00000000
  -V(xc)+E(xc)   XCENC  =       -22.91911075
  PAW double counting   =      1629.55027857    -1520.49551704
  entropy T*S    EENTRO =         0.00000000
  eigenvalues    EBANDS =      -497.71583414
  atomic energy  EATOM  =      2950.97855467
  Solvation  Ediel_sol  =         0.00000000
  ---------------------------------------------------
  free energy    TOTEN  =       -41.28577918 eV

  energy without entropy =      -41.28577918  energy(sigma->0) =      -41.28577918


--------------------------------------------------------------------------------------------------------




--------------------------------------- Iteration      1(  14)  ---------------------------------------


    POTLOK:  cpu time   50.8800: real time   51.0864
    SETDIJ:  cpu time    0.0400: real time    0.0425
     EDDAV:  cpu time   33.0080: real time   33.5730
 BZINTS: Fermi energy: -3.751887; 60.000000 electrons
         Band energy:-495.670105;  BLOECHL correction: -0.013719
       DOS:  cpu time    0.0040: real time    0.0074
    CHARGE:  cpu time    1.9720: real time    2.0565
    MIXING:  cpu time    0.0480: real time    0.0482
    --------------------------------------------
      LOOP:  cpu time   85.9520: real time   86.8140

 eigenvalue-minimisations  :  1488
 total energy-change (2. order) :-0.9455454E-01  (-0.2674819E-01)
 number of electron      60.0000005 magnetization       7.3206139
 augmentation part        1.0733679 magnetization       4.4066280

 Broyden mixing:
  rms(total) = 0.20011E+00    rms(broyden)= 0.20004E+00
  rms(prec ) = 0.20451E+00
  weight for this iteration     100.00

 eigenvalues of (default mixing * dielectric matrix)
  average eigenvalue GAMMA=   0.5349
  1.6101  0.7671  0.7671  0.5637  0.4753  0.4753  0.0599  0.0599  0.0360

 Free energy of the ion-electron system (eV)
  ---------------------------------------------------
  alpha Z        PSCENC =        33.32341968
  Ewald energy   TEWEN  =      7005.02028753
  -Hartree energ DENC   =     -9621.19760672
  -exchange      EXHF   =         0.00000000
  -V(xc)+E(xc)   XCENC  =       -21.94939200
  PAW double counting   =      1632.00659536    -1523.89208700
  entropy T*S    EENTRO =         0.00000000
  eigenvalues    EBANDS =      -495.67010525
  atomic energy  EATOM  =      2950.97855467
  Solvation  Ediel_sol  =         0.00000000
  ---------------------------------------------------
  free energy    TOTEN  =       -41.38033372 eV

  energy without entropy =      -41.38033372  energy(sigma->0) =      -41.38033372


--------------------------------------------------------------------------------------------------------




--------------------------------------- Iteration      1(  15)  ---------------------------------------


    POTLOK:  cpu time   50.6720: real time   50.9961
    SETDIJ:  cpu time    0.0360: real time    0.0359
     EDDAV:  cpu time   29.8640: real time   30.2687
 BZINTS: Fermi energy: -3.678364; 60.000000 electrons
         Band energy:-494.051657;  BLOECHL correction: -0.020143
       DOS:  cpu time    0.0040: real time    0.0068
    CHARGE:  cpu time    2.0160: real time    2.0270
    MIXING:  cpu time    0.0480: real time    0.0465
    --------------------------------------------
      LOOP:  cpu time   82.6400: real time   83.3810

 eigenvalue-minimisations  :  1328
 total energy-change (2. order) :-0.3149035E-01  (-0.6012363E-02)
 number of electron      60.0000005 magnetization       7.4171759
 augmentation part        0.9297822 magnetization       4.3545904

 Broyden mixing:
  rms(total) = 0.23422E+00    rms(broyden)= 0.23421E+00
  rms(prec ) = 0.24717E+00
  weight for this iteration     100.00

 eigenvalues of (default mixing * dielectric matrix)
  average eigenvalue GAMMA=   0.6442
  2.1942  0.9772  0.9772  0.4732  0.4732  0.5958  0.5958  0.0599  0.0599  0.0360

 Free energy of the ion-electron system (eV)
  ---------------------------------------------------
  alpha Z        PSCENC =        33.32341968
  Ewald energy   TEWEN  =      7005.02028753
  -Hartree energ DENC   =     -9622.79211782
  -exchange      EXHF   =         0.00000000
  -V(xc)+E(xc)   XCENC  =       -21.53985635
  PAW double counting   =      1634.75629374    -1527.10674867
  entropy T*S    EENTRO =         0.00000000
  eigenvalues    EBANDS =      -494.05165686
  atomic energy  EATOM  =      2950.97855467
  Solvation  Ediel_sol  =         0.00000000
  ---------------------------------------------------
  free energy    TOTEN  =       -41.41182407 eV

  energy without entropy =      -41.41182407  energy(sigma->0) =      -41.41182407


--------------------------------------------------------------------------------------------------------




--------------------------------------- Iteration      1(  16)  ---------------------------------------


    POTLOK:  cpu time   50.6080: real time   51.1175
    SETDIJ:  cpu time    0.0440: real time    0.0424
     EDDAV:  cpu time   22.7240: real time   22.8593
 BZINTS: Fermi energy: -3.680888; 60.000000 electrons
         Band energy:-494.006404;  BLOECHL correction: -0.018872
       DOS:  cpu time    0.0080: real time    0.0070
    CHARGE:  cpu time    1.9960: real time    1.9988
    MIXING:  cpu time    0.0480: real time    0.0472
    --------------------------------------------
      LOOP:  cpu time   75.4280: real time   76.0722

 eigenvalue-minimisations  :   976
 total energy-change (2. order) : 0.1103738E-02  (-0.9929682E-03)
 number of electron      60.0000005 magnetization       7.5101537
 augmentation part        0.9676639 magnetization       4.4520088

 Broyden mixing:
  rms(total) = 0.20446E+00    rms(broyden)= 0.20446E+00
  rms(prec ) = 0.21415E+00
  weight for this iteration     100.00

 eigenvalues of (default mixing * dielectric matrix)
  average eigenvalue GAMMA=   0.6962
  2.4383  1.0821  1.0821  0.4733  0.4733  0.6810  0.6810  0.5914  0.0599  0.0599
  0.0360

 Free energy of the ion-electron system (eV)
  ---------------------------------------------------
  alpha Z        PSCENC =        33.32341968
  Ewald energy   TEWEN  =      7005.02028753
  -Hartree energ DENC   =     -9622.81386200
  -exchange      EXHF   =         0.00000000
  -V(xc)+E(xc)   XCENC  =       -21.52317602
  PAW double counting   =      1634.83789750    -1527.22743737
  entropy T*S    EENTRO =         0.00000000
  eigenvalues    EBANDS =      -494.00640433
  atomic energy  EATOM  =      2950.97855467
  Solvation  Ediel_sol  =         0.00000000
  ---------------------------------------------------
  free energy    TOTEN  =       -41.41072033 eV

  energy without entropy =      -41.41072033  energy(sigma->0) =      -41.41072033


--------------------------------------------------------------------------------------------------------




--------------------------------------- Iteration      1(  17)  ---------------------------------------


    POTLOK:  cpu time   51.0560: real time   51.1771
    SETDIJ:  cpu time    0.0440: real time    0.0423
     EDDAV:  cpu time   28.6200: real time   28.7968
 BZINTS: Fermi energy: -3.687170; 60.000000 electrons
         Band energy:-494.094472;  BLOECHL correction: -0.017909
       DOS:  cpu time    0.0040: real time    0.0067
    CHARGE:  cpu time    2.0000: real time    2.0033
    MIXING:  cpu time    0.0480: real time    0.0483
    --------------------------------------------
      LOOP:  cpu time   81.7760: real time   82.0745

 eigenvalue-minimisations  :  1264
 total energy-change (2. order) : 0.2260944E-02  (-0.7089065E-03)
 number of electron      60.0000005 magnetization       7.6209424
 augmentation part        1.0210557 magnetization       4.5579967

 Broyden mixing:
  rms(total) = 0.16266E+00    rms(broyden)= 0.16266E+00
  rms(prec ) = 0.16865E+00
  weight for this iteration     100.00

 eigenvalues of (default mixing * dielectric matrix)
  average eigenvalue GAMMA=   0.7889
  2.2918  2.2918  0.9663  0.9663  0.4735  0.4735  0.6318  0.6318  0.5844  0.0599
  0.0599  0.0360

 Free energy of the ion-electron system (eV)
  ---------------------------------------------------
  alpha Z        PSCENC =        33.32341968
  Ewald energy   TEWEN  =      7005.02028753
  -Hartree energ DENC   =     -9622.74173933
  -exchange      EXHF   =         0.00000000
  -V(xc)+E(xc)   XCENC  =       -21.52131039
  PAW double counting   =      1634.20626836    -1526.57946763
  entropy T*S    EENTRO =         0.00000000
  eigenvalues    EBANDS =      -494.09447229
  atomic energy  EATOM  =      2950.97855467
  Solvation  Ediel_sol  =         0.00000000
  ---------------------------------------------------
  free energy    TOTEN  =       -41.40845939 eV

  energy without entropy =      -41.40845939  energy(sigma->0) =      -41.40845939


--------------------------------------------------------------------------------------------------------




--------------------------------------- Iteration      1(  18)  ---------------------------------------


    POTLOK:  cpu time   50.9440: real time   51.2160
    SETDIJ:  cpu time    0.0440: real time    0.0426
     EDDAV:  cpu time   26.1480: real time   26.1850
 BZINTS: Fermi energy: -3.689178; 60.000000 electrons
         Band energy:-494.006904;  BLOECHL correction: -0.017924
       DOS:  cpu time    0.0080: real time    0.0071
    CHARGE:  cpu time    2.0000: real time    2.0042
    MIXING:  cpu time    0.0520: real time    0.0586
    --------------------------------------------
      LOOP:  cpu time   79.1920: real time   79.5134

 eigenvalue-minimisations  :  1136
 total energy-change (2. order) :-0.3530898E-02  (-0.4226337E-03)
 number of electron      60.0000005 magnetization       7.7950320
 augmentation part        1.0432754 magnetization       4.7165445

 Broyden mixing:
  rms(total) = 0.14765E+00    rms(broyden)= 0.14765E+00
  rms(prec ) = 0.15211E+00
  weight for this iteration     100.00

 eigenvalues of (default mixing * dielectric matrix)
  average eigenvalue GAMMA=   0.8932
  2.9214  2.9214  1.0521  1.0521  0.4734  0.4734  0.7009  0.7009  0.5804  0.5804
  0.0599  0.0599  0.0360

 Free energy of the ion-electron system (eV)
  ---------------------------------------------------
  alpha Z        PSCENC =        33.32341968
  Ewald energy   TEWEN  =      7005.02028753
  -Hartree energ DENC   =     -9622.85155418
  -exchange      EXHF   =         0.00000000
  -V(xc)+E(xc)   XCENC  =       -21.52746708
  PAW double counting   =      1633.64264231    -1525.99096904
  entropy T*S    EENTRO =         0.00000000
  eigenvalues    EBANDS =      -494.00690419
  atomic energy  EATOM  =      2950.97855467
  Solvation  Ediel_sol  =         0.00000000
  ---------------------------------------------------
  free energy    TOTEN  =       -41.41199028 eV

  energy without entropy =      -41.41199028  energy(sigma->0) =      -41.41199028


--------------------------------------------------------------------------------------------------------




--------------------------------------- Iteration      1(  19)  ---------------------------------------


    POTLOK:  cpu time   51.0280: real time   51.2091
    SETDIJ:  cpu time    0.0440: real time    0.0424
     EDDAV:  cpu time   28.2040: real time   28.5615
 BZINTS: Fermi energy: -3.691664; 60.000000 electrons
         Band energy:-493.989481;  BLOECHL correction: -0.017925
       DOS:  cpu time    0.0080: real time    0.0093
    CHARGE:  cpu time    1.9560: real time    2.0206
    MIXING:  cpu time    0.0440: real time    0.0548
    --------------------------------------------
      LOOP:  cpu time   81.2840: real time   81.8977

 eigenvalue-minimisations  :  1248
 total energy-change (2. order) :-0.3067985E-02  (-0.4257206E-03)
 number of electron      60.0000005 magnetization       8.0139921
 augmentation part        1.0781861 magnetization       4.9156461

 Broyden mixing:
  rms(total) = 0.10095E+00    rms(broyden)= 0.10095E+00
  rms(prec ) = 0.10376E+00
  weight for this iteration     100.00

 eigenvalues of (default mixing * dielectric matrix)
  average eigenvalue GAMMA=   1.0696
  5.3005  2.7417  1.1859  1.1859  0.4734  0.4734  0.8094  0.8094  0.6209  0.6209
  0.5969  0.0599  0.0599  0.0360

 Free energy of the ion-electron system (eV)
  ---------------------------------------------------
  alpha Z        PSCENC =        33.32341968
  Ewald energy   TEWEN  =      7005.02028753
  -Hartree energ DENC   =     -9622.93195431
  -exchange      EXHF   =         0.00000000
  -V(xc)+E(xc)   XCENC  =       -21.45031719
  PAW double counting   =      1632.55071861    -1524.91628638
  entropy T*S    EENTRO =         0.00000000
  eigenvalues    EBANDS =      -493.98948088
  atomic energy  EATOM  =      2950.97855467
  Solvation  Ediel_sol  =         0.00000000
  ---------------------------------------------------
  free energy    TOTEN  =       -41.41505827 eV

  energy without entropy =      -41.41505827  energy(sigma->0) =      -41.41505827


--------------------------------------------------------------------------------------------------------




--------------------------------------- Iteration      1(  20)  ---------------------------------------


    POTLOK:  cpu time   50.4200: real time   50.9943
    SETDIJ:  cpu time    0.0520: real time    0.0541
     EDDAV:  cpu time   30.1040: real time   30.2785
 BZINTS: Fermi energy: -3.695622; 60.000000 electrons
         Band energy:-494.077913;  BLOECHL correction: -0.017889
       DOS:  cpu time    0.0040: real time    0.0074
    CHARGE:  cpu time    2.0000: real time    2.0028
    MIXING:  cpu time    0.0520: real time    0.0520
    --------------------------------------------
      LOOP:  cpu time   82.6320: real time   83.3890

 eigenvalue-minimisations  :  1344
 total energy-change (2. order) :-0.1732968E-02  (-0.7607090E-03)
 number of electron      60.0000005 magnetization       8.2172660
 augmentation part        1.1258905 magnetization       5.0989116

 Broyden mixing:
  rms(total) = 0.34173E-01    rms(broyden)= 0.34169E-01
  rms(prec ) = 0.35022E-01
  weight for this iteration     100.00

 eigenvalues of (default mixing * dielectric matrix)
  average eigenvalue GAMMA=   1.2515
  7.9108  2.6557  1.2423  1.2423  0.4734  0.4734  0.0599  0.0599  0.0360  0.9524
  0.9524  0.7502  0.7502  0.6071  0.6071

 Free energy of the ion-electron system (eV)
  ---------------------------------------------------
  alpha Z        PSCENC =        33.32341968
  Ewald energy   TEWEN  =      7005.02028753
  -Hartree energ DENC   =     -9622.91649245
  -exchange      EXHF   =         0.00000000
  -V(xc)+E(xc)   XCENC  =       -21.32327651
  PAW double counting   =      1631.32341436    -1523.74478528
  entropy T*S    EENTRO =         0.00000000
  eigenvalues    EBANDS =      -494.07791325
  atomic energy  EATOM  =      2950.97855467
  Solvation  Ediel_sol  =         0.00000000
  ---------------------------------------------------
  free energy    TOTEN  =       -41.41679124 eV

  energy without entropy =      -41.41679124  energy(sigma->0) =      -41.41679124


--------------------------------------------------------------------------------------------------------




--------------------------------------- Iteration      1(  21)  ---------------------------------------


    POTLOK:  cpu time   50.8760: real time   51.1107
    SETDIJ:  cpu time    0.0480: real time    0.0471
     EDDAV:  cpu time   32.6720: real time   33.3855
 BZINTS: Fermi energy: -3.700326; 60.000000 electrons
         Band energy:-494.282802;  BLOECHL correction: -0.018000
       DOS:  cpu time    0.0040: real time    0.0062
    CHARGE:  cpu time    2.0160: real time    2.0323
    MIXING:  cpu time    0.0560: real time    0.0559
    --------------------------------------------
      LOOP:  cpu time   85.6720: real time   86.6377

 eigenvalue-minimisations  :  1488
 total energy-change (2. order) :-0.3667215E-02  (-0.4584532E-03)
 number of electron      60.0000005 magnetization       8.2753101
 augmentation part        1.1558936 magnetization       5.1399443

 Broyden mixing:
  rms(total) = 0.12411E-01    rms(broyden)= 0.12404E-01
  rms(prec ) = 0.13357E-01
  weight for this iteration     100.00

 eigenvalues of (default mixing * dielectric matrix)
  average eigenvalue GAMMA=   1.4978
 11.2639  2.8054  2.0658  1.1651  1.1651  0.4734  0.4734  0.0599  0.0599  0.0360
  0.8492  0.8492  0.8136  0.6120  0.6120  0.6607

 Free energy of the ion-electron system (eV)
  ---------------------------------------------------
  alpha Z        PSCENC =        33.32341968
  Ewald energy   TEWEN  =      7005.02028753
  -Hartree energ DENC   =     -9622.73870130
  -exchange      EXHF   =         0.00000000
  -V(xc)+E(xc)   XCENC  =       -21.24551480
  PAW double counting   =      1630.75862387    -1523.23432566
  entropy T*S    EENTRO =         0.00000000
  eigenvalues    EBANDS =      -494.28280244
  atomic energy  EATOM  =      2950.97855467
  Solvation  Ediel_sol  =         0.00000000
  ---------------------------------------------------
  free energy    TOTEN  =       -41.42045845 eV

  energy without entropy =      -41.42045845  energy(sigma->0) =      -41.42045845


--------------------------------------------------------------------------------------------------------




--------------------------------------- Iteration      1(  22)  ---------------------------------------


    POTLOK:  cpu time   50.2680: real time   51.1124
    SETDIJ:  cpu time    0.0400: real time    0.0417
     EDDAV:  cpu time   25.6960: real time   25.8597
 BZINTS: Fermi energy: -3.703383; 60.000000 electrons
         Band energy:-494.488185;  BLOECHL correction: -0.018157
       DOS:  cpu time    0.0040: real time    0.0071
    CHARGE:  cpu time    2.0520: real time    2.0672
    MIXING:  cpu time    0.0560: real time    0.0563
    --------------------------------------------
      LOOP:  cpu time   78.1160: real time   79.1444

 eigenvalue-minimisations  :  1120
 total energy-change (2. order) :-0.1494594E-02  (-0.6857042E-04)
 number of electron      60.0000005 magnetization       8.2784642
 augmentation part        1.1537376 magnetization       5.1384094

 Broyden mixing:
  rms(total) = 0.11006E-01    rms(broyden)= 0.11006E-01
  rms(prec ) = 0.11802E-01
  weight for this iteration     100.00

 eigenvalues of (default mixing * dielectric matrix)
  average eigenvalue GAMMA=   1.5252
 11.8424  2.9625  2.3296  1.2085  1.2085  0.4734  0.4734  0.0599  0.0599  0.0360
  0.9535  0.9535  0.7610  0.7610  0.6134  0.6134  0.6185

 Free energy of the ion-electron system (eV)
  ---------------------------------------------------
  alpha Z        PSCENC =        33.32341968
  Ewald energy   TEWEN  =      7005.02028753
  -Hartree energ DENC   =     -9622.52656539
  -exchange      EXHF   =         0.00000000
  -V(xc)+E(xc)   XCENC  =       -21.24501952
  PAW double counting   =      1630.85311201    -1523.33755670
  entropy T*S    EENTRO =         0.00000000
  eigenvalues    EBANDS =      -494.48818532
  atomic energy  EATOM  =      2950.97855467
  Solvation  Ediel_sol  =         0.00000000
  ---------------------------------------------------
  free energy    TOTEN  =       -41.42195304 eV

  energy without entropy =      -41.42195304  energy(sigma->0) =      -41.42195304


--------------------------------------------------------------------------------------------------------




--------------------------------------- Iteration      1(  23)  ---------------------------------------


    POTLOK:  cpu time   50.8320: real time   50.9941
    SETDIJ:  cpu time    0.0440: real time    0.0433
     EDDAV:  cpu time   24.5520: real time   24.6218
 BZINTS: Fermi energy: -3.707140; 60.000000 electrons
         Band energy:-494.717046;  BLOECHL correction: -0.018094
       DOS:  cpu time    0.0040: real time    0.0063
    CHARGE:  cpu time    2.0280: real time    2.0395
    MIXING:  cpu time    0.0600: real time    0.0577
    --------------------------------------------
      LOOP:  cpu time   77.5200: real time   77.7627

 eigenvalue-minimisations  :  1040
 total energy-change (2. order) :-0.6720155E-03  (-0.1905490E-04)
 number of electron      60.0000005 magnetization       8.2687309
 augmentation part        1.1513899 magnetization       5.1323381

 Broyden mixing:
  rms(total) = 0.97931E-02    rms(broyden)= 0.97930E-02
  rms(prec ) = 0.10441E-01
  weight for this iteration     100.00

 eigenvalues of (default mixing * dielectric matrix)
  average eigenvalue GAMMA=   1.5510
 11.9008  3.2775  2.5791  1.3968  1.3968  1.0706  1.0706  0.4734  0.4734  0.0599
  0.0599  0.0360  0.7950  0.7950  0.6093  0.6093  0.6568  0.6568

 Free energy of the ion-electron system (eV)
  ---------------------------------------------------
  alpha Z        PSCENC =        33.32341968
  Ewald energy   TEWEN  =      7005.02028753
  -Hartree energ DENC   =     -9622.29440765
  -exchange      EXHF   =         0.00000000
  -V(xc)+E(xc)   XCENC  =       -21.24749739
  PAW double counting   =      1631.01902093    -1523.50495713
  entropy T*S    EENTRO =         0.00000000
  eigenvalues    EBANDS =      -494.71704570
  atomic energy  EATOM  =      2950.97855467
  Solvation  Ediel_sol  =         0.00000000
  ---------------------------------------------------
  free energy    TOTEN  =       -41.42262506 eV

  energy without entropy =      -41.42262506  energy(sigma->0) =      -41.42262506


--------------------------------------------------------------------------------------------------------




--------------------------------------- Iteration      1(  24)  ---------------------------------------


    POTLOK:  cpu time   51.1040: real time   51.1560
    SETDIJ:  cpu time    0.0480: real time    0.0444
     EDDAV:  cpu time   24.7960: real time   24.9302
 BZINTS: Fermi energy: -3.710303; 60.000000 electrons
         Band energy:-494.926401;  BLOECHL correction: -0.018146
       DOS:  cpu time    0.0040: real time    0.0071
    CHARGE:  cpu time    2.0000: real time    1.9977
    MIXING:  cpu time    0.0640: real time    0.0641
    --------------------------------------------
      LOOP:  cpu time   78.0160: real time   78.1995

 eigenvalue-minimisations  :  1056
 total energy-change (2. order) :-0.7079500E-03  (-0.3378870E-04)
 number of electron      60.0000005 magnetization       8.2591286
 augmentation part        1.1443240 magnetization       5.1250094

 Broyden mixing:
  rms(total) = 0.36604E-02    rms(broyden)= 0.36600E-02
  rms(prec ) = 0.45347E-02
  weight for this iteration     100.00

 eigenvalues of (default mixing * dielectric matrix)
  average eigenvalue GAMMA=   1.5683
[...]
     34      -0.9964      0.00000
     35      -0.8088      0.00000
     36       0.1453      0.00000
     37       0.3977      0.00000
     38       1.2389      0.00000
     39       1.2712      0.00000
     40       1.9272      0.00000
     41       2.0606      0.00000
     42       2.3320      0.00000
     43       2.3577      0.00000
     44       2.5059      0.00000
     45       3.2111      0.00000
     46       3.5089      0.00000
     47       3.5639      0.00000
     48       3.7870      0.00000

 k-point     5 :      -0.4000    0.2000    0.0000
  band No.  band energies     occupation 
      1     -16.3105      1.00000
      2     -16.1771      1.00000
      3     -15.7657      1.00000
      4     -15.6589      1.00000
      5     -15.5301      1.00000
      6     -15.3630      1.00000
      7     -10.8106      1.00000
      8      -9.2214      1.00000
      9      -7.7566      1.00000
     10      -7.2630      1.00000
     11      -7.2185      1.00000
     12      -6.7497      1.00000
     13      -6.4243      1.00000
     14      -6.1369      1.00000
     15      -5.7950      1.00000
     16      -5.5101      1.00000
     17      -5.4519      1.00000
     18      -5.3342      1.00000
     19      -5.3021      1.00000
     20      -4.9329      1.00000
     21      -4.8935      1.00000
     22      -4.1202      1.00000
     23      -4.0331      1.00000
     24      -3.8754      1.00000
     25      -3.8138      1.00000
     26      -3.1234      1.00000
     27      -2.8130      1.00000
     28      -2.6960      1.00000
     29      -2.5068      1.00000
     30      -2.2428      0.00000
     31      -2.2133      0.00000
     32      -1.3825      0.00000
     33      -1.2683      0.00000
     34      -0.9698      0.00000
     35      -0.7285      0.00000
     36      -0.3726      0.00000
     37       0.3952      0.00000
     38       0.7974      0.00000
     39       1.1309      0.00000
     40       1.6837      0.00000
     41       1.8748      0.00000
     42       2.1284      0.00000
     43       2.7825      0.00000
     44       2.9486      0.00000
     45       3.0320      0.00000
     46       3.0376      0.00000
     47       3.4865      0.00000
     48       3.8413      0.00000


--------------------------------------------------------------------------------------------------------


 soft charge-density along one line, spin component           1
         0         1         2         3         4         5         6         7         8         9
 total charge-density along one line

 soft charge-density along one line, spin component           2
         0         1         2         3         4         5         6         7         8         9
 total charge-density along one line

 pseudopotential strength for first ion, spin component:           1
-10.347  -0.099  -0.000  -0.000  -0.000   0.721   0.029   0.000
 -0.099 -10.607   0.000   0.000  -0.000   0.029   0.798  -0.000
 -0.000   0.000 -11.083   0.000   0.000   0.000  -0.000   0.935
 -0.000   0.000   0.000 -10.607   0.099   0.000  -0.000  -0.000
 -0.000  -0.000   0.000   0.099 -10.347   0.000   0.000  -0.000
  0.721   0.029   0.000   0.000   0.000   0.528  -0.009  -0.000
  0.029   0.798  -0.000  -0.000   0.000  -0.009   0.505   0.000
  0.000  -0.000   0.935  -0.000  -0.000  -0.000   0.000   0.467
  0.000  -0.000  -0.000   0.798  -0.029  -0.000   0.000   0.000
  0.000   0.000  -0.000  -0.029   0.721  -0.000  -0.000   0.000
 -0.000  -0.000   0.085  -0.000   0.000  -0.000  -0.000  -0.021
  0.000   0.000  -0.009   0.000  -0.000  -0.000  -0.000   0.002
 -0.000  -0.000   0.000  -0.000  -0.000   0.000   0.000  -0.000
 -0.000  -0.000   0.000  -0.000   0.000  -0.000   0.000  -0.000
 -0.000  -0.000   0.000  -0.000   0.000   0.000  -0.000  -0.000
  0.000   0.000  -0.000   0.000  -0.001  -0.000  -0.000   0.000
  0.000   0.000  -0.000   0.000  -0.000  -0.000  -0.000   0.000
 -0.001   0.000  -0.000   0.000  -0.000  -0.000  -0.000   0.000
 pseudopotential strength for first ion, spin component:           2
 -9.725  -0.042  -0.000   0.000  -0.000   0.535   0.013   0.000
 -0.042 -10.065   0.000   0.000   0.000   0.013   0.631  -0.000
 -0.000   0.000  -9.697   0.000   0.000   0.000  -0.000   0.530
  0.000   0.000   0.000 -10.065   0.042  -0.000  -0.000  -0.000
 -0.000   0.000   0.000   0.042  -9.725   0.000  -0.000  -0.000
  0.535   0.013   0.000  -0.000   0.000   0.583  -0.005  -0.000
  0.013   0.631  -0.000  -0.000  -0.000  -0.005   0.557   0.000
  0.000  -0.000   0.530  -0.000  -0.000  -0.000   0.000   0.583
 -0.000  -0.000  -0.000   0.631  -0.013   0.000   0.000   0.000
  0.000  -0.000  -0.000  -0.013   0.535  -0.000   0.000   0.000
 -0.000  -0.000   0.012  -0.000   0.000  -0.000  -0.000  -0.007
  0.000   0.000  -0.003   0.000  -0.000  -0.000  -0.000   0.001
 -0.000  -0.000   0.000  -0.000   0.002  -0.000   0.000  -0.000
 -0.000  -0.000  -0.000  -0.000  -0.000  -0.000   0.000   0.000
  0.002  -0.000   0.000  -0.000  -0.000  -0.000  -0.000  -0.000
  0.000   0.000  -0.000   0.000  -0.001  -0.000  -0.000   0.000
  0.000   0.000   0.000   0.000   0.000  -0.000  -0.000  -0.000
 -0.001   0.000  -0.000   0.000  -0.000   0.000  -0.000   0.000
 total augmentation occupancy for first ion, spin component:           1
  1.530  -0.376   0.000   0.000  -0.000   0.097   0.215   0.000  -0.000  -0.000   0.000   0.000  -0.000   0.000   0.000   0.000
 -0.376   1.385  -0.000  -0.000   0.000   0.168   0.213   0.000  -0.000  -0.000  -0.000  -0.000  -0.000   0.000   0.010   0.000
  0.000  -0.000   1.175  -0.000  -0.000   0.000   0.000  -0.063   0.000  -0.000   0.035   0.050  -0.000   0.000   0.000  -0.000
  0.000  -0.000  -0.000   1.385   0.376  -0.000   0.000   0.000   0.213  -0.168   0.000   0.000  -0.010   0.000  -0.000   0.000
 -0.000   0.000  -0.000   0.376   1.530   0.000  -0.000  -0.000  -0.215   0.097  -0.000  -0.000   0.000  -0.000   0.000   0.000
  0.097   0.168   0.000  -0.000   0.000   0.110   0.055   0.000  -0.000  -0.000   0.000  -0.000  -0.000   0.000   0.017   0.000
  0.215   0.213   0.000   0.000  -0.000   0.055   0.176   0.000  -0.000  -0.000  -0.000   0.000  -0.000   0.000  -0.005   0.000
  0.000   0.000  -0.063   0.000  -0.000   0.000   0.000   0.113   0.000  -0.000   0.046  -0.023  -0.000   0.000   0.000   0.000
 -0.000  -0.000   0.000   0.213  -0.215  -0.000  -0.000   0.000   0.176  -0.055   0.000   0.000   0.005  -0.000  -0.000  -0.000
 -0.000  -0.000  -0.000  -0.168   0.097  -0.000  -0.000  -0.000  -0.055   0.110  -0.000   0.000   0.017  -0.000   0.000  -0.002
  0.000  -0.000   0.035  -0.000  -0.000   0.000   0.000   0.046   0.000  -0.000   1.058  -0.252   0.000  -0.000   0.000   0.000
  0.000  -0.000   0.050  -0.000  -0.000  -0.000   0.000  -0.023   0.000   0.000  -0.252   0.115   0.000  -0.000   0.000   0.000
 -0.000  -0.000  -0.000  -0.010   0.000  -0.000  -0.000  -0.000   0.005   0.017   0.000  -0.000   0.180  -0.000  -0.000  -0.011
  0.000  -0.000   0.000   0.000  -0.000   0.000   0.000   0.000   0.000  -0.000  -0.000  -0.000  -0.000   0.193  -0.000   0.000
  0.000   0.010   0.000  -0.000   0.000   0.017  -0.005   0.000  -0.000   0.000   0.000   0.000  -0.000  -0.000   0.180   0.000
  0.000   0.000  -0.000   0.000   0.000   0.000   0.000   0.000  -0.000  -0.002   0.000  -0.000  -0.011   0.000   0.000   0.001
 -0.000  -0.000  -0.000   0.000   0.000  -0.000  -0.000  -0.000   0.000   0.000   0.000   0.000   0.000  -0.012   0.000  -0.000
  0.000  -0.000   0.000   0.000  -0.000  -0.002   0.000  -0.000   0.000  -0.000   0.000  -0.000  -0.000   0.000  -0.011  -0.000
 total augmentation occupancy for first ion, spin component:           2
  0.121   0.038   0.000   0.000  -0.000  -0.056   0.000  -0.000  -0.000   0.000  -0.000   0.000   0.000  -0.000   0.007  -0.000
  0.038   0.052   0.000  -0.000   0.000   0.014  -0.040   0.000   0.000  -0.000   0.000  -0.000   0.000   0.000  -0.004   0.000
  0.000   0.000   0.760   0.000  -0.000  -0.000   0.000  -0.193   0.000   0.000  -0.031   0.055  -0.000  -0.000   0.000  -0.000
  0.000  -0.000   0.000   0.052  -0.038  -0.000  -0.000   0.000  -0.040  -0.014   0.000  -0.000   0.004   0.000   0.000  -0.000
 -0.000   0.000  -0.000  -0.038   0.121  -0.000  -0.000   0.000  -0.000  -0.056   0.000  -0.000   0.007   0.000  -0.000   0.000
 -0.056   0.014  -0.000  -0.000  -0.000  -0.007  -0.017   0.000   0.000  -0.000   0.000  -0.000   0.000   0.000  -0.001  -0.000
  0.000  -0.040   0.000  -0.000  -0.000  -0.017  -0.020  -0.000   0.000   0.000   0.000   0.000   0.000   0.000   0.001  -0.000
 -0.000   0.000  -0.193   0.000   0.000   0.000  -0.000   0.037  -0.000  -0.000   0.012  -0.009   0.000   0.000  -0.000  -0.000
 -0.000   0.000   0.000  -0.040  -0.000   0.000   0.000  -0.000  -0.020   0.017  -0.000   0.000  -0.001  -0.000   0.000   0.000
  0.000  -0.000   0.000  -0.014  -0.056  -0.000   0.000  -0.000   0.017  -0.007  -0.000   0.000  -0.001  -0.000  -0.000   0.000
 -0.000   0.000  -0.031   0.000   0.000   0.000   0.000   0.012  -0.000  -0.000   0.052   0.031   0.000   0.000   0.000   0.000
  0.000  -0.000   0.055  -0.000  -0.000  -0.000   0.000  -0.009   0.000   0.000   0.031  -0.013  -0.000  -0.000   0.000   0.000
  0.000   0.000  -0.000   0.004   0.007   0.000   0.000   0.000  -0.001  -0.001   0.000   0.000   0.007  -0.000  -0.000   0.001
 -0.000   0.000  -0.000   0.000   0.000   0.000   0.000   0.000  -0.000  -0.000   0.000  -0.000   0.000   0.006   0.000  -0.000
  0.007  -0.004   0.000   0.000  -0.000  -0.001   0.001  -0.000   0.000  -0.000   0.000   0.000  -0.000   0.000   0.007  -0.000
 -0.000   0.000  -0.000  -0.000   0.000  -0.000  -0.000  -0.000   0.000   0.000   0.000  -0.000   0.001  -0.000  -0.000  -0.000
  0.000   0.000   0.000  -0.000  -0.000  -0.000  -0.000  -0.000  -0.000   0.000  -0.000   0.000  -0.000   0.001   0.000   0.000
  0.000   0.000   0.000   0.000   0.000   0.000  -0.000   0.000  -0.000   0.000   0.000   0.000   0.000  -0.000   0.001   0.000


------------------------ aborting loop because EDIFF is reached ----------------------------------------





 total charge     

# of ion       s       p       d       tot
------------------------------------------
    1        0.361   0.448   6.319   7.128
    2        0.361   0.448   6.319   7.128
    3        0.765   0.870   0.000   1.635
    4        0.765   0.870   0.000   1.635
    5        1.481   2.306   0.050   3.836
    6        1.476   2.325   0.050   3.851
    7        1.480   2.310   0.050   3.840
    8        1.481   2.306   0.050   3.836
    9        1.476   2.325   0.050   3.851
   10        1.480   2.310   0.050   3.840
--------------------------------------------------
tot         11.127  16.518  12.935  40.579



 magnetization (x)

# of ion       s       p       d       tot
------------------------------------------
    1        0.011   0.013   1.100   1.124
    2        0.011   0.013   1.100   1.124
    3       -0.003   0.003   0.000   0.000
    4       -0.003   0.003   0.000   0.000
    5       -0.001  -0.043  -0.000  -0.044
    6       -0.001  -0.020  -0.001  -0.022
    7       -0.001  -0.037  -0.001  -0.039
    8       -0.001  -0.043  -0.000  -0.044
    9       -0.001  -0.020  -0.001  -0.022
   10       -0.001  -0.037  -0.001  -0.039
--------------------------------------------------
tot          0.009  -0.168   2.197   2.038

    CHARGE:  cpu time    1.9720: real time    1.9808
    FORLOC:  cpu time    0.0880: real time    0.0890
    FORNL :  cpu time    6.7680: real time    6.8091
    STRESS:  cpu time   20.1960: real time   20.4245
    FORCOR:  cpu time   51.8480: real time   52.2352
    FORHAR:  cpu time    0.3600: real time    0.3595
    MIXING:  cpu time    0.0440: real time    0.0439
    OFIELD:  cpu time    0.0000: real time    0.0001

  FORCE on cell =-STRESS in cart. coord.  units (eV):
  Direction    XX          YY          ZZ          XY          YZ          ZX
  --------------------------------------------------------------------------------------
  Alpha Z    45.20958    45.20958    45.20958
  Ewald   10242.85160 10242.84918-12113.08272    -0.00177    -0.00052    -0.00094
  Hartree 10727.09353 10727.09426-10403.04183    -0.00023     0.00007     0.00011
  E(xc)    -241.60365  -241.60366  -240.48357     0.00003     0.00001     0.00001
  Local  -21708.47361-21708.47323 21756.20047     0.00158     0.00027     0.00050
  n-local   269.80130   269.47342   278.41392    -0.10639     0.46064     0.40948
  augment    42.54894    42.54899    32.69934     0.00006     0.00002     0.00004
  Kinetic   624.24829   621.09878   644.18300    -2.28010     1.25268     1.49303
  Fock        0.00000     0.00000     0.00000     0.00000     0.00000     0.00000
  -------------------------------------------------------------------------------------
  Total      -0.06336    -0.06336     0.09818     0.00000    -0.00000     0.00000
  in kB      -0.14215    -0.14215     0.22027     0.00000    -0.00000     0.00000
  external pressure =       -0.02 kB  Pullay stress =        0.00 kB


 VOLUME and BASIS-vectors are now :
 -----------------------------------------------------------------------------
  energy-cutoff  :      520.00
  volume of cell :      714.12
      direct lattice vectors                 reciprocal lattice vectors
     6.181741993  0.000000010 -0.000000000     0.161766700 -0.093396041  0.000000000
     3.090870649  5.353545363 -0.000000000    -0.000000000  0.186792104  0.000000000
    -0.000000000 -0.000000000 21.578268010     0.000000000  0.000000000  0.046342922

  length of vectors
     6.181741993  6.181741609 21.578268010     0.186792092  0.186792104  0.046342922


 FORCES acting on ions
    electron-ion (+dipol)            ewald-force                    non-local-force                 convergence-correction
 -----------------------------------------------------------------------------------------------
   -.868E-04 -.526E-04 0.593E+00   0.592E-03 0.353E-03 -.597E+00   -.174E-17 0.347E-17 0.762E-02   -.216E-06 -.163E-06 -.326E-04
   0.868E-04 0.526E-04 -.593E+00   -.592E-03 -.353E-03 0.597E+00   0.165E-20 -.347E-17 -.762E-02   0.216E-06 0.163E-06 0.326E-04
   -.254E-04 -.443E-04 0.231E+03   -.185E-03 -.103E-03 -.224E+03   -.262E-16 0.227E-16 -.704E+01   -.743E-07 -.302E-07 -.247E-01
   0.254E-04 0.443E-04 -.231E+03   0.185E-03 0.103E-03 0.224E+03   -.153E-17 -.158E-16 0.704E+01   0.743E-07 0.302E-07 0.247E-01
   -.199E+02 -.137E-01 -.479E+03   0.177E+02 0.149E-01 0.481E+03   0.222E+01 -.410E-02 -.247E+01   0.119E-01 0.126E-03 0.578E-01
   0.992E+01 0.172E+02 -.479E+03   -.882E+01 -.153E+02 0.481E+03   -.111E+01 -.192E+01 -.247E+01   -.583E-02 -.103E-01 0.578E-01
   0.995E+01 -.172E+02 -.479E+03   -.884E+01 0.153E+02 0.481E+03   -.111E+01 0.193E+01 -.247E+01   -.605E-02 0.102E-01 0.578E-01
   0.199E+02 0.137E-01 0.479E+03   -.177E+02 -.149E-01 -.481E+03   -.222E+01 0.410E-02 0.247E+01   -.119E-01 -.126E-03 -.578E-01
   -.992E+01 -.172E+02 0.479E+03   0.882E+01 0.153E+02 -.481E+03   0.111E+01 0.192E+01 0.247E+01   0.583E-02 0.103E-01 -.578E-01
   -.995E+01 0.172E+02 0.479E+03   0.884E+01 -.153E+02 -.481E+03   0.111E+01 -.193E+01 0.247E+01   0.605E-02 -.102E-01 -.578E-01
 -----------------------------------------------------------------------------------------------
   -.711E-10 -.350E-10 0.395E-09   0.142E-13 -.355E-14 0.568E-13   0.222E-15 0.000E+00 -.444E-15   -.810E-13 0.578E-12 0.301E-10


 POSITION                                       TOTAL-FORCE (eV/Angst)
 -----------------------------------------------------------------------------------
      3.09087      1.78451     10.78785        -0.000000     -0.000000      0.003894
      6.18174      3.56903     10.79042         0.000000     -0.000000     -0.003894
     -0.00000     -0.00000      9.66108        -0.000000     -0.000000      0.028993
     -0.00000     -0.00000     11.91719         0.000000     -0.000000     -0.028993
      3.88073      0.00078     12.30387         0.024487     -0.002169     -0.004968
      1.15118      1.99235     12.30387        -0.014122     -0.020122     -0.004968
      4.24071      3.36042     12.30387        -0.010365      0.022291     -0.004968
      5.39188      5.35277      9.27440        -0.024487      0.002169      0.004968
      8.12143      3.36119      9.27440         0.014122      0.020122      0.004968
      5.03190      1.99312      9.27440         0.010365     -0.022291      0.004968
 -----------------------------------------------------------------------------------
    total drift:                               -0.000000     -0.000000      0.000000


--------------------------------------------------------------------------------------------------------



  FREE ENERGIE OF THE ION-ELECTRON SYSTEM (eV)
  ---------------------------------------------------
  free  energy   TOTEN  =       -45.21891635 eV

  energy  without entropy=      -45.21891635  energy(sigma->0) =      -45.21891635

 d Force = 0.1056003E-02[ 0.369E-03, 0.174E-02]  d Energy = 0.1158980E-02-0.103E-03
 d Force = 0.7336450E+01[ 0.733E+01, 0.734E+01]  d Ewald  =-0.5665456E+01 0.130E+02


--------------------------------------------------------------------------------------------------------


    POTLOK:  cpu time   51.6160: real time   51.8598


--------------------------------------------------------------------------------------------------------




--------------------------------------------------------------------------------------------------------


  
 reached required accuracy - stopping structural energy minimisation
     LOOP+:  cpu time  532.8760: real time  537.9952
    4ORBIT:  cpu time    0.0000: real time    0.0000



 total charge     

# of ion       s       p       d       tot
------------------------------------------
    1        0.361   0.448   6.319   7.128
    2        0.361   0.448   6.319   7.128
    3        0.765   0.870   0.000   1.635
    4        0.765   0.870   0.000   1.635
    5        1.481   2.306   0.050   3.836
    6        1.476   2.325   0.050   3.851
    7        1.480   2.310   0.050   3.840
    8        1.481   2.306   0.050   3.836
    9        1.476   2.325   0.050   3.851
   10        1.480   2.310   0.050   3.840
--------------------------------------------------
tot         11.127  16.518  12.935  40.579



 magnetization (x)

# of ion       s       p       d       tot
------------------------------------------
    1        0.011   0.013   1.100   1.124
    2        0.011   0.013   1.100   1.124
    3       -0.003   0.003   0.000   0.000
    4       -0.003   0.003   0.000   0.000
    5       -0.001  -0.043  -0.000  -0.044
    6       -0.001  -0.020  -0.001  -0.022
    7       -0.001  -0.037  -0.001  -0.039
    8       -0.001  -0.043  -0.000  -0.044
    9       -0.001  -0.020  -0.001  -0.022
   10       -0.001  -0.037  -0.001  -0.039
--------------------------------------------------
tot          0.009  -0.168   2.197   2.038

 BZINTS: Fermi energy: -2.462158; 60.000000 electrons
         Band energy:-453.340927;  BLOECHL correction:  0.000000

 total amount of memory used by VASP MPI-rank0   130089. kBytes
=======================================================================

   base      :      30000. kBytes
   nonlr-proj:       9779. kBytes
   fftplans  :      11247. kBytes
   grid      :      66142. kBytes
   one-center:        311. kBytes
   wavefun   :      12610. kBytes

  
  
 General timing and accounting informations for this job:
 ========================================================
  
                  Total CPU time used (sec):    16555.008
                            User time (sec):    16161.124
                          System time (sec):      393.884
                         Elapsed time (sec):    16666.033
  
                   Maximum memory used (kb):      385892.
                   Average memory used (kb):           0.
  
                          Minor page faults:     14199576
                          Major page faults:            8
                 Voluntary context switches:         1085
