       N       E                     dE             d eps       ncg     rms          rms(c)
DAV:   1     0.414637798715E+03    0.41464E+03   -0.19733E+04   960   0.951E+02
DAV:   2     0.290600673035E+02   -0.38558E+03   -0.35941E+03  1376   0.189E+02
DAV:   3    -0.397654608902E+02   -0.68826E+02   -0.65499E+02  1264   0.771E+01
DAV:   4    -0.423343215701E+02   -0.25689E+01   -0.25502E+01  1168   0.190E+01
DAV:   5    -0.423970548203E+02   -0.62733E-01   -0.62687E-01  1248   0.294E+00    0.385E+01
DAV:   6    -0.118166291333E+03   -0.75769E+02   -0.10185E+03  1248   0.272E+02    0.666E+01
DAV:   7    -0.636826304995E+02    0.54484E+02   -0.75457E+01  1056   0.503E+01    0.406E+01
DAV:   8    -0.313419492109E+02    0.32341E+02   -0.62980E+01  1248   0.918E+01    0.147E+01
DAV:   9    -0.314603454024E+02   -0.11840E+00   -0.74968E+00  1424   0.174E+01    0.833E+00
DAV:  10    -0.331056635790E+02   -0.16453E+01   -0.72799E+00  1152   0.275E+01    0.167E+01
DAV:  11    -0.325591422620E+02    0.54652E+00   -0.99927E-01  1344   0.158E+01    0.970E+00
DAV:  12    -0.344547921612E+02   -0.18956E+01   -0.14805E+00  1216   0.186E+01    0.142E+01
DAV:  13    -0.335926306322E+02    0.86216E+00   -0.80471E-01  1136   0.173E+01    0.101E+01
DAV:  14    -0.333495698755E+02    0.24306E+00   -0.15764E+00  1248   0.207E+01    0.511E+00
DAV:  15    -0.336363235889E+02   -0.28675E+00   -0.67782E-01  1456   0.798E+00    0.272E+00
DAV:  16    -0.339855051389E+02   -0.34918E+00   -0.44392E-01  1248   0.854E+00    0.367E+00
DAV:  17    -0.340422448273E+02   -0.56740E-01   -0.35026E-01  1120   0.806E+00    0.850E-01
DAV:  18    -0.340648685960E+02   -0.22624E-01   -0.53069E-02  1136   0.116E+00    0.816E-01
DAV:  19    -0.340648069490E+02    0.61647E-04   -0.11022E-02  1008   0.969E-01    0.673E-01
DAV:  20    -0.340641843946E+02    0.62255E-03   -0.86338E-03  1184   0.101E+00    0.226E-01
DAV:  21    -0.340661057496E+02   -0.19214E-02   -0.22684E-03  1248   0.269E-01    0.916E-02
DAV:  22    -0.340677944861E+02   -0.16887E-02   -0.64300E-04  1072   0.234E-01    0.109E-01
DAV:  23    -0.340684519150E+02   -0.65743E-03   -0.36019E-04  1008   0.803E-02    0.932E-02
DAV:  24    -0.340688179359E+02   -0.36602E-03   -0.22823E-04   880   0.131E-01    0.287E-02
DAV:  25    -0.340692948849E+02   -0.47695E-03   -0.15299E-04   880   0.559E-02    0.131E-02
DAV:  26    -0.340699724618E+02   -0.67758E-03   -0.17527E-04   944   0.462E-02    0.172E-02
DAV:  27    -0.340701967724E+02   -0.22431E-03   -0.98755E-05   864   0.766E-02    0.341E-02
DAV:  28    -0.340703769277E+02   -0.18016E-03   -0.11151E-04   832   0.387E-02    0.411E-02
DAV:  29    -0.340705617151E+02   -0.18479E-03   -0.12505E-04   816   0.761E-02    0.128E-02
DAV:  30    -0.340704603064E+02    0.10141E-03   -0.11113E-04   816   0.398E-02    0.127E-02
DAV:  31    -0.340703949774E+02    0.65329E-04   -0.73775E-05   800   0.303E-02
   1 F= -.34070395E+02 E0= -.34070395E+02  d E =-.340704E+02  mag=     1.9963
       N       E                     dE             d eps       ncg     rms          rms(c)
DAV:   1    -0.111896785063E+03   -0.77826E+02   -0.74002E+02  1312   0.238E+02    0.978E+01
DAV:   2    -0.334516626723E+03   -0.22262E+03   -0.18064E+03  1504   0.390E+02    0.638E+01
DAV:   3    -0.808810301244E+02    0.25364E+03   -0.58496E+02  1184   0.124E+02    0.381E+01
DAV:   4    -0.400919602086E+02    0.40789E+02   -0.34430E+02  1344   0.200E+02    0.244E+01
DAV:   5    -0.384046613732E+02    0.16873E+01   -0.38367E+01  1264   0.316E+01    0.107E+01
DAV:   6    -0.378829849361E+02    0.52168E+00   -0.70816E+00  1184   0.342E+01    0.773E+00
DAV:   7    -0.377246365560E+02    0.15835E+00   -0.15269E+00  1504   0.198E+01    0.583E+00
DAV:   8    -0.374818934441E+02    0.24274E+00   -0.10341E+00  1360   0.189E+01    0.297E+00
DAV:   9    -0.373852376563E+02    0.96656E-01   -0.32517E-01  1184   0.769E+00    0.170E+00
DAV:  10    -0.374812536025E+02   -0.96016E-01   -0.65093E-02  1344   0.368E+00    0.171E+00
DAV:  11    -0.374703301775E+02    0.10923E-01   -0.78062E-02  1216   0.482E+00    0.784E-01
DAV:  12    -0.374742797828E+02   -0.39496E-02   -0.22348E-02  1376   0.146E+00    0.110E+00
DAV:  13    -0.374740829588E+02    0.19682E-03   -0.18954E-03  1232   0.446E-01    0.104E+00
DAV:  14    -0.374697049617E+02    0.43780E-02   -0.12350E-03  1136   0.510E-01    0.871E-01
DAV:  15    -0.374706969857E+02   -0.99202E-03   -0.24909E-04   832   0.146E-01    0.877E-01
DAV:  16    -0.374719480004E+02   -0.12510E-02   -0.39653E-03  1024   0.104E+00    0.610E-01
DAV:  17    -0.374729212221E+02   -0.97322E-03   -0.14878E-03  1312   0.418E-01    0.630E-01
DAV:  18    -0.374735471838E+02   -0.62596E-03   -0.43956E-04  1024   0.347E-01    0.644E-01
DAV:  19    -0.374736701018E+02   -0.12292E-03   -0.29451E-04  1152   0.172E-01    0.694E-01
DAV:  20    -0.374728954485E+02    0.77465E-03   -0.30469E-03  1072   0.808E-01    0.566E-01
DAV:  21    -0.374714719490E+02    0.14235E-02   -0.12147E-02  1248   0.134E+00    0.524E-01
DAV:  22    -0.374700825054E+02    0.13894E-02   -0.75876E-03  1184   0.113E+00    0.156E-01
DAV:  23    -0.374728681830E+02   -0.27857E-02   -0.50922E-03  1232   0.111E+00    0.409E-01
DAV:  24    -0.374728587385E+02    0.94444E-05   -0.58052E-03  1472   0.826E-01    0.327E-01
DAV:  25    -0.374715710198E+02    0.12877E-02   -0.22074E-03  1216   0.691E-01    0.317E-01
DAV:  26    -0.374694108962E+02    0.21601E-02   -0.76720E-03  1280   0.946E-01    0.133E-01
DAV:  27    -0.374707838367E+02   -0.13729E-02   -0.10920E-03   960   0.357E-01    0.281E-01
DAV:  28    -0.374720038467E+02   -0.12200E-02   -0.87706E-04  1024   0.358E-01    0.220E-01
DAV:  29    -0.374727330897E+02   -0.72924E-03   -0.85600E-04  1168   0.270E-01    0.113E-01
DAV:  30    -0.374729782400E+02   -0.24515E-03   -0.19782E-04   928   0.140E-01    0.891E-02
DAV:  31    -0.374730544458E+02   -0.76206E-04   -0.10883E-04   880   0.903E-02
   2 F= -.37473054E+02 E0= -.37473054E+02  d E =-.340266E+01  mag=     0.9996
       N       E                     dE             d eps       ncg     rms          rms(c)
DAV:   1    -0.384654972014E+02   -0.99252E+00   -0.10538E+01  1216   0.317E+01    0.923E+00
DAV:   2    -0.433481867077E+02   -0.48827E+01   -0.19717E+01  1184   0.797E+01    0.234E+01
DAV:   3    -0.451486033294E+03   -0.40814E+03   -0.41324E+03  1552   0.433E+01    0.344E+01
DAV:   4    -0.124455459385E+03    0.32703E+03   -0.28438E+03  1312   0.375E+01    0.175E+01
DAV:   5    -0.372967520719E+02    0.87159E+02   -0.72551E+02  1072   0.287E+01    0.723E+00
DAV:   6    -0.376559435808E+02   -0.35919E+00   -0.25301E+00  1104   0.143E+01    0.440E+00
DAV:   7    -0.375283918790E+02    0.12755E+00   -0.33616E-01  1152   0.882E+00    0.199E+00
DAV:   8    -0.375050684114E+02    0.23323E-01   -0.65522E-02  1376   0.274E+00    0.933E-01
DAV:   9    -0.375009393944E+02    0.41290E-02   -0.85397E-03  1136   0.100E+00    0.900E-01
DAV:  10    -0.374997521249E+02    0.11873E-02   -0.25992E-03  1136   0.572E-01    0.993E-01
DAV:  11    -0.373933835675E+02    0.10637E+00   -0.16705E-01  1104   0.545E+00    0.778E-01
DAV:  12    -0.375074486252E+02   -0.11407E+00   -0.11399E-02  1280   0.175E+00    0.621E-01
DAV:  13    -0.374991772549E+02    0.82714E-02   -0.75101E-03  1168   0.140E+00    0.433E-01
DAV:  14    -0.374977243532E+02    0.14529E-02   -0.38718E-03  1232   0.552E-01    0.454E-01
DAV:  15    -0.375038562599E+02   -0.61319E-02   -0.89252E-04  1104   0.393E-01    0.488E-01
DAV:  16    -0.375084642534E+02   -0.46080E-02   -0.93076E-04  1040   0.313E-01    0.447E-01
DAV:  17    -0.375136973470E+02   -0.52331E-02   -0.10907E-03  1184   0.358E-01    0.345E-01
DAV:  18    -0.375160518844E+02   -0.23545E-02   -0.57000E-04  1184   0.218E-01    0.281E-01
DAV:  19    -0.375178802235E+02   -0.18283E-02   -0.17934E-03   992   0.256E-01    0.247E-01
DAV:  20    -0.375185190219E+02   -0.63880E-03   -0.22756E-03   896   0.262E-01    0.233E-01
DAV:  21    -0.375191073427E+02   -0.58832E-03   -0.19308E-04   912   0.983E-02    0.215E-01
DAV:  22    -0.375192344410E+02   -0.12710E-03   -0.50716E-05   848   0.402E-02    0.215E-01
DAV:  23    -0.375203592033E+02   -0.11248E-02   -0.10132E-04   832   0.845E-02    0.197E-01
DAV:  24    -0.375225972701E+02   -0.22381E-02   -0.35029E-04   976   0.143E-01    0.173E-01
DAV:  25    -0.375224883609E+02    0.10891E-03   -0.28159E-04  1024   0.108E-01    0.169E-01
DAV:  26    -0.375225496741E+02   -0.61313E-04   -0.19802E-04  1008   0.805E-02
   3 F= -.37522550E+02 E0= -.37522550E+02  d E =-.345215E+01  mag=     0.1107
       N       E                     dE             d eps       ncg     rms          rms(c)
DAV:   1    -0.376383621381E+02   -0.11587E+00   -0.49328E+00   992   0.913E+00    0.162E+00
DAV:   2    -0.378551121475E+02   -0.21675E+00   -0.69316E-01  1232   0.128E+01    0.362E+00
DAV:   3    -0.376397132514E+02    0.21540E+00   -0.30371E-01  1184   0.115E+01    0.662E-01
DAV:   4    -0.376449819436E+02   -0.52687E-02   -0.46218E-02  1392   0.233E+00    0.887E-01
DAV:   5    -0.376382400613E+02    0.67419E-02   -0.64065E-03  1232   0.231E+00    0.387E-01
DAV:   6    -0.376387849848E+02   -0.54492E-03   -0.30225E-03  1120   0.860E-01    0.710E-02
DAV:   7    -0.376387236217E+02    0.61363E-04   -0.89663E-04  1024   0.202E-01
   4 F= -.37638724E+02 E0= -.37638724E+02  d E =-.116174E+00  mag=     0.1091
       N       E                     dE             d eps       ncg     rms          rms(c)
DAV:   1    -0.376730788610E+02   -0.34294E-01   -0.14811E+00   976   0.501E+00    0.902E-01
DAV:   2    -0.377161047852E+02   -0.43026E-01   -0.21445E-01  1120   0.729E+00    0.201E+00
DAV:   3    -0.376723806999E+02    0.43724E-01   -0.95019E-02   960   0.633E+00    0.354E-01
DAV:   4    -0.376713930571E+02    0.98764E-03   -0.11846E-02  1216   0.865E-01    0.308E-01
DAV:   5    -0.376718763205E+02   -0.48326E-03   -0.19359E-03  1056   0.106E+00    0.263E-01
DAV:   6    -0.376711127866E+02    0.76353E-03   -0.70631E-04   976   0.581E-01    0.281E-02
DAV:   7    -0.376712790120E+02   -0.16623E-03   -0.19724E-04   832   0.879E-02    0.174E-02
DAV:   8    -0.376713957752E+02   -0.11676E-03   -0.70382E-05   864   0.525E-02    0.852E-03
DAV:   9    -0.376716028775E+02   -0.20710E-03   -0.90937E-05   880   0.390E-02    0.612E-03
DAV:  10    -0.376718501381E+02   -0.24726E-03   -0.12663E-04   912   0.387E-02    0.644E-03
DAV:  11    -0.376720929157E+02   -0.24278E-03   -0.14265E-04   928   0.389E-02    0.455E-03
DAV:  12    -0.376722490722E+02   -0.15616E-03   -0.11807E-04   864   0.308E-02    0.368E-03
DAV:  13    -0.376722993976E+02   -0.50325E-04   -0.60815E-05   816   0.262E-02
   5 F= -.37672299E+02 E0= -.37672299E+02  d E =-.149750E+00  mag=     0.1059
       N       E                     dE             d eps       ncg     rms          rms(c)
DAV:   1    -0.376929581856E+02   -0.20709E-01   -0.59161E+00  1024   0.999E+00    0.179E+00
DAV:   2    -0.378659494822E+02   -0.17299E+00   -0.84996E-01  1200   0.144E+01    0.390E+00
DAV:   3    -0.377876066811E+02    0.78343E-01   -0.37916E-01  1104   0.127E+01    0.587E-01
DAV:   4    -0.377128210746E+02    0.74786E-01   -0.49444E-02  1536   0.175E+00    0.751E-01
DAV:   5    -0.377477532578E+02   -0.34932E-01   -0.91799E-03  1264   0.211E+00    0.500E-01
DAV:   6    -0.376900113939E+02    0.57742E-01   -0.45995E-03  1216   0.125E+00    0.783E-02
DAV:   7    -0.376888494388E+02    0.11620E-02   -0.16836E-03  1184   0.190E-01    0.431E-02
DAV:   8    -0.376889442214E+02   -0.94783E-04   -0.17954E-04   992   0.912E-02
   6 F= -.37688944E+02 E0= -.37688944E+02  d E =-.166395E+00  mag=     0.0546
       N       E                     dE             d eps       ncg     rms          rms(c)
DAV:   1    -0.376940044208E+02   -0.51550E-02   -0.64029E-01  1088   0.331E+00    0.382E-01
DAV:   2    -0.377012314459E+02   -0.72270E-02   -0.42425E-02  1200   0.272E+00    0.721E-01
DAV:   3    -0.376947982717E+02    0.64332E-02   -0.14507E-02   992   0.242E+00    0.242E-01
DAV:   4    -0.376956237748E+02   -0.82550E-03   -0.35141E-03  1328   0.112E+00    0.395E-01
DAV:   5    -0.376943771277E+02    0.12466E-02   -0.18104E-03  1024   0.973E-01    0.949E-02
DAV:   6    -0.376944276724E+02   -0.50545E-04   -0.37795E-04   912   0.219E-01
   7 F= -.37694428E+02 E0= -.37694428E+02  d E =-.548345E-02  mag=     0.0333
       N       E                     dE             d eps       ncg     rms          rms(c)
DAV:   1    -0.376945258822E+02   -0.14875E-03   -0.22345E-02   976   0.617E-01    0.688E-02
DAV:   2    -0.376946094213E+02   -0.83539E-04   -0.13516E-03  1120   0.445E-01    0.120E-01
DAV:   3    -0.376945529208E+02    0.56501E-04   -0.44041E-04   928   0.414E-01
   8 F= -.37694553E+02 E0= -.37694553E+02  d E =-.560870E-02  mag=     0.0281
       N       E                     dE             d eps       ncg     rms          rms(c)
DAV:   1    -0.377438935032E+02   -0.49284E-01   -0.70290E-01  1248   0.759E+00    0.215E+00
DAV:   2    -0.379952140408E+02   -0.25132E+00   -0.94732E-01  1104   0.190E+01    0.523E+00
DAV:   3    -0.377037960896E+02    0.29142E+00   -0.49705E-01  1040   0.143E+01    0.904E-01
DAV:   4    -0.377065780385E+02   -0.27819E-02   -0.58278E-02  1312   0.359E+00    0.126E+00
DAV:   5    -0.376942646010E+02    0.12313E-01   -0.17960E-02  1104   0.274E+00    0.222E-01
DAV:   6    -0.376936382833E+02    0.62632E-03   -0.24582E-03  1136   0.503E-01    0.703E-02
DAV:   7    -0.376934937626E+02    0.14452E-03   -0.35303E-04  1136   0.167E-01    0.369E-02
DAV:   8    -0.376933990969E+02    0.94666E-04   -0.65712E-05   704   0.882E-02
   9 F= -.37693399E+02 E0= -.37693399E+02  d E =0.115382E-02  mag=     0.0090
       N       E                     dE             d eps       ncg     rms          rms(c)
DAV:   1    -0.377151481329E+02   -0.21654E-01   -0.30049E-01  1152   0.494E+00    0.139E+00
DAV:   2    -0.378230636873E+02   -0.10792E+00   -0.39354E-01  1040   0.121E+01    0.330E+00
DAV:   3    -0.376971879467E+02    0.12588E+00   -0.22808E-01  1040   0.102E+01    0.384E-01
DAV:   4    -0.376957551891E+02    0.14328E-02   -0.21879E-02  1072   0.771E-01    0.261E-01
DAV:   5    -0.376958318488E+02   -0.76660E-04   -0.13990E-03  1184   0.822E-01    0.285E-01
DAV:   6    -0.376952213731E+02    0.61048E-03   -0.72089E-04   960   0.603E-01    0.613E-02
DAV:   7    -0.376951534750E+02    0.67898E-04   -0.18797E-04   832   0.121E-01
  10 F= -.37695153E+02 E0= -.37695153E+02  d E =-.600554E-03  mag=     0.0061
