 vasp.5.4.4.18Apr17-6-g9f103f2a35 (build May  1 2020 15:48:39) complex           
 executed on             LinuxGNU date 2020.06.20  15:04:40
 running on   16 total cores
 distrk:  each k-point on   16 cores,    1 groups
 distr:  one band on NCORES_PER_BAND=   1 cores,   16 groups


--------------------------------------------------------------------------------------------------------


 INCAR:
 POTCAR:   PAW_PBE Ni 06Sep2000                   
 POTCAR:   PAW_PBE Si 05Jan2001                   
 POTCAR:   PAW_PBE Ge 05Jan2001                   
 POTCAR:   PAW_PBE Se 06Sep2000                   

 ----------------------------------------------------------------------------- 
|                                                                             |
|           W    W    AA    RRRRR   N    N  II  N    N   GGGG   !!!           |
|           W    W   A  A   R    R  NN   N  II  NN   N  G    G  !!!           |
|           W    W  A    A  R    R  N N  N  II  N N  N  G       !!!           |
|           W WW W  AAAAAA  RRRRR   N  N N  II  N  N N  G  GGG   !            |
|           WW  WW  A    A  R   R   N   NN  II  N   NN  G    G                |
|           W    W  A    A  R    R  N    N  II  N    N   GGGG   !!!           |
|                                                                             |
|      For optimal performance we recommend to set                            |
|        NCORE= 4 - approx SQRT( number of cores)                             |
|      NCORE specifies how many cores store one orbital (NPAR=cpu/NCORE).     |
|      This setting can  greatly improve the performance of VASP for DFT.     |
|      The default,   NCORE=1            might be grossly inefficient         |
|      on modern multi-core architectures or massively parallel machines.     |
|      Do your own testing !!!!                                               |
|      Unfortunately you need to use the default for GW and RPA calculations. |
|      (for HF NCORE is supported but not extensively tested yet)             |
|                                                                             |
 ----------------------------------------------------------------------------- 


 ----------------------------------------------------------------------------- 
|                                                                             |
|  ADVICE TO THIS USER RUNNING 'VASP/VAMP'   (HEAR YOUR MASTER'S VOICE ...):  |
|                                                                             |
|      You have switched on vdW-DFT.                                          |
|      This routine was written and supplied by Jiri Klimes.                  |
|      We recommed that you carefully read and cite the following             |
|      publication                                                            |
|      J. Klimes, D.R. Bowler, A. Michelides                                  |
|        J. Phys.: Cond Matt. 22 022201 (2010)                                |
|      J. Klimes, D.R. Bowler, A. Michelides                                  |
|        Phys. Rev. B. 83, 195131 (2011)                                      |
|      and references therein.                                                |
|                                                                             |
 ----------------------------------------------------------------------------- 

 POTCAR:   PAW_PBE Ni 06Sep2000                   
   VRHFIN =Ni:                                                                  
   LEXCH  = PE                                                                  
   EATOM  =  1077.9025 eV,   79.2236 Ry                                         
                                                                                
   TITEL  = PAW_PBE Ni 06Sep2000                                                
   LULTRA =        F    use ultrasoft PP ?                                      
   IUNSCR =        1    unscreen: 0-lin 1-nonlin 2-no                           
   RPACOR =    2.000    partial core radius                                     
   POMASS =   58.690; ZVAL   =   10.000    mass and valenz                      
   RCORE  =    2.300    outmost cutoff radius                                   
   RWIGS  =    2.430; RWIGS  =    1.286    wigner-seitz radius (au A)           
   ENMAX  =  269.533; ENMIN  =  202.150 eV                                      
   RCLOC  =    1.681    cutoff for local pot                                    
   LCOR   =        T    correct aug charges                                     
   LPAW   =        T    paw PP                                                  
   EAUG   =  544.565                                                            
   DEXC   =    -.009                                                            
   RMAX   =    2.808    core radius for proj-oper                               
   RAUG   =    1.300    factor for augmentation sphere                          
   RDEP   =    2.390    radius for radial grids                                 
   QCUT   =   -4.451; QGAM   =    8.902    optimization parameters              
                                                                                
   Description                                                                  
     l     E      TYP  RCUT    TYP  RCUT                                        
     2   .000     23  2.300                                                     
     2   .000     23  2.300                                                     
     0   .000     23  2.300                                                     
     0   .000     23  2.300                                                     
     1  -.200     23  2.300                                                     
     1   .000     23  2.300                                                     
     3   .000      7   .000                                                     
  local pseudopotential read in
  partial core-charges read in
  atomic valenz-charges read in
  non local Contribution for L=           2  read in
    real space projection operators read in
  non local Contribution for L=           2  read in
    real space projection operators read in
  non local Contribution for L=           0  read in
    real space projection operators read in
  non local Contribution for L=           0  read in
    real space projection operators read in
  non local Contribution for L=           1  read in
    real space projection operators read in
  non local Contribution for L=           1  read in
    real space projection operators read in
    PAW grid and wavefunctions read in

   number of l-projection  operators is LMAX  =           6
   number of lm-projection operators is LMMAX =          18

 POTCAR:   PAW_PBE Si 05Jan2001                   
   VRHFIN =Si: s2p2                                                             
   LEXCH  = PE                                                                  
   EATOM  =   103.0669 eV,    7.5752 Ry                                         
                                                                                
   TITEL  = PAW_PBE Si 05Jan2001                                                
   LULTRA =        F    use ultrasoft PP ?                                      
   IUNSCR =        1    unscreen: 0-lin 1-nonlin 2-no                           
   RPACOR =    1.500    partial core radius                                     
   POMASS =   28.085; ZVAL   =    4.000    mass and valenz                      
   RCORE  =    1.900    outmost cutoff radius                                   
   RWIGS  =    2.480; RWIGS  =    1.312    wigner-seitz radius (au A)           
   ENMAX  =  245.345; ENMIN  =  184.009 eV                                      
   ICORE  =        2    local potential                                         
   LCOR   =        T    correct aug charges                                     
   LPAW   =        T    paw PP                                                  
   EAUG   =  322.069                                                            
   DEXC   =    -.007                                                            
   RMAX   =    2.944    core radius for proj-oper                               
   RAUG   =    1.300    factor for augmentation sphere                          
   RDEP   =    1.993    radius for radial grids                                 
   QCUT   =   -4.246; QGAM   =    8.493    optimization parameters              
                                                                                
   Description                                                                  
     l     E      TYP  RCUT    TYP  RCUT                                        
     0   .000     23  1.900                                                     
     0   .000     23  1.900                                                     
     1   .000     23  1.900                                                     
     1   .000     23  1.900                                                     
     2   .000      7  1.900                                                     
  local pseudopotential read in
  partial core-charges read in
  atomic valenz-charges read in
  non local Contribution for L=           0  read in
    real space projection operators read in
  non local Contribution for L=           0  read in
    real space projection operators read in
  non local Contribution for L=           1  read in
    real space projection operators read in
  non local Contribution for L=           1  read in
    real space projection operators read in
    PAW grid and wavefunctions read in

   number of l-projection  operators is LMAX  =           4
   number of lm-projection operators is LMMAX =           8

 POTCAR:   PAW_PBE Ge 05Jan2001                   
   VRHFIN =Ge: s2p2                                                             
   LEXCH  = PE                                                                  
   EATOM  =   104.9960 eV,    7.7170 Ry                                         
                                                                                
   TITEL  = PAW_PBE Ge 05Jan2001                                                
   LULTRA =        F    use ultrasoft PP ?                                      
   IUNSCR =        1    unscreen: 0-lin 1-nonlin 2-no                           
   RPACOR =    2.170    partial core radius                                     
   POMASS =   72.610; ZVAL   =    4.000    mass and valenz                      
   RCORE  =    2.300    outmost cutoff radius                                   
   RWIGS  =    2.300; RWIGS  =    1.217    wigner-seitz radius (au A)           
   ENMAX  =  173.807; ENMIN  =  130.355 eV                                      
   ICORE  =        3    local potential                                         
   LCOR   =        T    correct aug charges                                     
   LPAW   =        T    paw PP                                                  
   EAUG   =  385.843                                                            
   DEXC   =    -.138                                                            
   RMAX   =    3.497    core radius for proj-oper                               
   RAUG   =    1.300    factor for augmentation sphere                          
   RDEP   =    2.318    radius for radial grids                                 
   QCUT   =   -3.574; QGAM   =    7.148    optimization parameters              
                                                                                
   Description                                                                  
     l     E      TYP  RCUT    TYP  RCUT                                        
     0   .000     23  2.300                                                     
     0   .000     23  2.300                                                     
     1   .000     23  2.300                                                     
     1   .000     23  2.300                                                     
     2   .000     23  2.300                                                     
     3  -.100      7  2.300                                                     
  local pseudopotential read in
  partial core-charges read in
  atomic valenz-charges read in
  non local Contribution for L=           0  read in
    real space projection operators read in
  non local Contribution for L=           0  read in
    real space projection operators read in
  non local Contribution for L=           1  read in
    real space projection operators read in
  non local Contribution for L=           1  read in
    real space projection operators read in
  non local Contribution for L=           2  read in
    real space projection operators read in
    PAW grid and wavefunctions read in

   number of l-projection  operators is LMAX  =           5
   number of lm-projection operators is LMMAX =          13

 POTCAR:   PAW_PBE Se 06Sep2000                   
   VRHFIN =Se: s2p4                                                             
   LEXCH  = PE                                                                  
   EATOM  =   256.9644 eV,   18.8864 Ry                                         
                                                                                
   TITEL  = PAW_PBE Se 06Sep2000                                                
   LULTRA =        F    use ultrasoft PP ?                                      
   IUNSCR =        1    unscreen: 0-lin 1-nonlin 2-no                           
   RPACOR =    1.900    partial core radius                                     
   POMASS =   78.960; ZVAL   =    6.000    mass and valenz                      
   RCORE  =    2.100    outmost cutoff radius                                   
   RWIGS  =    2.200; RWIGS  =    1.164    wigner-seitz radius (au A)           
   ENMAX  =  211.534; ENMIN  =  158.651 eV                                      
   ICORE  =        3    local potential                                         
   LCOR   =        T    correct aug charges                                     
   LPAW   =        T    paw PP                                                  
   EAUG   =  446.842                                                            
   DEXC   =    -.031                                                            
   RMAX   =    3.170    core radius for proj-oper                               
   RAUG   =    1.300    factor for augmentation sphere                          
   RDEP   =    2.177    radius for radial grids                                 
   QCUT   =   -3.943; QGAM   =    7.886    optimization parameters              
                                                                                
   Description                                                                  
     l     E      TYP  RCUT    TYP  RCUT                                        
     0   .000     23  2.100                                                     
     0   .000     23  2.100                                                     
     1   .000     23  2.100                                                     
     1   .000     23  2.100                                                     
     2   .000     23  2.100                                                     
     3  -.100      7  2.100                                                     
  local pseudopotential read in
  partial core-charges read in
  atomic valenz-charges read in
  non local Contribution for L=           0  read in
    real space projection operators read in
  non local Contribution for L=           0  read in
    real space projection operators read in
  non local Contribution for L=           1  read in
    real space projection operators read in
  non local Contribution for L=           1  read in
    real space projection operators read in
  non local Contribution for L=           2  read in
    real space projection operators read in
    PAW grid and wavefunctions read in

   number of l-projection  operators is LMAX  =           5
   number of lm-projection operators is LMMAX =          13

 Optimization of the real space projectors (new method)

 maximal supplied QI-value         = 16.25
 optimisation between [QCUT,QGAM] = [ 11.54, 23.24] = [ 37.28,151.24] Ry 
 Optimized for a Real-space Cutoff    1.49 Angstroem

   l    n(q)    QCUT    max X(q) W(low)/X(q) W(high)/X(q)  e(spline) 
   2      9    11.539     4.811    0.20E-04    0.14E-04    0.45E-07
   2      9    11.539    15.146    0.24E-03    0.12E-03    0.20E-06
   0     10    11.539    14.357    0.18E-04    0.12E-05    0.14E-07
   0     10    11.539    43.282    0.39E-04    0.17E-04    0.23E-06
   1     10    11.539     5.514    0.99E-05    0.13E-04    0.19E-07
   1     10    11.539     7.697    0.38E-04    0.79E-04    0.91E-07
 Optimization of the real space projectors (new method)

 maximal supplied QI-value         = 19.84
 optimisation between [QCUT,QGAM] = [ 11.51, 23.22] = [ 37.09,150.92] Ry 
 Optimized for a Real-space Cutoff    1.21 Angstroem

   l    n(q)    QCUT    max X(q) W(low)/X(q) W(high)/X(q)  e(spline) 
   0      8    11.508     8.708    0.18E-04    0.44E-05    0.47E-08
   0      8    11.508   106.241    0.70E-04    0.15E-03    0.51E-07
   1      8    11.508     5.901    0.63E-05    0.23E-04    0.21E-07
   1      8    11.508    73.241    0.15E-03    0.36E-04    0.79E-07
 Optimization of the real space projectors (new method)

 maximal supplied QI-value         = 16.25
 optimisation between [QCUT,QGAM] = [ 11.54, 23.24] = [ 37.28,151.24] Ry 
 Optimized for a Real-space Cutoff    1.28 Angstroem

   l    n(q)    QCUT    max X(q) W(low)/X(q) W(high)/X(q)  e(spline) 
   0      9    11.539     8.651    0.22E-04    0.16E-04    0.10E-07
   0      9    11.539    33.192    0.11E-03    0.16E-03    0.65E-07
   1      8    11.539     5.899    0.37E-04    0.28E-04    0.43E-07
   1      8    11.539    27.289    0.22E-03    0.28E-04    0.14E-06
   2      8    11.539     4.673    0.11E-03    0.18E-03    0.58E-07
 Optimization of the real space projectors (new method)

 maximal supplied QI-value         = 17.95
 optimisation between [QCUT,QGAM] = [ 11.67, 23.34] = [ 38.13,152.52] Ry 
 Optimized for a Real-space Cutoff    1.25 Angstroem

   l    n(q)    QCUT    max X(q) W(low)/X(q) W(high)/X(q)  e(spline) 
   0      9    11.669     6.499    0.13E-04    0.81E-05    0.11E-07
   0      9    11.669    52.623    0.18E-03    0.46E-04    0.72E-07
   1      8    11.669     4.229    0.40E-04    0.45E-04    0.31E-07
   1      8    11.669    29.991    0.22E-03    0.36E-03    0.10E-06
   2      8    11.669     3.719    0.19E-03    0.46E-04    0.50E-07

 ----------------------------------------------------------------------------- 
|                                                                             |
|  ADVICE TO THIS USER RUNNING 'VASP/VAMP'   (HEAR YOUR MASTER'S VOICE ...):  |
|                                                                             |
|      You enforced a specific xc-type in the INCAR file,                     |
|      a different type was found on the POTCAR file                          |
|          I HOPE YOU KNOW, WHAT YOU ARE  DOING                               |
|                                                                             |
 ----------------------------------------------------------------------------- 

 PAW_PBE Ni 06Sep2000                   :
 energy of atom  1       EATOM=-1077.9025
 kinetic energy error for atom=    0.0030 (will be added to EATOM!!)
 PAW_PBE Si 05Jan2001                   :
 energy of atom  2       EATOM= -103.0669
 kinetic energy error for atom=    0.0005 (will be added to EATOM!!)
 PAW_PBE Ge 05Jan2001                   :
 energy of atom  3       EATOM= -104.9960
 kinetic energy error for atom=    0.0002 (will be added to EATOM!!)
 PAW_PBE Se 06Sep2000                   :
 energy of atom  4       EATOM= -256.9644
 kinetic energy error for atom=    0.0007 (will be added to EATOM!!)


 POSCAR: Ni2 Si Ge Se6                           
  positions in direct lattice
  velocities in cartesian coordinates
  No initial velocities read in
 exchange correlation table for  LEXCH =       42
   RHO(1)=    0.500       N(1)  =     2000
   RHO(2)=  100.500       N(2)  =     4000



--------------------------------------------------------------------------------------------------------


 ion  position               nearest neighbor table
   1  0.333  0.333  0.500-   6 2.78   5 2.78   7 2.78   8 2.78  10 2.78   9 2.78
   2  0.667  0.667  0.500-   9 2.78   8 2.78  10 2.78   5 2.78   7 2.78   6 2.78
   3  0.000  0.000  0.448-   4 2.43   8 2.63  10 2.63   9 2.63
   4  0.000  0.000  0.552-   3 2.43   5 2.63   7 2.63   6 2.63
   5  0.626  0.000  0.574-   4 2.63   1 2.78   2 2.78
   6  0.000  0.373  0.574-   4 2.63   1 2.78   2 2.78
   7  0.373  0.626  0.574-   4 2.63   1 2.78   2 2.78
   8  0.374  1.000  0.426-   3 2.63   2 2.78   1 2.78
   9  1.000  0.627  0.426-   3 2.63   2 2.78   1 2.78
  10  0.627  0.374  0.426-   3 2.63   2 2.78   1 2.78

  LATTYP: Found a hexagonal cell.
 ALAT       =     6.9077769333
 C/A-ratio  =     3.3939410937
  
  Lattice vectors:
  
 A1 = (   3.4538890000,  -5.9823100000,   0.0000000000)
 A2 = (  -6.9077770000,   0.0000000000,   0.0000000000)
 A3 = (   0.0000000000,   0.0000000000, -23.4445880000)


Analysis of symmetry for initial positions (statically):
=====================================================================
 Subroutine PRICEL returns:
 Original cell was already a primitive cell.
 

 Routine SETGRP: Setting up the symmetry group for a 
 hexagonal supercell.


 Subroutine GETGRP returns: Found  3 space group operations
 (whereof  3 operations were pure point group operations)
 out of a pool of 24 trial point group operations.


The static configuration has the point symmetry C_3 .


Analysis of symmetry for dynamics (positions and initial velocities):
=====================================================================
 Subroutine PRICEL returns:
 Original cell was already a primitive cell.
 

 Routine SETGRP: Setting up the symmetry group for a 
 hexagonal supercell.


 Subroutine GETGRP returns: Found  3 space group operations
 (whereof  3 operations were pure point group operations)
 out of a pool of 24 trial point group operations.


The dynamic configuration has the point symmetry C_3 .


Analysis of constrained symmetry for selective dynamics:
=====================================================================
 Subroutine PRICEL returns:
 Original cell was already a primitive cell.
 

 Routine SETGRP: Setting up the symmetry group for a 
 hexagonal supercell.


 Subroutine GETGRP returns: Found  3 space group operations
 (whereof  3 operations were pure point group operations)
 out of a pool of 24 trial point group operations.


The constrained configuration has the point symmetry C_3 .


Analysis of structural, dynamic, and magnetic symmetry:
=====================================================================
 Subroutine PRICEL returns:
 Original cell was already a primitive cell.
 

 Routine SETGRP: Setting up the symmetry group for a 
 hexagonal supercell.


 Subroutine GETGRP returns: Found  3 space group operations
 (whereof  3 operations were pure point group operations)
 out of a pool of 24 trial point group operations.


The magnetic configuration has the point symmetry C_3 .


 Subroutine INISYM returns: Found  3 space group operations
 (whereof  3 operations are pure point group operations),
 and found     1 'primitive' translations



 KPOINTS: Kpoints from vasprun.xml                

Automatic generation of k-mesh.
Space group operators:
 irot       det(A)        alpha          n_x          n_y          n_z        tau_x        tau_y        tau_z
    1     1.000000     0.000000     1.000000     0.000000     0.000000     0.000000     0.000000     0.000000
    2     1.000000   120.000000     0.000000     0.000000     1.000000     0.000000     0.000000     0.000000
    3     1.000000   120.000000     0.000000     0.000000    -1.000000     0.000000     0.000000     0.000000
 
 Subroutine IBZKPT returns following result:
 ===========================================
 
 Found      5 irreducible k-points:
 
 Following reciprocal coordinates:
            Coordinates               Weight
  0.000000  0.000000  0.000000      1.000000
  0.200000  0.000000  0.000000      6.000000
  0.400000  0.000000  0.000000      6.000000
  0.400000  0.200000  0.000000      6.000000
 -0.400000  0.200000  0.000000      6.000000
 
 Following cartesian coordinates:
            Coordinates               Weight
  0.000000  0.000000  0.000000      1.000000
  0.028953 -0.016716  0.000000      6.000000
  0.057906 -0.033432  0.000000      6.000000
  0.057906  0.000000  0.000000      6.000000
 -0.057906  0.066864  0.000000      6.000000
 
 TETIRR: Found     15 inequivalent tetrahedra from      150


--------------------------------------------------------------------------------------------------------




 Dimension of arrays:
   k-points           NKPTS =      5   k-points in BZ     NKDIM =      5   number of bands    NBANDS=     48
   number of dos      NEDOS =    301   number of ions     NIONS =     10
   non local maximal  LDIM  =      6   non local SUM 2l+1 LMDIM =     18
   total plane-waves  NPLWV = 524880
   max r-space proj   IRMAX =   7543   max aug-charges    IRDMAX=  29641
   dimension x,y,z NGX =    54 NGY =   54 NGZ =  180
   dimension x,y,z NGXF=   108 NGYF=  108 NGZF=  360
   support grid    NGXF=   108 NGYF=  108 NGZF=  360
   ions per type =               2   1   1   6
   NGX,Y,Z   is equivalent  to a cutoff of  13.00, 13.00, 12.76 a.u.
   NGXF,Y,Z  is equivalent  to a cutoff of  25.99, 25.99, 25.53 a.u.

 SYSTEM =  unknown system                          
 POSCAR =  Ni2 Si Ge Se6                           

 Startparameter for this run:
   NWRITE =      2    write-flag & timer
   PREC   = accura    normal or accurate (medium, high low for compatibility)
   ISTART =      0    job   : 0-new  1-cont  2-samecut
   ICHARG =      2    charge: 1-file 2-atom 10-const
   ISPIN  =      2    spin polarized calculation?
   LNONCOLLINEAR =      F non collinear calculations
   LSORBIT =      F    spin-orbit coupling
   INIWAV =      1    electr: 0-lowe 1-rand  2-diag
   LASPH  =      F    aspherical Exc in radial PAW
   METAGGA=      F    non-selfconsistent MetaGGA calc.

 Electronic Relaxation 1
   ENCUT  =  520.0 eV  38.22 Ry    6.18 a.u.  12.84 12.84 43.59*2*pi/ulx,y,z
   ENINI  =  520.0     initial cutoff
   ENAUG  =  544.6 eV  augmentation charge cutoff
   NELM   =    400;   NELMIN=  2; NELMDL=  0     # of ELM steps 
   EDIFF  = 0.1E-03   stopping-criterion for ELM
   LREAL  =      T    real-space projection
   NLSPLINE    = F    spline interpolate recip. space projectors
   LCOMPAT=      F    compatible to vasp.4.4
   GGA_COMPAT  = T    GGA compatible to vasp.4.4-vasp.4.6
   LMAXPAW     = -100 max onsite density
   LMAXMIX     =    2 max onsite mixed and CHGCAR
   VOSKOWN=      0    Vosko Wilk Nusair interpolation
   ROPT   =   -0.00025  -0.00025  -0.00025  -0.00025
 Ionic relaxation
   EDIFFG = 0.1E-02   stopping-criterion for IOM
   NSW    =     99    number of steps for IOM
   NBLOCK =      1;   KBLOCK =     99    inner block; outer block 
   IBRION =      2    ionic relax: 0-MD 1-quasi-New 2-CG
   NFREE  =      1    steps in history (QN), initial steepest desc. (CG)
   ISIF   =      3    stress and relaxation
   IWAVPR =     11    prediction:  0-non 1-charg 2-wave 3-comb
   ISYM   =      2    0-nonsym 1-usesym 2-fastsym
   LCORR  =      T    Harris-Foulkes like correction to forces

   POTIM  = 0.5000    time-step for ionic-motion
   TEIN   =    0.0    initial temperature
   TEBEG  =    0.0;   TEEND  =   0.0 temperature during run
   SMASS  =  -3.00    Nose mass-parameter (am)
   estimated Nose-frequenzy (Omega)   =  0.10E-29 period in steps =****** mass=  -0.109E-26a.u.
   SCALEE = 1.0000    scale energy and forces
   NPACO  =    256;   APACO  = 16.0  distance and # of slots for P.C.
   PSTRESS=    0.0 pullay stress

  Mass of Ions in am
   POMASS =  58.69 28.09 72.61 78.96
  Ionic Valenz
   ZVAL   =  10.00  4.00  4.00  6.00
  Atomic Wigner-Seitz radii
   RWIGS  =  -1.00 -1.00 -1.00 -1.00
  virtual crystal weights 
   VCA    =   1.00  1.00  1.00  1.00
   NELECT =      64.0000    total number of electrons
   NUPDOWN=      -1.0000    fix difference up-down

 DOS related values:
   EMIN   =  10.00;   EMAX   =-10.00  energy-range for DOS
   EFERMI =   0.00
   ISMEAR =    -5;   SIGMA  =   0.05  broadening in eV -4-tet -1-fermi 0-gaus

 Electronic relaxation 2 (details)
   IALGO  =     38    algorithm
   LDIAG  =      T    sub-space diagonalisation (order eigenvalues)
   LSUBROT=      F    optimize rotation matrix (better conditioning)
   TURBO    =      0    0=normal 1=particle mesh
   IRESTART =      0    0=no restart 2=restart with 2 vectors
   NREBOOT  =      0    no. of reboots
   NMIN     =      0    reboot dimension
   EREF     =   0.00    reference energy to select bands
   IMIX   =      4    mixing-type and parameters
     AMIX     =   0.40;   BMIX     =  1.00
     AMIX_MAG =   1.60;   BMIX_MAG =  1.00
     AMIN     =   0.01
     WC   =   100.;   INIMIX=   1;  MIXPRE=   1;  MAXMIX= -45

 Intra band minimization:
   WEIMIN = 0.0010     energy-eigenvalue tresh-hold
   EBREAK =  0.52E-06  absolut break condition
   DEPER  =   0.30     relativ break condition  

   TIME   =   0.40     timestep for ELM

  volume/ion in A,a.u.               =      96.88       653.80
  Fermi-wavevector in a.u.,A,eV,Ry     =   0.661787  1.250596  5.958835  0.437962
  Thomas-Fermi vector in A             =   1.734655

 Write flags
   LWAVE        =      F    write WAVECAR
   LDOWNSAMPLE  =      F    k-point downsampling of WAVECAR
   LCHARG       =      T    write CHGCAR
   LVTOT        =      F    write LOCPOT, total local potential
   LVHAR        =      F    write LOCPOT, Hartree potential only
   LELF         =      F    write electronic localiz. function (ELF)
   LORBIT       =     11    0 simple, 1 ext, 2 COOP (PROOUT), +10 PAW based schemes


 Dipole corrections
   LMONO  =      F    monopole corrections only (constant potential shift)
   LDIPOL =      F    correct potential (dipole corrections)
   IDIPOL =      0    1-x, 2-y, 3-z, 4-all directions 
   EPSILON=  1.0000000 bulk dielectric constant

 Exchange correlation treatment:
   GGA     =    BO    GGA type
   LEXCH   =    42    internal setting for exchange type
   VOSKOWN=      0    Vosko Wilk Nusair interpolation
   LHFCALC =     F    Hartree Fock is set to
   LHFONE  =     F    Hartree Fock one center treatment
   AEXX    =    0.0000 exact exchange contribution

 vdW DFT:
   LUSE_VDW   =     T    switch on vdW DFT
   Zab_VDW    =-.8491    correlation parameter
   PARAM1     =0.1833
   PARAM2     =0.2200
   PARAM3     =0.0000
   -- rVV10 --
   BPARAM     = 6.3000
   CPARAM     = 0.0093

 Linear response parameters
   LEPSILON=     F    determine dielectric tensor
   LRPA    =     F    only Hartree local field effects (RPA)
   LNABLA  =     F    use nabla operator in PAW spheres
   LVEL    =     F    velocity operator in full k-point grid
   LINTERFAST=   F  fast interpolation
   KINTER  =     0    interpolate to denser k-point grid
   CSHIFT  =0.1000    complex shift for real part using Kramers Kronig
   OMEGAMAX=  -1.0    maximum frequency
   DEG_THRESHOLD= 0.2000000E-02 threshold for treating states as degnerate
   RTIME   =   -0.100 relaxation time in fs
  (WPLASMAI=    0.000 imaginary part of plasma frequency in eV, 0.658/RTIME)
   DFIELD  = 0.0000000 0.0000000 0.0000000 field for delta impulse in time

 Orbital magnetization related:
   ORBITALMAG=     F  switch on orbital magnetization
   LCHIMAG   =     F  perturbation theory with respect to B field
   DQ        =  0.001000  dq finite difference perturbation B field
   LLRAUG    =     F  two centre corrections for induced B field



--------------------------------------------------------------------------------------------------------


 conjugate gradient relaxation of ions
   using selective dynamics as specified on POSCAR
 charge density and potential will be updated during run
 spin polarized calculation
 Variant of blocked Davidson
 Davidson routine will perform the subspace rotation
 perform sub-space diagonalisation
    after iterative eigenvector-optimisation
 modified Broyden-mixing scheme, WC =      100.0
 initial mixing is a Kerker type mixing with AMIX =  0.4000 and BMIX =      1.0000
 Hartree-type preconditioning will be used
 using additional bands           16
 real space projection scheme for non local part
 use partial core corrections
 calculate Harris-corrections to forces   (improved forces if not selfconsistent)
 use gradient corrections 
 use of overlap-Matrix (Vanderbilt PP)
 Fermi weights with tetrahedron method with Bloechl corrections


--------------------------------------------------------------------------------------------------------


  energy-cutoff  :      520.00
  volume of cell :      968.84
      direct lattice vectors                 reciprocal lattice vectors
     6.907777000 -0.000000000  0.000000000     0.144764372 -0.083579742  0.000000000
     3.453888000  5.982310000  0.000000000     0.000000000  0.167159509 -0.000000000
     0.000000000  0.000000000 23.444588000    -0.000000000  0.000000000  0.042653767

  length of vectors
     6.907777000  6.907776433 23.444588000     0.167159495  0.167159509  0.042653767



 k-points in units of 2pi/SCALE and weight: Kpoints from vasprun.xml                
   0.00000000  0.00000000  0.00000000       0.040
   0.02895287 -0.01671595  0.00000000       0.240
   0.05790575 -0.03343190  0.00000000       0.240
   0.05790575  0.00000000  0.00000000       0.240
  -0.05790575  0.06686380  0.00000000       0.240

 k-points in reciprocal lattice and weights: Kpoints from vasprun.xml                
   0.00000000  0.00000000  0.00000000       0.040
   0.20000000  0.00000000  0.00000000       0.240
   0.40000000  0.00000000  0.00000000       0.240
   0.40000000  0.20000000  0.00000000       0.240
  -0.40000000  0.20000000  0.00000000       0.240

 position of ions in fractional coordinates (direct lattice) 
   0.33333300  0.33333300  0.49992500
   0.66666700  0.66666700  0.50007500
   0.00000000  0.00000000  0.44821600
   0.00000000  0.00000000  0.55178400
   0.62635700  0.00042000  0.57375200
   0.00042000  0.37322400  0.57375200
   0.37322400  0.62635700  0.57375200
   0.37364300  0.99958000  0.42624800
   0.99958000  0.62677600  0.42624800
   0.62677600  0.37364300  0.42624800

 position of ions in cartesian coordinates  (Angst):
   3.45388488  1.99410134 11.72053566
   6.90778012  3.98820866 11.72405234
   0.00000000  0.00000000 10.50823946
   0.00000000  0.00000000 12.93634854
   4.32818511  0.00251257 13.45137925
   1.29197516  2.23274167 13.45137925
   4.74151509  3.74706174 13.45137925
   6.03347989  5.97979743  9.99320875
   9.06968984  3.74956833  9.99320875
   5.62014991  2.23524826  9.99320875



--------------------------------------------------------------------------------------------------------


 k-point  1 :   0.0000 0.0000 0.0000  plane waves:   26073
 k-point  2 :   0.2000 0.0000 0.0000  plane waves:   26070
 k-point  3 :   0.4000 0.0000 0.0000  plane waves:   26086
 k-point  4 :   0.4000 0.2000 0.0000  plane waves:   26085
 k-point  5 :  -0.4000 0.2000 0.0000  plane waves:   26115

 maximum and minimum number of plane-waves per node :     26115    26070

 maximum number of plane-waves:     26115
 maximum index in each direction: 
   IXMAX=   13   IYMAX=   12   IZMAX=   43
   IXMIN=  -13   IYMIN=  -13   IZMIN=  -43


 serial   3D FFT for wavefunctions
 parallel 3D FFT for charge:
    minimum data exchange during FFTs selected (reduces bandwidth)


 total amount of memory used by VASP MPI-rank0   129818. kBytes
=======================================================================

   base      :      30000. kBytes
   nonlr-proj:       7318. kBytes
   fftplans  :      11247. kBytes
   grid      :      68332. kBytes
   one-center:        311. kBytes
   wavefun   :      12610. kBytes

     INWAV:  cpu time    0.0000: real time    0.0004
 Broyden mixing: mesh for mixing (old mesh)
   NGX = 25   NGY = 25   NGZ = 87
  (NGX  =108   NGY  =108   NGZ  =360)
  gives a total of  54375 points

 initial charge density was supplied:
 charge density of overlapping atoms calculated
 number of electron      64.0000000 magnetization      14.8000000
 keeping initial charge density in first step


--------------------------------------------------------------------------------------------------------


 Maximum index for non-local projection operator         7247
 Maximum index for augmentation-charges         2133 (set IRDMAX)


--------------------------------------------------------------------------------------------------------


 First call to EWALD:  gamma=   0.179
 Maximum number of real-space cells 4x 4x 1
 Maximum number of reciprocal cells 2x 2x 6

    FEWALD:  cpu time    0.0040: real time    0.0015


--------------------------------------- Iteration      1(   1)  ---------------------------------------


vdW kernel read from vdw_kernel.bindat
  0.0000  0.2424  0.5071  0.7962  1.1119  1.4567  1.8333  2.2446  2.6937  3.1842
  3.7199  4.3049  4.9438  5.6415  6.4036  7.2358  8.1446  9.1372 10.2212 11.4050
 12.6979 14.1099 15.6519 17.3360 19.1751 21.1837 23.3773 25.7729 28.3892 31.2465
 34.3669 37.7748 41.4965 45.5611 50.0000

    POTLOK:  cpu time   52.4880: real time   52.8185
    SETDIJ:  cpu time    0.0640: real time    0.0627
     EDDAV:  cpu time   22.6000: real time   22.9261
 BZINTS: Fermi energy:  4.741891; 64.000000 electrons
         Band energy: -45.844196;  BLOECHL correction: -0.024635
       DOS:  cpu time    0.0040: real time    0.0052
    --------------------------------------------
      LOOP:  cpu time   75.1560: real time   75.8126

 eigenvalue-minimisations  :   960
 total energy-change (2. order) : 0.4146378E+03  (-0.1973253E+04)
 number of electron      64.0000000 magnetization      14.8000000
 augmentation part       64.0000000 magnetization      14.8000000

 Free energy of the ion-electron system (eV)
  ---------------------------------------------------
  alpha Z        PSCENC =        40.05543433
  Ewald energy   TEWEN  =      8065.03639907
  -Hartree energ DENC   =    -11594.03494219
  -exchange      EXHF   =         0.00000000
  -V(xc)+E(xc)   XCENC  =        37.63652441
  PAW double counting   =      2445.44674051    -2457.11695131
  entropy T*S    EENTRO =         0.00000000
  eigenvalues    EBANDS =       -45.84419631
  atomic energy  EATOM  =      3923.45879020
  Solvation  Ediel_sol  =         0.00000000
  ---------------------------------------------------
  free energy    TOTEN  =       414.63779871 eV

  energy without entropy =      414.63779871  energy(sigma->0) =      414.63779871


--------------------------------------------------------------------------------------------------------




--------------------------------------- Iteration      1(   2)  ---------------------------------------


     EDDAV:  cpu time   31.3400: real time   31.7272
 BZINTS: Fermi energy: -1.042873; 64.000000 electrons
         Band energy:-431.421928;  BLOECHL correction: -0.081382
       DOS:  cpu time    0.0040: real time    0.0054
    --------------------------------------------
      LOOP:  cpu time   31.3440: real time   31.7327

 eigenvalue-minimisations  :  1376
 total energy-change (2. order) :-0.3855777E+03  (-0.3594065E+03)
 number of electron      64.0000000 magnetization      14.8000000
 augmentation part       64.0000000 magnetization      14.8000000

 Free energy of the ion-electron system (eV)
  ---------------------------------------------------
  alpha Z        PSCENC =        40.05543433
  Ewald energy   TEWEN  =      8065.03639907
  -Hartree energ DENC   =    -11594.03494219
  -exchange      EXHF   =         0.00000000
  -V(xc)+E(xc)   XCENC  =        37.63652441
  PAW double counting   =      2445.44674051    -2457.11695131
  entropy T*S    EENTRO =         0.00000000
  eigenvalues    EBANDS =      -431.42192772
  atomic energy  EATOM  =      3923.45879020
  Solvation  Ediel_sol  =         0.00000000
  ---------------------------------------------------
  free energy    TOTEN  =        29.06006730 eV

  energy without entropy =       29.06006730  energy(sigma->0) =       29.06006730


--------------------------------------------------------------------------------------------------------




--------------------------------------- Iteration      1(   3)  ---------------------------------------


     EDDAV:  cpu time   29.2880: real time   29.3900
 BZINTS: Fermi energy: -2.092933; 64.000000 electrons
         Band energy:-500.247456;  BLOECHL correction:  0.000000
       DOS:  cpu time    0.0000: real time    0.0014
    --------------------------------------------
      LOOP:  cpu time   29.2880: real time   29.3913

 eigenvalue-minimisations  :  1264
 total energy-change (2. order) :-0.6882553E+02  (-0.6549920E+02)
 number of electron      64.0000000 magnetization      14.8000000
 augmentation part       64.0000000 magnetization      14.8000000

 Free energy of the ion-electron system (eV)
  ---------------------------------------------------
  alpha Z        PSCENC =        40.05543433
  Ewald energy   TEWEN  =      8065.03639907
  -Hartree energ DENC   =    -11594.03494219
  -exchange      EXHF   =         0.00000000
  -V(xc)+E(xc)   XCENC  =        37.63652441
  PAW double counting   =      2445.44674051    -2457.11695131
  entropy T*S    EENTRO =         0.00000000
  eigenvalues    EBANDS =      -500.24745591
  atomic energy  EATOM  =      3923.45879020
  Solvation  Ediel_sol  =         0.00000000
  ---------------------------------------------------
  free energy    TOTEN  =       -39.76546089 eV

  energy without entropy =      -39.76546089  energy(sigma->0) =      -39.76546089


--------------------------------------------------------------------------------------------------------




--------------------------------------- Iteration      1(   4)  ---------------------------------------


     EDDAV:  cpu time   27.1560: real time   27.2525
 BZINTS: Fermi energy: -2.164088; 64.000000 electrons
         Band energy:-502.816317;  BLOECHL correction:  0.000000
       DOS:  cpu time    0.0000: real time    0.0018
    --------------------------------------------
      LOOP:  cpu time   27.1560: real time   27.2543

 eigenvalue-minimisations  :  1168
 total energy-change (2. order) :-0.2568861E+01  (-0.2550166E+01)
 number of electron      64.0000000 magnetization      14.8000000
 augmentation part       64.0000000 magnetization      14.8000000

 Free energy of the ion-electron system (eV)
  ---------------------------------------------------
  alpha Z        PSCENC =        40.05543433
  Ewald energy   TEWEN  =      8065.03639907
  -Hartree energ DENC   =    -11594.03494219
  -exchange      EXHF   =         0.00000000
  -V(xc)+E(xc)   XCENC  =        37.63652441
  PAW double counting   =      2445.44674051    -2457.11695131
  entropy T*S    EENTRO =         0.00000000
  eigenvalues    EBANDS =      -502.81631659
  atomic energy  EATOM  =      3923.45879020
  Solvation  Ediel_sol  =         0.00000000
  ---------------------------------------------------
  free energy    TOTEN  =       -42.33432157 eV

  energy without entropy =      -42.33432157  energy(sigma->0) =      -42.33432157


--------------------------------------------------------------------------------------------------------




--------------------------------------- Iteration      1(   5)  ---------------------------------------


     EDDAV:  cpu time   28.7280: real time   28.9002
 BZINTS: Fermi energy: -2.167754; 64.000000 electrons
         Band energy:-502.879050;  BLOECHL correction:  0.000000
       DOS:  cpu time    0.0000: real time    0.0021
    CHARGE:  cpu time    2.0920: real time    2.0964
    MIXING:  cpu time    0.0480: real time    0.0482
    --------------------------------------------
      LOOP:  cpu time   30.8680: real time   31.0469

 eigenvalue-minimisations  :  1248
 total energy-change (2. order) :-0.6273325E-01  (-0.6268705E-01)
 number of electron      63.9999995 magnetization      14.2853500
 augmentation part       -0.9588600 magnetization      11.1102854

 Broyden mixing:
  rms(total) = 0.38478E+01    rms(broyden)= 0.38478E+01
  rms(prec ) = 0.42522E+01
  weight for this iteration     100.00

 Free energy of the ion-electron system (eV)
  ---------------------------------------------------
  alpha Z        PSCENC =        40.05543433
  Ewald energy   TEWEN  =      8065.03639907
  -Hartree energ DENC   =    -11594.03494219
  -exchange      EXHF   =         0.00000000
  -V(xc)+E(xc)   XCENC  =        37.63652441
  PAW double counting   =      2445.44674051    -2457.11695131
  entropy T*S    EENTRO =         0.00000000
  eigenvalues    EBANDS =      -502.87904984
  atomic energy  EATOM  =      3923.45879020
  Solvation  Ediel_sol  =         0.00000000
  ---------------------------------------------------
  free energy    TOTEN  =       -42.39705482 eV

  energy without entropy =      -42.39705482  energy(sigma->0) =      -42.39705482


--------------------------------------------------------------------------------------------------------




--------------------------------------- Iteration      1(   6)  ---------------------------------------


    POTLOK:  cpu time   52.3200: real time   52.4265
    SETDIJ:  cpu time    0.0520: real time    0.0494
     EDDAV:  cpu time   28.9560: real time   29.0650
 BZINTS: Fermi energy: -4.121862; 64.000000 electrons
         Band energy:-860.718150;  BLOECHL correction: -0.037917
       DOS:  cpu time    0.0080: real time    0.0069
    CHARGE:  cpu time    2.1840: real time    2.1889
    MIXING:  cpu time    0.0400: real time    0.0439
    --------------------------------------------
      LOOP:  cpu time   83.5640: real time   83.7807

 eigenvalue-minimisations  :  1248
 total energy-change (2. order) :-0.7576924E+02  (-0.1018460E+03)
 number of electron      63.9999993 magnetization      13.7912505
 augmentation part        9.4228251 magnetization      12.2175324

 Broyden mixing:
  rms(total) = 0.66599E+01    rms(broyden)= 0.66598E+01
  rms(prec ) = 0.69492E+01
  weight for this iteration     100.00

 eigenvalues of (default mixing * dielectric matrix)
  average eigenvalue GAMMA=   0.2141
  0.2141

 Free energy of the ion-electron system (eV)
  ---------------------------------------------------
  alpha Z        PSCENC =        40.05543433
  Ewald energy   TEWEN  =      8065.03639907
  -Hartree energ DENC   =    -11346.05739743
  -exchange      EXHF   =         0.00000000
  -V(xc)+E(xc)   XCENC  =        32.51082842
  PAW double counting   =      2053.65536116    -2026.10755705
  entropy T*S    EENTRO =         0.00000000
  eigenvalues    EBANDS =      -860.71815003
  atomic energy  EATOM  =      3923.45879020
  Solvation  Ediel_sol  =         0.00000000
  ---------------------------------------------------
  free energy    TOTEN  =      -118.16629133 eV

  energy without entropy =     -118.16629133  energy(sigma->0) =     -118.16629133


--------------------------------------------------------------------------------------------------------




--------------------------------------- Iteration      1(   7)  ---------------------------------------


    POTLOK:  cpu time   52.4240: real time   52.6452
    SETDIJ:  cpu time    0.0480: real time    0.0486
     EDDAV:  cpu time   24.4360: real time   24.8998
 BZINTS: Fermi energy: -4.385283; 64.000000 electrons
         Band energy:-681.398968;  BLOECHL correction: -0.034724
       DOS:  cpu time    0.0040: real time    0.0068
    CHARGE:  cpu time    2.1720: real time    2.1799
    MIXING:  cpu time    0.0400: real time    0.0409
    --------------------------------------------
      LOOP:  cpu time   79.1200: real time   79.8212

 eigenvalue-minimisations  :  1056
 total energy-change (2. order) : 0.5448366E+02  (-0.7545727E+01)
 number of electron      63.9999993 magnetization      13.0168028
 augmentation part        8.6950539 magnetization      10.2924885

 Broyden mixing:
  rms(total) = 0.40567E+01    rms(broyden)= 0.40567E+01
  rms(prec ) = 0.43040E+01
  weight for this iteration     100.00

 eigenvalues of (default mixing * dielectric matrix)
  average eigenvalue GAMMA=   0.6510
  0.6510  0.6510

 Free energy of the ion-electron system (eV)
  ---------------------------------------------------
  alpha Z        PSCENC =        40.05543433
  Ewald energy   TEWEN  =      8065.03639907
  -Hartree energ DENC   =    -11441.38310865
  -exchange      EXHF   =         0.00000000
  -V(xc)+E(xc)   XCENC  =        30.75199190
  PAW double counting   =      2223.39525472    -2223.59842438
  entropy T*S    EENTRO =         0.00000000
  eigenvalues    EBANDS =      -681.39896769
  atomic energy  EATOM  =      3923.45879020
  Solvation  Ediel_sol  =         0.00000000
  ---------------------------------------------------
  free energy    TOTEN  =       -63.68263050 eV

  energy without entropy =      -63.68263050  energy(sigma->0) =      -63.68263050


--------------------------------------------------------------------------------------------------------




--------------------------------------- Iteration      1(   8)  ---------------------------------------


    POTLOK:  cpu time   52.1880: real time   52.5808
    SETDIJ:  cpu time    0.0360: real time    0.0389
     EDDAV:  cpu time   27.8160: real time   28.9821
 BZINTS: Fermi energy: -4.332017; 64.000000 electrons
         Band energy:-525.698075;  BLOECHL correction: -0.016905
       DOS:  cpu time    0.0040: real time    0.0105
    CHARGE:  cpu time    1.9560: real time    2.2039
    MIXING:  cpu time    0.0360: real time    0.0415
    --------------------------------------------
      LOOP:  cpu time   82.0360: real time   83.8578

 eigenvalue-minimisations  :  1248
 total energy-change (2. order) : 0.3234068E+02  (-0.6298050E+01)
 number of electron      63.9999993 magnetization      12.7275255
 augmentation part        5.8296469 magnetization      10.8723259

 Broyden mixing:
  rms(total) = 0.14666E+01    rms(broyden)= 0.14663E+01
  rms(prec ) = 0.15093E+01
  weight for this iteration     100.00

 eigenvalues of (default mixing * dielectric matrix)
  average eigenvalue GAMMA=   0.6485
  0.7571  0.7571  0.4314

 Free energy of the ion-electron system (eV)
  ---------------------------------------------------
  alpha Z        PSCENC =        40.05543433
  Ewald energy   TEWEN  =      8065.03639907
  -Hartree energ DENC   =    -11548.16655524
  -exchange      EXHF   =         0.00000000
  -V(xc)+E(xc)   XCENC  =        33.07513610
  PAW double counting   =      2399.39694376    -2418.50002292
  entropy T*S    EENTRO =         0.00000000
  eigenvalues    EBANDS =      -525.69807451
  atomic energy  EATOM  =      3923.45879020
  Solvation  Ediel_sol  =         0.00000000
  ---------------------------------------------------
  free energy    TOTEN  =       -31.34194921 eV

  energy without entropy =      -31.34194921  energy(sigma->0) =      -31.34194921


--------------------------------------------------------------------------------------------------------




--------------------------------------- Iteration      1(   9)  ---------------------------------------


    POTLOK:  cpu time   50.8720: real time   52.0948
    SETDIJ:  cpu time    0.0480: real time    0.0481
     EDDAV:  cpu time   32.2960: real time   32.6099
 BZINTS: Fermi energy: -4.148041; 64.000000 electrons
         Band energy:-513.718607;  BLOECHL correction: -0.005674
       DOS:  cpu time    0.0040: real time    0.0073
    CHARGE:  cpu time    2.1240: real time    2.1238
    MIXING:  cpu time    0.0720: real time    0.0716
    --------------------------------------------
      LOOP:  cpu time   85.4160: real time   86.9556

 eigenvalue-minimisations  :  1424
 total energy-change (2. order) :-0.1183962E+00  (-0.7496779E+00)
 number of electron      63.9999992 magnetization      12.4361316
 augmentation part        4.6217322 magnetization      10.7182834

 Broyden mixing:
  rms(total) = 0.83277E+00    rms(broyden)= 0.83264E+00
  rms(prec ) = 0.83996E+00
  weight for this iteration     100.00

 eigenvalues of (default mixing * dielectric matrix)
  average eigenvalue GAMMA=   0.5908
  0.6478  0.6478  0.5339  0.5339

 Free energy of the ion-electron system (eV)
  ---------------------------------------------------
  alpha Z        PSCENC =        40.05543433
  Ewald energy   TEWEN  =      8065.03639907
  -Hartree energ DENC   =    -11559.98826180
  -exchange      EXHF   =         0.00000000
  -V(xc)+E(xc)   XCENC  =        33.24833767
  PAW double counting   =      2421.47513991    -2441.02757796
  entropy T*S    EENTRO =         0.00000000
  eigenvalues    EBANDS =      -513.71860683
  atomic energy  EATOM  =      3923.45879020
  Solvation  Ediel_sol  =         0.00000000
  ---------------------------------------------------
  free energy    TOTEN  =       -31.46034540 eV

  energy without entropy =      -31.46034540  energy(sigma->0) =      -31.46034540


--------------------------------------------------------------------------------------------------------




--------------------------------------- Iteration      1(  10)  ---------------------------------------


    POTLOK:  cpu time   51.9240: real time   52.1017
    SETDIJ:  cpu time    0.0440: real time    0.0455
     EDDAV:  cpu time   26.6800: real time   26.7987
 BZINTS: Fermi energy: -4.369559; 64.000000 electrons
         Band energy:-535.479807;  BLOECHL correction: -0.019091
       DOS:  cpu time    0.0040: real time    0.0048
    CHARGE:  cpu time    2.1240: real time    2.1329
    MIXING:  cpu time    0.0440: real time    0.0438
    --------------------------------------------
      LOOP:  cpu time   80.8200: real time   81.1274

 eigenvalue-minimisations  :  1152
 total energy-change (2. order) :-0.1645318E+01  (-0.7279883E+00)
 number of electron      63.9999993 magnetization      10.9723507
 augmentation part        6.3553127 magnetization       8.6169235

 Broyden mixing:
  rms(total) = 0.16724E+01    rms(broyden)= 0.16724E+01
  rms(prec ) = 0.17534E+01
  weight for this iteration     100.00

 eigenvalues of (default mixing * dielectric matrix)
  average eigenvalue GAMMA=   0.7059
  1.1452  0.8028  0.5570  0.5570  0.4674

 Free energy of the ion-electron system (eV)
  ---------------------------------------------------
  alpha Z        PSCENC =        40.05543433
  Ewald energy   TEWEN  =      8065.03639907
  -Hartree energ DENC   =    -11541.62120418
  -exchange      EXHF   =         0.00000000
  -V(xc)+E(xc)   XCENC  =        32.61967076
  PAW double counting   =      2394.54991930    -2411.72486599
  entropy T*S    EENTRO =         0.00000000
  eigenvalues    EBANDS =      -535.47980706
  atomic energy  EATOM  =      3923.45879020
  Solvation  Ediel_sol  =         0.00000000
  ---------------------------------------------------
  free energy    TOTEN  =       -33.10566358 eV

  energy without entropy =      -33.10566358  energy(sigma->0) =      -33.10566358


--------------------------------------------------------------------------------------------------------




--------------------------------------- Iteration      1(  11)  ---------------------------------------


    POTLOK:  cpu time   51.9800: real time   52.0981
    SETDIJ:  cpu time    0.0560: real time    0.0558
     EDDAV:  cpu time   30.1320: real time   30.3513
 BZINTS: Fermi energy: -4.138609; 64.000000 electrons
         Band energy:-514.965080;  BLOECHL correction: -0.011916
       DOS:  cpu time    0.0040: real time    0.0053
    CHARGE:  cpu time    2.1120: real time    2.1196
    MIXING:  cpu time    0.0440: real time    0.0436
    --------------------------------------------
      LOOP:  cpu time   84.3280: real time   84.6737

 eigenvalue-minimisations  :  1344
 total energy-change (2. order) : 0.5465213E+00  (-0.9992668E-01)
 number of electron      63.9999993 magnetization       9.2314519
 augmentation part        5.6943417 magnetization       7.5768173

 Broyden mixing:
  rms(total) = 0.97013E+00    rms(broyden)= 0.97011E+00
  rms(prec ) = 0.10119E+01
  weight for this iteration     100.00

 eigenvalues of (default mixing * dielectric matrix)
  average eigenvalue GAMMA=   0.8422
  1.8245  1.0605  0.5239  0.5239  0.5603  0.5603

 Free energy of the ion-electron system (eV)
  ---------------------------------------------------
  alpha Z        PSCENC =        40.05543433
  Ewald energy   TEWEN  =      8065.03639907
  -Hartree energ DENC   =    -11563.52627618
  -exchange      EXHF   =         0.00000000
  -V(xc)+E(xc)   XCENC  =        32.60170127
  PAW double counting   =      2441.14790781    -2456.36801830
  entropy T*S    EENTRO =         0.00000000
  eigenvalues    EBANDS =      -514.96508045
  atomic energy  EATOM  =      3923.45879020
  Solvation  Ediel_sol  =         0.00000000
  ---------------------------------------------------
  free energy    TOTEN  =       -32.55914226 eV

  energy without entropy =      -32.55914226  energy(sigma->0) =      -32.55914226


--------------------------------------------------------------------------------------------------------




--------------------------------------- Iteration      1(  12)  ---------------------------------------


    POTLOK:  cpu time   50.6800: real time   50.9892
    SETDIJ:  cpu time    0.0440: real time    0.0460
     EDDAV:  cpu time   27.6960: real time   27.7692
 BZINTS: Fermi energy: -4.130111; 64.000000 electrons
         Band energy:-524.392217;  BLOECHL correction: -0.015344
       DOS:  cpu time    0.0040: real time    0.0074
    CHARGE:  cpu time    2.1040: real time    2.1053
    MIXING:  cpu time    0.0600: real time    0.0582
    --------------------------------------------
      LOOP:  cpu time   80.5880: real time   80.9753

 eigenvalue-minimisations  :  1216
 total energy-change (2. order) :-0.1895650E+01  (-0.1480502E+00)
 number of electron      63.9999993 magnetization       8.2324931
 augmentation part        6.5354695 magnetization       6.4570246

 Broyden mixing:
  rms(total) = 0.14214E+01    rms(broyden)= 0.14214E+01
  rms(prec ) = 0.15204E+01
  weight for this iteration     100.00

 eigenvalues of (default mixing * dielectric matrix)
  average eigenvalue GAMMA=   0.8976
  1.7631  1.7631  0.5513  0.5513  0.5835  0.5835  0.4878

 Free energy of the ion-electron system (eV)
  ---------------------------------------------------
  alpha Z        PSCENC =        40.05543433
  Ewald energy   TEWEN  =      8065.03639907
  -Hartree energ DENC   =    -11559.48090150
  -exchange      EXHF   =         0.00000000
  -V(xc)+E(xc)   XCENC  =        32.09347343
  PAW double counting   =      2439.08404180    -2450.30981245
  entropy T*S    EENTRO =         0.00000000
  eigenvalues    EBANDS =      -524.39221705
  atomic energy  EATOM  =      3923.45879020
  Solvation  Ediel_sol  =         0.00000000
  ---------------------------------------------------
  free energy    TOTEN  =       -34.45479216 eV

  energy without entropy =      -34.45479216  energy(sigma->0) =      -34.45479216


--------------------------------------------------------------------------------------------------------




--------------------------------------- Iteration      1(  13)  ---------------------------------------


    POTLOK:  cpu time   50.8120: real time   50.9970
    SETDIJ:  cpu time    0.0720: real time    0.0686
     EDDAV:  cpu time   25.9680: real time   26.1904
 BZINTS: Fermi energy: -4.019264; 64.000000 electrons
         Band energy:-513.898523;  BLOECHL correction: -0.006339
       DOS:  cpu time    0.0080: real time    0.0068
    CHARGE:  cpu time    2.0800: real time    2.1516
    MIXING:  cpu time    0.0480: real time    0.0498
    --------------------------------------------
      LOOP:  cpu time   78.9880: real time   79.4641

 eigenvalue-minimisations  :  1136
 total energy-change (2. order) : 0.8621615E+00  (-0.8047085E-01)
 number of electron      63.9999993 magnetization       6.8367413
 augmentation part        5.8809307 magnetization       5.5809308

 Broyden mixing:
  rms(total) = 0.10063E+01    rms(broyden)= 0.10062E+01
  rms(prec ) = 0.10642E+01
  weight for this iteration     100.00

 eigenvalues of (default mixing * dielectric matrix)
  average eigenvalue GAMMA=   0.9327
  2.1307  2.1307  0.5546  0.5546  0.6580  0.6580  0.4923  0.2829

 Free energy of the ion-electron system (eV)
  ---------------------------------------------------
  alpha Z        PSCENC =        40.05543433
  Ewald energy   TEWEN  =      8065.03639907
  -Hartree energ DENC   =    -11569.12706083
  -exchange      EXHF   =         0.00000000
  -V(xc)+E(xc)   XCENC  =        32.23189371
  PAW double counting   =      2451.28460614    -2462.63417005
  entropy T*S    EENTRO =         0.00000000
  eigenvalues    EBANDS =      -513.89852319
  atomic energy  EATOM  =      3923.45879020
  Solvation  Ediel_sol  =         0.00000000
  ---------------------------------------------------
  free energy    TOTEN  =       -33.59263063 eV

  energy without entropy =      -33.59263063  energy(sigma->0) =      -33.59263063


--------------------------------------------------------------------------------------------------------




--------------------------------------- Iteration      1(  14)  ---------------------------------------


    POTLOK:  cpu time   51.0480: real time   51.0804
    SETDIJ:  cpu time    0.0440: real time    0.0459
     EDDAV:  cpu time   28.4960: real time   28.5914
 BZINTS: Fermi energy: -3.835376; 64.000000 electrons
         Band energy:-501.055317;  BLOECHL correction: -0.003625
       DOS:  cpu time    0.0040: real time    0.0069
    CHARGE:  cpu time    2.1040: real time    2.1077
    MIXING:  cpu time    0.0480: real time    0.0454
    --------------------------------------------
      LOOP:  cpu time   81.7440: real time   81.8779

 eigenvalue-minimisations  :  1248
 total energy-change (2. order) : 0.2430608E+00  (-0.1576416E+00)
 number of electron      63.9999992 magnetization       5.1550721
 augmentation part        4.8385610 magnetization       4.3688542

 Broyden mixing:
  rms(total) = 0.51130E+00    rms(broyden)= 0.51084E+00
  rms(prec ) = 0.53186E+00
  weight for this iteration     100.00

 eigenvalues of (default mixing * dielectric matrix)
  average eigenvalue GAMMA=   0.9722
  3.3806  1.6129  0.5627  0.5627  0.7638  0.7638  0.4594  0.4594  0.1847

 Free energy of the ion-electron system (eV)
  ---------------------------------------------------
  alpha Z        PSCENC =        40.05543433
  Ewald energy   TEWEN  =      8065.03639907
  -Hartree energ DENC   =    -11581.37160425
  -exchange      EXHF   =         0.00000000
  -V(xc)+E(xc)   XCENC  =        32.37128786
  PAW double counting   =      2466.60294974    -2478.44750955
  entropy T*S    EENTRO =         0.00000000
  eigenvalues    EBANDS =      -501.05531727
  atomic energy  EATOM  =      3923.45879020
  Solvation  Ediel_sol  =         0.00000000
  ---------------------------------------------------
  free energy    TOTEN  =       -33.34956988 eV

  energy without entropy =      -33.34956988  energy(sigma->0) =      -33.34956988


--------------------------------------------------------------------------------------------------------




--------------------------------------- Iteration      1(  15)  ---------------------------------------


    POTLOK:  cpu time   51.1480: real time   51.1793
    SETDIJ:  cpu time    0.0640: real time    0.0616
     EDDAV:  cpu time   32.5680: real time   32.7554
 BZINTS: Fermi energy: -3.808819; 64.000000 electrons
         Band energy:-500.338275;  BLOECHL correction: -0.003538
       DOS:  cpu time    0.0040: real time    0.0076
    CHARGE:  cpu time    2.1320: real time    2.1311
    MIXING:  cpu time    0.0680: real time    0.0706
    --------------------------------------------
      LOOP:  cpu time   85.9840: real time   86.2055

 eigenvalue-minimisations  :  1456
 total energy-change (2. order) :-0.2867537E+00  (-0.6778187E-01)
 number of electron      63.9999992 magnetization       3.7197391
 augmentation part        4.8798375 magnetization       2.9041874

 Broyden mixing:
  rms(total) = 0.27207E+00    rms(broyden)= 0.27194E+00
  rms(prec ) = 0.28278E+00
  weight for this iteration     100.00

 eigenvalues of (default mixing * dielectric matrix)
  average eigenvalue GAMMA=   1.0744
  4.5482  1.4447  0.9041  0.9041  0.5672  0.5672  0.5719  0.5319  0.5319  0.1729

 Free energy of the ion-electron system (eV)
  ---------------------------------------------------
  alpha Z        PSCENC =        40.05543433
  Ewald energy   TEWEN  =      8065.03639907
  -Hartree energ DENC   =    -11582.55650654
  -exchange      EXHF   =         0.00000000
  -V(xc)+E(xc)   XCENC  =        32.15541207
  PAW double counting   =      2465.26951971    -2476.71709750
  entropy T*S    EENTRO =         0.00000000
  eigenvalues    EBANDS =      -500.33827492
  atomic energy  EATOM  =      3923.45879020
  Solvation  Ediel_sol  =         0.00000000
  ---------------------------------------------------
  free energy    TOTEN  =       -33.63632359 eV

  energy without entropy =      -33.63632359  energy(sigma->0) =      -33.63632359


--------------------------------------------------------------------------------------------------------




--------------------------------------- Iteration      1(  16)  ---------------------------------------


    POTLOK:  cpu time   50.8960: real time   50.9324
    SETDIJ:  cpu time    0.0440: real time    0.0459
     EDDAV:  cpu time   28.3640: real time   28.4152
 BZINTS: Fermi energy: -3.870873; 64.000000 electrons
         Band energy:-506.753045;  BLOECHL correction: -0.003785
       DOS:  cpu time    0.0040: real time    0.0078
    CHARGE:  cpu time    2.1440: real time    2.1438
    MIXING:  cpu time    0.0440: real time    0.0494
    --------------------------------------------
      LOOP:  cpu time   81.4960: real time   81.5946

 eigenvalue-minimisations  :  1248
 total energy-change (2. order) :-0.3491815E+00  (-0.4439163E-01)
 number of electron      63.9999992 magnetization       2.4763443
 augmentation part        5.2438633 magnetization       1.5077953

 Broyden mixing:
  rms(total) = 0.36713E+00    rms(broyden)= 0.36704E+00
  rms(prec ) = 0.39547E+00
  weight for this iteration     100.00

 eigenvalues of (default mixing * dielectric matrix)
  average eigenvalue GAMMA=   1.3951
  7.6442  1.6199  1.6199  0.5663  0.5663  0.7908  0.7908  0.5602  0.5088  0.5088
  0.1706

 Free energy of the ion-electron system (eV)
  ---------------------------------------------------
  alpha Z        PSCENC =        40.05543433
  Ewald energy   TEWEN  =      8065.03639907
  -Hartree energ DENC   =    -11575.42557166
  -exchange      EXHF   =         0.00000000
  -V(xc)+E(xc)   XCENC  =        31.74499068
  PAW double counting   =      2446.45651638    -2458.55901919
  entropy T*S    EENTRO =         0.00000000
  eigenvalues    EBANDS =      -506.75304495
  atomic energy  EATOM  =      3923.45879020
  Solvation  Ediel_sol  =         0.00000000
  ---------------------------------------------------
  free energy    TOTEN  =       -33.98550514 eV

  energy without entropy =      -33.98550514  energy(sigma->0) =      -33.98550514


--------------------------------------------------------------------------------------------------------




--------------------------------------- Iteration      1(  17)  ---------------------------------------


    POTLOK:  cpu time   50.9360: real time   51.0199
    SETDIJ:  cpu time    0.0440: real time    0.0460
     EDDAV:  cpu time   25.7360: real time   25.7744
 BZINTS: Fermi energy: -3.787945; 64.000000 electrons
         Band energy:-503.152514;  BLOECHL correction: -0.005273
       DOS:  cpu time    0.0040: real time    0.0077
    CHARGE:  cpu time    2.1080: real time    2.1132
    MIXING:  cpu time    0.0480: real time    0.0495
    --------------------------------------------
      LOOP:  cpu time   78.8760: real time   79.0106

 eigenvalue-minimisations  :  1120
 total energy-change (2. order) :-0.5673969E-01  (-0.3502645E-01)
 number of electron      63.9999992 magnetization       2.1661401
 augmentation part        4.7706381 magnetization       1.3779458

 Broyden mixing:
  rms(total) = 0.85018E-01    rms(broyden)= 0.84636E-01
  rms(prec ) = 0.90912E-01
  weight for this iteration     100.00

 eigenvalues of (default mixing * dielectric matrix)
  average eigenvalue GAMMA=   1.4897
  8.9538  2.1220  1.4556  0.9035  0.9035  0.5657  0.5657  0.6555  0.5627  0.5091
  0.5091  0.1705

 Free energy of the ion-electron system (eV)
  ---------------------------------------------------
  alpha Z        PSCENC =        40.05543433
  Ewald energy   TEWEN  =      8065.03639907
  -Hartree energ DENC   =    -11578.07860345
  -exchange      EXHF   =         0.00000000
  -V(xc)+E(xc)   XCENC  =        31.67229356
  PAW double counting   =      2446.53263516    -2459.56668015
  entropy T*S    EENTRO =         0.00000000
  eigenvalues    EBANDS =      -503.15251355
  atomic energy  EATOM  =      3923.45879020
  Solvation  Ediel_sol  =         0.00000000
  ---------------------------------------------------
  free energy    TOTEN  =       -34.04224483 eV

  energy without entropy =      -34.04224483  energy(sigma->0) =      -34.04224483


--------------------------------------------------------------------------------------------------------




--------------------------------------- Iteration      1(  18)  ---------------------------------------


    POTLOK:  cpu time   50.7680: real time   51.0141
    SETDIJ:  cpu time    0.0480: real time    0.0471
     EDDAV:  cpu time   25.9360: real time   26.0721
 BZINTS: Fermi energy: -3.796739; 64.000000 electrons
         Band energy:-503.271677;  BLOECHL correction: -0.005097
       DOS:  cpu time    0.0040: real time    0.0077
    CHARGE:  cpu time    2.1200: real time    2.1234
    MIXING:  cpu time    0.0520: real time    0.0493
    --------------------------------------------
      LOOP:  cpu time   78.9280: real time   79.3137

 eigenvalue-minimisations  :  1136
 total energy-change (2. order) :-0.2262377E-01  (-0.5306937E-02)
 number of electron      63.9999992 magnetization       2.0729579
 augmentation part        4.7592903 magnetization       1.2790029

 Broyden mixing:
  rms(total) = 0.81576E-01    rms(broyden)= 0.81567E-01
  rms(prec ) = 0.86418E-01
  weight for this iteration     100.00

 eigenvalues of (default mixing * dielectric matrix)
  average eigenvalue GAMMA=   1.5316
  9.4625  2.6351  1.3374  1.3374  0.5656  0.5656  0.8305  0.8305  0.5066  0.5066
  0.6248  0.5370  0.1705

 Free energy of the ion-electron system (eV)
  ---------------------------------------------------
  alpha Z        PSCENC =        40.05543433
  Ewald energy   TEWEN  =      8065.03639907
  -Hartree energ DENC   =    -11577.70522206
  -exchange      EXHF   =         0.00000000
  -V(xc)+E(xc)   XCENC  =        31.62977120
  PAW double counting   =      2447.24590892    -2460.51427326
  entropy T*S    EENTRO =         0.00000000
  eigenvalues    EBANDS =      -503.27167699
  atomic energy  EATOM  =      3923.45879020
  Solvation  Ediel_sol  =         0.00000000
  ---------------------------------------------------
  free energy    TOTEN  =       -34.06486860 eV

  energy without entropy =      -34.06486860  energy(sigma->0) =      -34.06486860


--------------------------------------------------------------------------------------------------------




--------------------------------------- Iteration      1(  19)  ---------------------------------------


    POTLOK:  cpu time   51.2880: real time   51.3801
    SETDIJ:  cpu time    0.0440: real time    0.0456
     EDDAV:  cpu time   23.4360: real time   23.4732
 BZINTS: Fermi energy: -3.799694; 64.000000 electrons
         Band energy:-503.263259;  BLOECHL correction: -0.004890
       DOS:  cpu time    0.0040: real time    0.0069
    CHARGE:  cpu time    2.1440: real time    2.1496
    MIXING:  cpu time    0.0520: real time    0.0506
    --------------------------------------------
      LOOP:  cpu time   76.9680: real time   77.1059

 eigenvalue-minimisations  :  1008
 total energy-change (2. order) : 0.6164700E-04  (-0.1102187E-02)
 number of electron      63.9999992 magnetization       1.9925729
 augmentation part        4.7714158 magnetization       1.1991005

 Broyden mixing:
  rms(total) = 0.67346E-01    rms(broyden)= 0.67341E-01
  rms(prec ) = 0.71556E-01
  weight for this iteration     100.00

 eigenvalues of (default mixing * dielectric matrix)
  average eigenvalue GAMMA=   1.5800
 10.0696  2.8201  1.5281  1.5281  1.0534  0.5656  0.5656  0.8193  0.8193  0.5069
  0.5069  0.6213  0.5460  0.1705

 Free energy of the ion-electron system (eV)
  ---------------------------------------------------
  alpha Z        PSCENC =        40.05543433
  Ewald energy   TEWEN  =      8065.03639907
  -Hartree energ DENC   =    -11577.63147213
  -exchange      EXHF   =         0.00000000
  -V(xc)+E(xc)   XCENC  =        31.61846770
  PAW double counting   =      2449.38284857    -2462.72201552
  entropy T*S    EENTRO =         0.00000000
  eigenvalues    EBANDS =      -503.26325917
  atomic energy  EATOM  =      3923.45879020
  Solvation  Ediel_sol  =         0.00000000
  ---------------------------------------------------
  free energy    TOTEN  =       -34.06480695 eV

  energy without entropy =      -34.06480695  energy(sigma->0) =      -34.06480695


--------------------------------------------------------------------------------------------------------




--------------------------------------- Iteration      1(  20)  ---------------------------------------


    POTLOK:  cpu time   50.9560: real time   51.0235
    SETDIJ:  cpu time    0.0480: real time    0.0465
     EDDAV:  cpu time   27.0240: real time   27.2777
 BZINTS: Fermi energy: -3.806060; 64.000000 electrons
         Band energy:-503.639559;  BLOECHL correction: -0.004702
       DOS:  cpu time    0.0040: real time    0.0076
    CHARGE:  cpu time    2.1360: real time    2.1421
    MIXING:  cpu time    0.0520: real time    0.0530
    --------------------------------------------
      LOOP:  cpu time   80.2200: real time   80.5504

 eigenvalue-minimisations  :  1184
 total energy-change (2. order) : 0.6225544E-03  (-0.8633832E-03)
 number of electron      63.9999992 magnetization       2.0116594
 augmentation part        4.8401259 magnetization       1.1992203

 Broyden mixing:
  rms(total) = 0.22619E-01    rms(broyden)= 0.22593E-01
  rms(prec ) = 0.22941E-01
  weight for this iteration     100.00

 eigenvalues of (default mixing * dielectric matrix)
  average eigenvalue GAMMA=   1.5622
 10.1131  2.9239  1.6492  1.6492  1.1553  0.5657  0.5657  0.8506  0.8506  0.5064
  0.5064  0.7223  0.6742  0.5305  0.1705

 Free energy of the ion-electron system (eV)
  ---------------------------------------------------
  alpha Z        PSCENC =        40.05543433
  Ewald energy   TEWEN  =      8065.03639907
  -Hartree energ DENC   =    -11577.44006684
  -exchange      EXHF   =         0.00000000
  -V(xc)+E(xc)   XCENC  =        31.59862805
  PAW double counting   =      2450.82487186    -2463.95868197
  entropy T*S    EENTRO =         0.00000000
  eigenvalues    EBANDS =      -503.63955908
  atomic energy  EATOM  =      3923.45879020
  Solvation  Ediel_sol  =         0.00000000
  ---------------------------------------------------
  free energy    TOTEN  =       -34.06418439 eV

  energy without entropy =      -34.06418439  energy(sigma->0) =      -34.06418439


--------------------------------------------------------------------------------------------------------




--------------------------------------- Iteration      1(  21)  ---------------------------------------


    POTLOK:  cpu time   51.5760: real time   51.9332
    SETDIJ:  cpu time    0.0440: real time    0.0458
     EDDAV:  cpu time   28.3440: real time   28.4697
 BZINTS: Fermi energy: -3.808433; 64.000000 electrons
         Band energy:-503.736032;  BLOECHL correction: -0.004721
       DOS:  cpu time    0.0040: real time    0.0073
    CHARGE:  cpu time    2.1080: real time    2.1119
    MIXING:  cpu time    0.0560: real time    0.0532
    --------------------------------------------
      LOOP:  cpu time   82.1320: real time   82.6212

 eigenvalue-minimisations  :  1248
 total energy-change (2. order) :-0.1921355E-02  (-0.2268373E-03)
 number of electron      63.9999992 magnetization       2.0096245
 augmentation part        4.8493993 magnetization       1.2016302

 Broyden mixing:
  rms(total) = 0.91649E-02    rms(broyden)= 0.91607E-02
  rms(prec ) = 0.94750E-02
  weight for this iteration     100.00

 eigenvalues of (default mixing * dielectric matrix)
  average eigenvalue GAMMA=   1.5675
 10.1481  3.0276  1.8333  1.8333  1.3792  0.5657  0.5657  0.9291  0.9291  0.7616
  0.7616  0.5064  0.5064  0.6277  0.5353  0.1705

 Free energy of the ion-electron system (eV)
  ---------------------------------------------------
  alpha Z        PSCENC =        40.05543433
  Ewald energy   TEWEN  =      8065.03639907
  -Hartree energ DENC   =    -11577.44258623
  -exchange      EXHF   =         0.00000000
  -V(xc)+E(xc)   XCENC  =        31.59864625
  PAW double counting   =      2451.40916474    -2464.44592235
  entropy T*S    EENTRO =         0.00000000
  eigenvalues    EBANDS =      -503.73603176
  atomic energy  EATOM  =      3923.45879020
  Solvation  Ediel_sol  =         0.00000000
  ---------------------------------------------------
  free energy    TOTEN  =       -34.06610575 eV

  energy without entropy =      -34.06610575  energy(sigma->0) =      -34.06610575


--------------------------------------------------------------------------------------------------------




--------------------------------------- Iteration      1(  22)  ---------------------------------------


    POTLOK:  cpu time   52.1520: real time   52.5723
    SETDIJ:  cpu time    0.0840: real time    0.0853
     EDDAV:  cpu time   24.4040: real time   25.0525
 BZINTS: Fermi energy: -3.806969; 64.000000 electrons
         Band energy:-503.626986;  BLOECHL correction: -0.004762
       DOS:  cpu time    0.0040: real time    0.0072
    CHARGE:  cpu time    2.1320: real time    2.1387
    MIXING:  cpu time    0.0520: real time    0.0549
    --------------------------------------------
      LOOP:  cpu time   78.8280: real time   79.9110

 eigenvalue-minimisations  :  1072
 total energy-change (2. order) :-0.1688736E-02  (-0.6429978E-04)
 number of electron      63.9999992 magnetization       2.0039769
 augmentation part        4.8334176 magnetization       1.2040089

 Broyden mixing:
  rms(total) = 0.10891E-01    rms(broyden)= 0.10889E-01
  rms(prec ) = 0.11872E-01
  weight for this iteration     100.00

 eigenvalues of (default mixing * dielectric matrix)
  average eigenvalue GAMMA=   1.5694
 10.2015  2.9591  2.3623  1.6706  1.6706  1.0423  1.0423  0.5657  0.5657  0.7970
  0.7970  0.5064  0.5064  0.6434  0.6434  0.5352  0.1705

 Free energy of the ion-electron system (eV)
  ---------------------------------------------------
  alpha Z        PSCENC =        40.05543433
  Ewald energy   TEWEN  =      8065.03639907
  -Hartree energ DENC   =    -11577.58323918
  -exchange      EXHF   =         0.00000000
  -V(xc)+E(xc)   XCENC  =        31.60209648
[...]
     34      -2.2523      0.00000
     35      -1.8864      0.00000
     36      -0.7719      0.00000
     37      -0.1127      0.00000
     38       0.7901      0.00000
     39       0.9162      0.00000
     40       1.5747      0.00000
     41       1.6584      0.00000
     42       1.9982      0.00000
     43       2.1838      0.00000
     44       2.4916      0.00000
     45       2.5146      0.00000
     46       3.2326      0.00000
     47       3.3812      0.00000
     48       3.5365      0.00000

 k-point     5 :      -0.4000    0.2000    0.0000
  band No.  band energies     occupation 
      1     -16.4151      1.00000
      2     -16.3126      1.00000
      3     -15.9057      1.00000
      4     -15.7739      1.00000
      5     -15.6965      1.00000
      6     -15.5040      1.00000
      7     -11.3558      1.00000
      8      -9.5833      1.00000
      9      -7.9277      1.00000
     10      -7.4194      1.00000
     11      -7.4088      1.00000
     12      -6.9185      1.00000
     13      -6.5595      1.00000
     14      -6.4672      1.00000
     15      -6.2219      1.00000
     16      -5.9493      1.00000
     17      -5.8403      1.00000
     18      -5.6989      1.00000
     19      -5.6519      1.00000
     20      -5.5056      1.00000
     21      -5.2775      1.00000
     22      -4.8272      1.00000
     23      -4.6150      1.00000
     24      -4.4685      1.00000
     25      -4.4155      1.00000
     26      -4.2577      1.00000
     27      -4.1179      1.00000
     28      -4.0497      1.00000
     29      -3.9423      1.00000
     30      -3.8782      1.00000
     31      -3.7350      1.00000
     32      -2.7050      1.00000
     33      -2.5506      0.28071
     34      -2.2933      0.00000
     35      -1.8805      0.00000
     36      -1.2464      0.00000
     37      -0.2952      0.00000
     38       0.4390      0.00000
     39       0.5993      0.00000
     40       1.3013      0.00000
     41       1.4439      0.00000
     42       1.6347      0.00000
     43       2.6605      0.00000
     44       2.7488      0.00000
     45       2.7933      0.00000
     46       2.9756      0.00000
     47       3.1924      0.00000
     48       3.7816      0.00000


--------------------------------------------------------------------------------------------------------


 soft charge-density along one line, spin component           1
         0         1         2         3         4         5         6         7         8         9
 total charge-density along one line

 soft charge-density along one line, spin component           2
         0         1         2         3         4         5         6         7         8         9
 total charge-density along one line

 pseudopotential strength for first ion, spin component:           1
-10.760  -0.119   0.000  -0.013   0.000   1.470   0.050  -0.000
 -0.119 -10.904   0.000   0.000  -0.013   0.050   1.530  -0.000
  0.000   0.000 -10.696   0.000   0.000  -0.000  -0.000   1.443
 -0.013   0.000   0.000 -10.904   0.119   0.006  -0.000  -0.000
  0.000  -0.013   0.000   0.119 -10.760  -0.000   0.006  -0.000
  1.470   0.050  -0.000   0.006  -0.000   0.704  -0.021   0.000
  0.050   1.530  -0.000  -0.000   0.006  -0.021   0.679   0.000
 -0.000  -0.000   1.443  -0.000  -0.000   0.000   0.000   0.716
  0.006  -0.000  -0.000   1.530  -0.050  -0.002  -0.000   0.000
 -0.000   0.006  -0.000  -0.050   1.470   0.000  -0.002   0.000
  0.000  -0.000   0.006  -0.000   0.000  -0.000  -0.000  -0.001
 -0.000   0.000  -0.000   0.000  -0.000   0.000  -0.000   0.000
  0.001   0.003   0.000  -0.000   0.000  -0.000  -0.001  -0.000
 -0.000  -0.000   0.002  -0.000  -0.000  -0.000   0.000  -0.001
  0.000  -0.000   0.000   0.003  -0.001   0.000  -0.000  -0.000
 -0.000  -0.001  -0.000   0.000  -0.001   0.000   0.000   0.000
  0.000   0.000  -0.000   0.000   0.000  -0.000  -0.000   0.000
 -0.001   0.000  -0.000  -0.001   0.000   0.000  -0.000   0.000
 pseudopotential strength for first ion, spin component:           2
-10.441   0.003   0.000  -0.001   0.000   1.334   0.001  -0.000
  0.003 -10.441  -0.000   0.000  -0.001   0.001   1.335   0.000
  0.000  -0.000 -10.457   0.000   0.000  -0.000   0.000   1.338
 -0.001   0.000   0.000 -10.441  -0.003   0.001  -0.000  -0.000
  0.000  -0.001   0.000  -0.003 -10.441  -0.000   0.001  -0.000
  1.334   0.001  -0.000   0.001  -0.000   0.762  -0.002   0.000
  0.001   1.335   0.000  -0.000   0.001  -0.002   0.761   0.000
 -0.000   0.000   1.338  -0.000  -0.000   0.000   0.000   0.762
  0.001  -0.000  -0.000   1.335  -0.001  -0.000   0.000   0.000
 -0.000   0.001  -0.000  -0.001   1.334   0.000  -0.000   0.000
  0.000  -0.000   0.000  -0.000   0.000  -0.000  -0.000   0.000
  0.000   0.000  -0.000   0.000  -0.000  -0.000  -0.000   0.000
  0.000   0.002   0.000  -0.000  -0.000  -0.000  -0.000  -0.000
 -0.000  -0.000   0.002  -0.000  -0.000  -0.000   0.000  -0.000
 -0.000  -0.000   0.000   0.002  -0.000   0.001  -0.000  -0.000
 -0.000  -0.001  -0.000   0.000  -0.000   0.000   0.000   0.000
  0.000   0.000  -0.000   0.000   0.000  -0.000  -0.000  -0.000
 -0.000   0.000  -0.000  -0.001   0.000   0.000  -0.000   0.000
 total augmentation occupancy for first ion, spin component:           1
  1.810  -0.174   0.000  -0.021  -0.000   0.014   0.093  -0.000   0.012  -0.000  -0.000  -0.000   0.007   0.000   0.003  -0.000
 -0.174   1.651  -0.000  -0.000  -0.021   0.092   0.106   0.000   0.000   0.012  -0.000  -0.000   0.013  -0.000   0.003  -0.001
  0.000  -0.000   1.946  -0.000  -0.000  -0.000   0.000  -0.062   0.000   0.000  -0.014  -0.007   0.000   0.002   0.000   0.000
 -0.021  -0.000  -0.000   1.651   0.174   0.012  -0.000   0.000   0.106  -0.092   0.000  -0.000  -0.003   0.000   0.013   0.000
 -0.000  -0.021  -0.000   0.174   1.810   0.000   0.012   0.000  -0.093   0.014   0.000   0.000   0.003  -0.000  -0.007  -0.001
  0.014   0.092  -0.000   0.012   0.000   0.072   0.047   0.000   0.005  -0.000   0.000  -0.000   0.001   0.000   0.019  -0.000
  0.093   0.106   0.000  -0.000   0.012   0.047   0.130   0.000  -0.000   0.005   0.000   0.000   0.010   0.000  -0.001  -0.001
 -0.000   0.000  -0.062   0.000   0.000   0.000   0.000   0.063   0.000  -0.000   0.031  -0.014  -0.000   0.005   0.000   0.000
  0.012   0.000   0.000   0.106  -0.093   0.005  -0.000   0.000   0.130  -0.047   0.000   0.000   0.001   0.000   0.010  -0.000
 -0.000   0.012   0.000  -0.092   0.014  -0.000   0.005  -0.000  -0.047   0.072  -0.000   0.000   0.019  -0.000  -0.001  -0.002
 -0.000  -0.000  -0.014   0.000   0.000   0.000   0.000   0.031   0.000  -0.000   1.016  -0.283  -0.000   0.021   0.000  -0.000
 -0.000  -0.000  -0.007   0.000   0.000  -0.000   0.000  -0.014   0.000   0.000  -0.283   0.139  -0.000  -0.008   0.000   0.000
  0.007   0.013   0.000  -0.003   0.003   0.001   0.010  -0.000   0.001   0.019   0.000  -0.000   0.187   0.000  -0.000  -0.014
  0.000   0.000   0.002   0.000  -0.000   0.000   0.000   0.005  -0.000  -0.000   0.021  -0.008   0.000   0.199  -0.000  -0.000
  0.003   0.003   0.000   0.013  -0.007   0.019  -0.001   0.000   0.010  -0.001   0.000   0.000  -0.000  -0.000   0.187  -0.000
 -0.000  -0.001   0.000   0.000  -0.001  -0.000  -0.001   0.000  -0.000  -0.002   0.000   0.000  -0.014  -0.000  -0.000   0.002
 -0.000  -0.000  -0.001   0.000   0.000  -0.000   0.000  -0.001   0.000   0.000  -0.002   0.001  -0.000  -0.016   0.000   0.000
 -0.001  -0.000  -0.000  -0.001   0.000  -0.002   0.000  -0.000  -0.001   0.000   0.000  -0.000   0.000   0.000  -0.014  -0.000
 total augmentation occupancy for first ion, spin component:           2
  0.038   0.069   0.000   0.007  -0.000  -0.037  -0.033  -0.000  -0.003  -0.000  -0.000   0.000  -0.001  -0.000  -0.003   0.000
  0.069   0.121   0.000  -0.000   0.007  -0.034  -0.080  -0.000  -0.000  -0.003   0.000   0.000  -0.003   0.000  -0.004  -0.000
  0.000   0.000  -0.005   0.000  -0.000  -0.000  -0.000  -0.017  -0.000   0.000  -0.000   0.001   0.000  -0.000  -0.000   0.000
  0.007  -0.000   0.000   0.121  -0.069  -0.003   0.000  -0.000  -0.080   0.034  -0.000  -0.000   0.004  -0.000  -0.003  -0.000
 -0.000   0.007  -0.000  -0.069   0.038   0.000  -0.003   0.000   0.033  -0.037   0.000  -0.000  -0.003   0.000   0.001  -0.000
 -0.037  -0.034  -0.000  -0.003   0.000   0.008   0.012   0.000   0.001  -0.000   0.000   0.000   0.000  -0.000   0.002   0.000
 -0.033  -0.080  -0.000   0.000  -0.003   0.012   0.025   0.000  -0.000   0.001   0.000   0.000   0.001  -0.000   0.002   0.000
 -0.000  -0.000  -0.017  -0.000   0.000   0.000   0.000   0.001   0.000  -0.000   0.001   0.000  -0.000  -0.000   0.000  -0.000
 -0.003  -0.000  -0.000  -0.080   0.033   0.001  -0.000   0.000   0.025  -0.012   0.000   0.000  -0.002   0.000   0.001   0.000
 -0.000  -0.003   0.000   0.034  -0.037  -0.000   0.001  -0.000  -0.012   0.008  -0.000  -0.000   0.002   0.000  -0.000   0.000
 -0.000   0.000  -0.000  -0.000   0.000   0.000   0.000   0.001   0.000  -0.000   0.007   0.015   0.000   0.000  -0.000  -0.000
  0.000   0.000   0.001  -0.000  -0.000   0.000   0.000   0.000   0.000  -0.000   0.015  -0.008  -0.000   0.000   0.000   0.000
 -0.001  -0.003   0.000   0.004  -0.003   0.000   0.001  -0.000  -0.002   0.002   0.000  -0.000   0.000  -0.000  -0.000   0.001
 -0.000   0.000  -0.000  -0.000   0.000  -0.000   0.000  -0.000   0.000   0.000   0.000   0.000  -0.000   0.000   0.000   0.000
 -0.003  -0.004  -0.000  -0.003   0.001   0.002   0.002   0.000   0.001  -0.000  -0.000   0.000  -0.000  -0.000   0.000   0.000
  0.000  -0.000   0.000  -0.000  -0.000   0.000   0.000  -0.000   0.000   0.000   0.000  -0.000   0.001   0.000   0.000  -0.000
 -0.000  -0.000  -0.000   0.000   0.000   0.000   0.000   0.000   0.000  -0.000   0.000  -0.000   0.000   0.001  -0.000  -0.000
 -0.000   0.000  -0.000  -0.000  -0.000   0.000  -0.000   0.000   0.000  -0.000   0.000   0.000  -0.000  -0.000   0.001   0.000


------------------------ aborting loop because EDIFF is reached ----------------------------------------





 total charge     

# of ion       s       p       d       tot
------------------------------------------
    1        0.393   0.438   8.339   9.170
    2        0.394   0.439   8.338   9.170
    3        0.759   0.851   0.000   1.610
    4        1.166   1.143   0.095   2.404
    5        1.498   2.217   0.043   3.758
    6        1.496   2.288   0.042   3.826
    7        1.495   2.225   0.043   3.763
    8        1.491   2.245   0.043   3.780
    9        1.488   2.322   0.044   3.853
   10        1.488   2.260   0.044   3.792
--------------------------------------------------
tot         11.668  16.427  17.030  45.125



 magnetization (x)

# of ion       s       p       d       tot
------------------------------------------
    1        0.000  -0.001   0.423   0.422
    2       -0.000   0.001  -0.420  -0.419
    3       -0.000   0.000   0.000   0.000
    4        0.000  -0.000   0.000  -0.000
    5        0.001   0.029   0.000   0.030
    6        0.000   0.008   0.000   0.009
    7       -0.001  -0.037  -0.000  -0.038
    8       -0.001  -0.026  -0.000  -0.027
    9        0.000  -0.007  -0.000  -0.007
   10        0.001   0.032   0.000   0.034
--------------------------------------------------
tot          0.000   0.001   0.003   0.004

    CHARGE:  cpu time    2.1160: real time    2.1917
    FORLOC:  cpu time    0.0600: real time    0.0621
    FORNL :  cpu time    6.8080: real time    6.8220
    STRESS:  cpu time   20.3280: real time   20.3730
    FORCOR:  cpu time   51.7040: real time   51.8254
    FORHAR:  cpu time    0.3280: real time    0.3291
    MIXING:  cpu time    0.0440: real time    0.0428
    OFIELD:  cpu time    0.0000: real time    0.0000

  FORCE on cell =-STRESS in cart. coord.  units (eV):
  Direction    XX          YY          ZZ          XY          YZ          ZX
  --------------------------------------------------------------------------------------
  Alpha Z    52.51505    52.51505    52.51505
  Ewald   11840.01766 11840.01556-13982.85668    -0.00244    -0.00056    -0.00102
  Hartree 12593.35888 12593.36011-11946.73298    -0.00058     0.00008     0.00013
  E(xc)    -273.51887  -273.51885  -273.26389     0.00000     0.00001     0.00000
  Local  -25155.36220-25155.36255 25179.04757     0.00263     0.00030     0.00057
  n-local   240.12345   241.08907   241.90678     0.54196     0.52896     0.49575
  augment    75.27711    75.27726    71.87522     0.00002     0.00004     0.00005
  Kinetic   631.78112   621.60066   657.61800    -5.70139    -1.97210    -1.70883
  Fock        0.00000     0.00000     0.00000     0.00000     0.00000     0.00000
  -------------------------------------------------------------------------------------
  Total      -0.41575    -0.41575     0.10908     0.00000     0.00000     0.00000
  in kB      -0.90139    -0.90139     0.23649     0.00000     0.00000     0.00000
  external pressure =       -0.52 kB  Pullay stress =        0.00 kB


 VOLUME and BASIS-vectors are now :
 -----------------------------------------------------------------------------
  energy-cutoff  :      520.00
  volume of cell :      738.97
      direct lattice vectors                 reciprocal lattice vectors
     6.228077733  0.000000250 -0.000000000     0.160563189 -0.092701186  0.000000000
     3.114038298  5.393673401  0.000000000    -0.000000007  0.185402406 -0.000000000
    -0.000000000  0.000000000 21.998284899     0.000000000 -0.000000000  0.045458089

  length of vectors
     6.228077733  6.228077334 21.998284899     0.185402394  0.185402406  0.045458089


 FORCES acting on ions
    electron-ion (+dipol)            ewald-force                    non-local-force                 convergence-correction
 -----------------------------------------------------------------------------------------------
   0.895E-04 0.356E-04 0.631E+01   0.784E-03 0.472E-03 -.639E+01   -.619E-20 0.278E-16 0.402E-01   0.617E-06 0.230E-06 -.632E-02
   -.976E-04 -.508E-04 0.486E+01   -.791E-03 -.476E-03 -.492E+01   -.278E-16 0.278E-16 0.215E-01   -.313E-06 -.765E-07 -.835E-02
   -.436E-04 0.155E-05 0.250E+03   -.189E-03 -.105E-03 -.246E+03   -.133E-16 0.121E-16 -.407E+01   -.464E-07 -.414E-07 0.131E-01
   0.506E-04 0.219E-04 -.240E+03   0.173E-03 0.967E-04 0.237E+03   -.393E-17 -.559E-17 0.300E+01   -.746E-07 -.423E-07 -.159E-01
   -.356E+02 -.106E+00 -.528E+03   0.338E+02 0.124E+00 0.531E+03   0.182E+01 -.385E-02 -.214E+01   -.634E-02 -.140E-01 -.372E-01
   0.177E+02 0.309E+02 -.528E+03   -.168E+02 -.294E+02 0.531E+03   -.914E+00 -.158E+01 -.214E+01   -.892E-02 0.125E-01 -.372E-01
   0.179E+02 -.308E+02 -.528E+03   -.170E+02 0.292E+02 0.531E+03   -.908E+00 0.158E+01 -.214E+01   0.153E-01 0.149E-02 -.372E-01
   0.281E+02 -.176E+00 0.522E+03   -.261E+02 0.193E+00 -.524E+03   -.198E+01 0.556E-02 0.212E+01   0.566E-02 -.134E-01 0.340E-01
   -.142E+02 -.242E+02 0.522E+03   0.132E+02 0.225E+02 -.524E+03   0.994E+00 0.171E+01 0.212E+01   -.144E-01 0.178E-02 0.340E-01
   -.139E+02 0.244E+02 0.522E+03   0.129E+02 -.227E+02 -.524E+03   0.984E+00 -.172E+01 0.212E+01   0.874E-02 0.116E-01 0.340E-01
 -----------------------------------------------------------------------------------------------
   -.343E-04 0.475E-04 0.110E+01   0.355E-14 0.142E-13 0.227E-12   0.000E+00 -.666E-15 -.107E+01   0.233E-06 0.983E-07 -.273E-01


 POSITION                                       TOTAL-FORCE (eV/Angst)
 -----------------------------------------------------------------------------------
      3.11404      1.79789     11.01103         0.000000     -0.000000     -0.043244
      6.22808      3.59578     11.01300         0.000000     -0.000000     -0.046734
     -0.00000      0.00000      9.78113         0.000000     -0.000000     -0.065886
     -0.00000      0.00000     12.13830         0.000000      0.000000      0.341481
      3.81435      0.00022     12.54928         0.030411      0.000823     -0.052319
      1.20705      2.09025     12.54928        -0.014493     -0.026748     -0.052319
      4.32072      3.30322     12.54928        -0.015918      0.025925     -0.052319
      5.41157      5.39193      9.44757        -0.033071      0.008281     -0.009554
      8.19184      3.40482      9.44757         0.023707      0.024500     -0.009554
      5.08082      1.99059      9.44757         0.009364     -0.032781     -0.009554
 -----------------------------------------------------------------------------------
    total drift:                               -0.000034      0.000048     -0.004904


--------------------------------------------------------------------------------------------------------



  FREE ENERGIE OF THE ION-ELECTRON SYSTEM (eV)
  ---------------------------------------------------
  free  energy   TOTEN  =       -37.69515347 eV

  energy  without entropy=      -37.69515347  energy(sigma->0) =      -37.69515347

 d Force =-0.3756030E-03[-0.719E-03,-0.324E-04]  d Energy = 0.1754378E-02-0.213E-02
 d Force =-0.1419687E+01[-0.142E+01,-0.142E+01]  d Ewald  =-0.7633390E+01 0.621E+01


--------------------------------------------------------------------------------------------------------


    POTLOK:  cpu time   51.6440: real time   51.9111


--------------------------------------------------------------------------------------------------------




--------------------------------------------------------------------------------------------------------


  
 reached required accuracy - stopping structural energy minimisation
     LOOP+:  cpu time  681.1960: real time  684.7160
    4ORBIT:  cpu time    0.0000: real time    0.0000



 total charge     

# of ion       s       p       d       tot
------------------------------------------
    1        0.393   0.438   8.339   9.170
    2        0.394   0.439   8.338   9.170
    3        0.759   0.851   0.000   1.610
    4        1.166   1.143   0.095   2.404
    5        1.498   2.217   0.043   3.758
    6        1.496   2.288   0.042   3.826
    7        1.495   2.225   0.043   3.763
    8        1.491   2.245   0.043   3.780
    9        1.488   2.322   0.044   3.853
   10        1.488   2.260   0.044   3.792
--------------------------------------------------
tot         11.668  16.427  17.030  45.125



 magnetization (x)

# of ion       s       p       d       tot
------------------------------------------
    1        0.000  -0.001   0.423   0.422
    2       -0.000   0.001  -0.420  -0.419
    3       -0.000   0.000   0.000   0.000
    4        0.000  -0.000   0.000  -0.000
    5        0.001   0.029   0.000   0.030
    6        0.000   0.008   0.000   0.009
    7       -0.001  -0.037  -0.000  -0.038
    8       -0.001  -0.026  -0.000  -0.027
    9        0.000  -0.007  -0.000  -0.007
   10        0.001   0.032   0.000   0.034
--------------------------------------------------
tot          0.000   0.001   0.003   0.004

 BZINTS: Fermi energy: -2.546624; 64.000000 electrons
         Band energy:-489.664664;  BLOECHL correction: -0.013724

 total amount of memory used by VASP MPI-rank0   132340. kBytes
=======================================================================

   base      :      30000. kBytes
   nonlr-proj:       9840. kBytes
   fftplans  :      11247. kBytes
   grid      :      68332. kBytes
   one-center:        311. kBytes
   wavefun   :      12610. kBytes

  
  
 General timing and accounting informations for this job:
 ========================================================
  
                  Total CPU time used (sec):    12366.912
                            User time (sec):    12098.380
                          System time (sec):      268.532
                         Elapsed time (sec):    12436.348
  
                   Maximum memory used (kb):      386664.
                   Average memory used (kb):           0.
  
                          Minor page faults:      7740549
                          Major page faults:            7
                 Voluntary context switches:         1099
