PROCAR lm decomposed
# of k-points:    5         # of bands:   48         # of ions:   10

 k-point     1 :    0.00000000 0.00000000 0.00000000     weight = 0.04000000

band     1 # energy  -17.26769039 # occ.  1.00000000

ion      s     py     pz     px    dxy    dyz    dz2    dxz  x2-y2    tot
    1  0.018  0.000  0.000  0.000  0.000  0.000  0.000  0.000  0.000  0.018
    2  0.018  0.000  0.000  0.000  0.000  0.000  0.000  0.000  0.000  0.018
    3  0.030  0.000  0.000  0.000  0.000  0.000  0.000  0.000  0.000  0.030
    4  0.047  0.000  0.000  0.000  0.000  0.000  0.000  0.000  0.000  0.048
    5  0.100  0.000  0.001  0.000  0.000  0.000  0.000  0.000  0.000  0.101
    6  0.100  0.000  0.001  0.000  0.000  0.000  0.000  0.000  0.000  0.101
    7  0.100  0.000  0.001  0.000  0.000  0.000  0.000  0.000  0.000  0.101
    8  0.084  0.000  0.001  0.000  0.000  0.000  0.000  0.000  0.000  0.085
    9  0.084  0.000  0.001  0.000  0.000  0.000  0.000  0.000  0.000  0.085
   10  0.084  0.000  0.001  0.000  0.000  0.000  0.000  0.000  0.000  0.085
tot    0.665  0.001  0.005  0.001  0.000  0.000  0.000  0.000  0.000  0.672

band     2 # energy  -16.37828141 # occ.  1.00000000

ion      s     py     pz     px    dxy    dyz    dz2    dxz  x2-y2    tot
    1  0.000  0.000  0.007  0.000  0.000  0.000  0.000  0.000  0.000  0.007
    2  0.000  0.000  0.007  0.000  0.000  0.000  0.000  0.000  0.000  0.007
    3  0.026  0.000  0.001  0.000  0.000  0.000  0.000  0.000  0.000  0.027
    4  0.023  0.000  0.001  0.000  0.000  0.000  0.001  0.000  0.000  0.025
    5  0.100  0.000  0.000  0.000  0.000  0.000  0.000  0.000  0.000  0.100
    6  0.100  0.000  0.000  0.000  0.000  0.000  0.000  0.000  0.000  0.100
    7  0.100  0.000  0.000  0.000  0.000  0.000  0.000  0.000  0.000  0.100
    8  0.114  0.000  0.000  0.001  0.000  0.000  0.000  0.000  0.000  0.115
    9  0.114  0.001  0.000  0.000  0.000  0.000  0.000  0.000  0.000  0.115
   10  0.114  0.001  0.000  0.000  0.000  0.000  0.000  0.000  0.000  0.115
tot    0.688  0.001  0.017  0.001  0.000  0.000  0.002  0.000  0.000  0.710

band     3 # energy  -15.38639967 # occ.  1.00000000

ion      s     py     pz     px    dxy    dyz    dz2    dxz  x2-y2    tot
    1  0.000  0.007  0.000  0.000  0.000  0.000  0.000  0.001  0.001  0.010
    2  0.000  0.006  0.000  0.001  0.000  0.000  0.000  0.001  0.001  0.010
    3  0.000  0.001  0.000  0.008  0.000  0.000  0.000  0.000  0.000  0.009
    4  0.000  0.000  0.000  0.003  0.000  0.000  0.000  0.000  0.001  0.005
    5  0.161  0.000  0.001  0.000  0.000  0.000  0.000  0.000  0.000  0.162
    6  0.095  0.000  0.000  0.000  0.000  0.000  0.000  0.000  0.000  0.096
    7  0.009  0.000  0.000  0.000  0.000  0.000  0.000  0.000  0.000  0.009
    8  0.286  0.000  0.001  0.001  0.000  0.000  0.000  0.000  0.000  0.288
    9  0.160  0.000  0.001  0.000  0.000  0.000  0.000  0.000  0.000  0.161
   10  0.018  0.000  0.000  0.000  0.000  0.000  0.000  0.000  0.000  0.018
tot    0.729  0.014  0.003  0.014  0.001  0.000  0.000  0.002  0.004  0.766

band     4 # energy  -15.38636467 # occ.  1.00000000

ion      s     py     pz     px    dxy    dyz    dz2    dxz  x2-y2    tot
    1  0.000  0.000  0.000  0.007  0.001  0.001  0.000  0.000  0.000  0.010
    2  0.000  0.001  0.000  0.006  0.001  0.001  0.000  0.000  0.000  0.010
    3  0.000  0.008  0.000  0.001  0.000  0.000  0.000  0.000  0.000  0.009
    4  0.000  0.003  0.000  0.000  0.001  0.000  0.000  0.000  0.000  0.005
    5  0.016  0.000  0.000  0.000  0.000  0.000  0.000  0.000  0.000  0.016
    6  0.081  0.000  0.000  0.000  0.000  0.000  0.000  0.000  0.000  0.082
    7  0.168  0.000  0.001  0.000  0.000  0.000  0.000  0.000  0.000  0.169
    8  0.023  0.000  0.000  0.000  0.000  0.000  0.000  0.000  0.000  0.024
    9  0.149  0.000  0.000  0.000  0.000  0.000  0.000  0.000  0.000  0.150
   10  0.291  0.001  0.001  0.000  0.000  0.000  0.000  0.000  0.000  0.293
tot    0.729  0.014  0.003  0.014  0.004  0.002  0.000  0.000  0.001  0.766

band     5 # energy  -15.27471681 # occ.  1.00000000

ion      s     py     pz     px    dxy    dyz    dz2    dxz  x2-y2    tot
    1  0.000  0.000  0.000  0.002  0.002  0.006  0.000  0.000  0.000  0.010
    2  0.000  0.001  0.000  0.001  0.002  0.006  0.000  0.000  0.000  0.010
    3  0.000  0.000  0.000  0.007  0.000  0.000  0.000  0.000  0.000  0.007
    4  0.000  0.000  0.000  0.012  0.000  0.000  0.000  0.000  0.001  0.013
    5  0.304  0.000  0.001  0.001  0.000  0.000  0.000  0.000  0.000  0.306
    6  0.124  0.000  0.000  0.000  0.000  0.000  0.000  0.000  0.000  0.125
    7  0.039  0.000  0.000  0.000  0.000  0.000  0.000  0.000  0.000  0.040
    8  0.170  0.000  0.000  0.001  0.000  0.000  0.000  0.000  0.000  0.172
    9  0.065  0.000  0.000  0.000  0.000  0.000  0.000  0.000  0.000  0.066
   10  0.025  0.000  0.000  0.000  0.000  0.000  0.000  0.000  0.000  0.025
tot    0.727  0.002  0.001  0.024  0.004  0.012  0.000  0.000  0.002  0.773

band     6 # energy  -15.27467548 # occ.  1.00000000

ion      s     py     pz     px    dxy    dyz    dz2    dxz  x2-y2    tot
    1  0.000  0.002  0.000  0.000  0.000  0.000  0.000  0.006  0.002  0.010
    2  0.000  0.001  0.000  0.001  0.000  0.000  0.000  0.006  0.002  0.010
    3  0.000  0.007  0.000  0.000  0.000  0.000  0.000  0.000  0.000  0.007
    4  0.000  0.012  0.000  0.000  0.001  0.000  0.000  0.000  0.000  0.013
    5  0.008  0.000  0.000  0.000  0.000  0.000  0.000  0.000  0.000  0.008
    6  0.187  0.001  0.000  0.000  0.000  0.000  0.000  0.000  0.000  0.189
    7  0.272  0.001  0.001  0.000  0.000  0.000  0.000  0.000  0.000  0.274
    8  0.003  0.000  0.000  0.000  0.000  0.000  0.000  0.000  0.000  0.003
    9  0.108  0.001  0.000  0.000  0.000  0.000  0.000  0.000  0.000  0.109
   10  0.148  0.001  0.000  0.000  0.000  0.000  0.000  0.000  0.000  0.150
tot    0.727  0.024  0.001  0.002  0.002  0.000  0.000  0.012  0.004  0.773

band     7 # energy  -11.62801170 # occ.  1.00000000

ion      s     py     pz     px    dxy    dyz    dz2    dxz  x2-y2    tot
    1  0.010  0.000  0.000  0.000  0.000  0.000  0.001  0.000  0.000  0.011
    2  0.010  0.000  0.000  0.000  0.000  0.000  0.001  0.000  0.000  0.011
    3  0.117  0.000  0.011  0.000  0.000  0.000  0.000  0.000  0.000  0.127
    4  0.323  0.000  0.011  0.000  0.000  0.000  0.001  0.000  0.000  0.334
    5  0.017  0.000  0.000  0.016  0.000  0.000  0.000  0.000  0.001  0.034
    6  0.017  0.012  0.000  0.004  0.001  0.000  0.000  0.000  0.000  0.034
    7  0.017  0.012  0.000  0.004  0.001  0.000  0.000  0.000  0.000  0.034
    8  0.012  0.000  0.000  0.011  0.000  0.000  0.000  0.000  0.001  0.025
    9  0.012  0.008  0.000  0.003  0.001  0.000  0.000  0.000  0.000  0.025
   10  0.012  0.009  0.000  0.003  0.001  0.000  0.000  0.000  0.000  0.025
tot    0.546  0.040  0.022  0.040  0.003  0.001  0.003  0.001  0.003  0.659

band     8 # energy   -9.33624680 # occ.  1.00000000

ion      s     py     pz     px    dxy    dyz    dz2    dxz  x2-y2    tot
    1  0.001  0.000  0.007  0.000  0.000  0.000  0.000  0.000  0.000  0.008
    2  0.001  0.000  0.007  0.000  0.000  0.000  0.000  0.000  0.000  0.008
    3  0.192  0.000  0.007  0.000  0.000  0.000  0.000  0.000  0.000  0.199
    4  0.158  0.000  0.011  0.000  0.000  0.000  0.001  0.000  0.000  0.170
    5  0.008  0.000  0.000  0.017  0.000  0.000  0.000  0.000  0.001  0.026
    6  0.008  0.013  0.000  0.004  0.001  0.000  0.000  0.000  0.000  0.026
    7  0.008  0.013  0.000  0.004  0.001  0.000  0.000  0.000  0.000  0.026
    8  0.011  0.000  0.000  0.043  0.000  0.000  0.000  0.000  0.002  0.057
    9  0.011  0.032  0.000  0.011  0.002  0.000  0.000  0.000  0.001  0.057
   10  0.011  0.033  0.000  0.011  0.002  0.000  0.000  0.000  0.001  0.057
tot    0.408  0.090  0.033  0.090  0.005  0.000  0.002  0.000  0.005  0.633

band     9 # energy   -8.06912466 # occ.  1.00000000

ion      s     py     pz     px    dxy    dyz    dz2    dxz  x2-y2    tot
    1  0.090  0.000  0.001  0.000  0.000  0.000  0.019  0.000  0.000  0.110
    2  0.083  0.000  0.001  0.000  0.000  0.000  0.018  0.000  0.000  0.102
    3  0.000  0.000  0.000  0.000  0.000  0.000  0.000  0.000  0.000  0.000
    4  0.000  0.000  0.000  0.000  0.000  0.000  0.000  0.000  0.000  0.000
    5  0.000  0.080  0.000  0.000  0.001  0.001  0.000  0.000  0.000  0.081
    6  0.000  0.020  0.000  0.061  0.000  0.000  0.000  0.000  0.000  0.081
    7  0.000  0.020  0.000  0.060  0.000  0.000  0.000  0.000  0.000  0.081
    8  0.000  0.036  0.000  0.000  0.000  0.000  0.000  0.000  0.000  0.037
    9  0.000  0.009  0.000  0.027  0.000  0.000  0.000  0.000  0.000  0.037
   10  0.000  0.009  0.000  0.028  0.000  0.000  0.000  0.000  0.000  0.037
tot    0.172  0.175  0.003  0.175  0.001  0.002  0.037  0.002  0.001  0.567

band    10 # energy   -7.89905281 # occ.  1.00000000

ion      s     py     pz     px    dxy    dyz    dz2    dxz  x2-y2    tot
    1  0.000  0.002  0.000  0.002  0.002  0.031  0.000  0.016  0.001  0.054
    2  0.000  0.002  0.000  0.003  0.002  0.015  0.000  0.019  0.002  0.042
    3  0.000  0.016  0.000  0.021  0.000  0.000  0.000  0.000  0.000  0.037
    4  0.000  0.028  0.000  0.033  0.000  0.000  0.000  0.000  0.000  0.061
    5  0.003  0.012  0.001  0.045  0.000  0.000  0.000  0.000  0.000  0.062
    6  0.005  0.069  0.002  0.010  0.000  0.000  0.000  0.000  0.000  0.087
    7  0.000  0.000  0.000  0.027  0.000  0.000  0.000  0.000  0.000  0.029
    8  0.004  0.009  0.002  0.038  0.000  0.000  0.000  0.000  0.000  0.054
    9  0.007  0.057  0.003  0.007  0.000  0.000  0.000  0.000  0.000  0.075
   10  0.000  0.001  0.000  0.023  0.000  0.000  0.000  0.000  0.000  0.025
tot    0.020  0.197  0.009  0.209  0.005  0.046  0.000  0.036  0.004  0.527

band    11 # energy   -7.89902954 # occ.  1.00000000

ion      s     py     pz     px    dxy    dyz    dz2    dxz  x2-y2    tot
    1  0.000  0.002  0.000  0.002  0.001  0.016  0.000  0.031  0.002  0.054
    2  0.000  0.003  0.000  0.002  0.002  0.019  0.000  0.015  0.002  0.042
    3  0.000  0.021  0.000  0.016  0.000  0.000  0.000  0.000  0.000  0.037
    4  0.000  0.033  0.000  0.028  0.000  0.000  0.000  0.000  0.000  0.061
    5  0.003  0.013  0.001  0.040  0.000  0.000  0.000  0.000  0.000  0.057
    6  0.000  0.000  0.000  0.030  0.000  0.000  0.000  0.000  0.000  0.031
    7  0.005  0.070  0.002  0.012  0.000  0.000  0.000  0.000  0.000  0.090
    8  0.003  0.012  0.002  0.030  0.000  0.000  0.000  0.000  0.000  0.048
    9  0.001  0.000  0.000  0.026  0.000  0.000  0.000  0.000  0.000  0.028
   10  0.007  0.055  0.003  0.011  0.000  0.000  0.000  0.000  0.000  0.078
tot    0.020  0.209  0.009  0.197  0.004  0.036  0.000  0.046  0.005  0.527

band    12 # energy   -7.81375798 # occ.  1.00000000

ion      s     py     pz     px    dxy    dyz    dz2    dxz  x2-y2    tot
    1  0.045  0.000  0.000  0.000  0.000  0.000  0.018  0.000  0.000  0.063
    2  0.051  0.000  0.000  0.000  0.000  0.000  0.014  0.000  0.000  0.065
    3  0.000  0.000  0.025  0.000  0.000  0.000  0.000  0.000  0.000  0.025
    4  0.005  0.000  0.043  0.000  0.000  0.000  0.000  0.000  0.000  0.049
    5  0.003  0.000  0.043  0.007  0.000  0.000  0.000  0.000  0.000  0.054
    6  0.003  0.006  0.043  0.001  0.000  0.000  0.000  0.000  0.000  0.054
    7  0.003  0.005  0.043  0.002  0.000  0.000  0.000  0.000  0.000  0.054
    8  0.005  0.000  0.042  0.003  0.000  0.000  0.000  0.000  0.000  0.050
    9  0.005  0.002  0.042  0.001  0.000  0.000  0.000  0.000  0.000  0.050
   10  0.005  0.002  0.042  0.000  0.000  0.000  0.000  0.000  0.000  0.050
tot    0.126  0.015  0.322  0.015  0.000  0.000  0.035  0.000  0.000  0.515

band    13 # energy   -7.50677417 # occ.  1.00000000

ion      s     py     pz     px    dxy    dyz    dz2    dxz  x2-y2    tot
    1  0.000  0.015  0.000  0.002  0.002  0.001  0.000  0.018  0.009  0.047
    2  0.000  0.013  0.000  0.003  0.001  0.004  0.000  0.013  0.010  0.044
    3  0.000  0.004  0.000  0.033  0.000  0.000  0.000  0.000  0.000  0.037
    4  0.000  0.005  0.000  0.030  0.000  0.000  0.000  0.001  0.000  0.037
    5  0.000  0.003  0.008  0.067  0.000  0.000  0.000  0.000  0.000  0.078
    6  0.000  0.056  0.005  0.001  0.000  0.000  0.000  0.000  0.000  0.063
    7  0.000  0.011  0.000  0.012  0.000  0.000  0.000  0.000  0.000  0.024
    8  0.000  0.003  0.007  0.084  0.000  0.000  0.001  0.000  0.000  0.096
    9  0.000  0.067  0.006  0.001  0.000  0.000  0.000  0.000  0.000  0.075
   10  0.000  0.016  0.000  0.013  0.000  0.000  0.000  0.000  0.000  0.030
tot    0.001  0.195  0.026  0.245  0.004  0.006  0.002  0.032  0.020  0.530

band    14 # energy   -7.50674909 # occ.  1.00000000

ion      s     py     pz     px    dxy    dyz    dz2    dxz  x2-y2    tot
    1  0.000  0.002  0.000  0.015  0.009  0.018  0.000  0.001  0.002  0.047
    2  0.000  0.003  0.000  0.013  0.010  0.013  0.000  0.004  0.001  0.044
    3  0.000  0.033  0.000  0.004  0.000  0.000  0.000  0.000  0.000  0.037
    4  0.000  0.030  0.000  0.005  0.000  0.001  0.000  0.000  0.000  0.037
    5  0.000  0.019  0.001  0.012  0.000  0.000  0.000  0.000  0.000  0.032
    6  0.000  0.008  0.004  0.035  0.000  0.000  0.000  0.000  0.000  0.047
    7  0.000  0.053  0.008  0.024  0.000  0.000  0.001  0.000  0.000  0.086
    8  0.000  0.024  0.001  0.012  0.000  0.000  0.000  0.000  0.000  0.038
    9  0.000  0.012  0.003  0.043  0.000  0.000  0.000  0.000  0.000  0.059
   10  0.000  0.062  0.009  0.031  0.000  0.000  0.001  0.000  0.000  0.104
tot    0.001  0.245  0.026  0.195  0.020  0.032  0.002  0.006  0.004  0.530

band    15 # energy   -6.57890963 # occ.  1.00000000

ion      s     py     pz     px    dxy    dyz    dz2    dxz  x2-y2    tot
    1  0.002  0.000  0.041  0.000  0.000  0.000  0.001  0.000  0.000  0.044
    2  0.002  0.000  0.041  0.000  0.000  0.000  0.000  0.000  0.000  0.043
    3  0.000  0.000  0.000  0.000  0.000  0.000  0.000  0.000  0.000  0.000
    4  0.000  0.000  0.000  0.000  0.000  0.000  0.000  0.000  0.000  0.000
    5  0.000  0.052  0.000  0.000  0.000  0.000  0.000  0.000  0.000  0.052
    6  0.000  0.013  0.000  0.039  0.000  0.000  0.000  0.000  0.000  0.052
    7  0.000  0.013  0.000  0.039  0.000  0.000  0.000  0.000  0.000  0.052
    8  0.000  0.094  0.000  0.000  0.000  0.000  0.000  0.000  0.000  0.095
    9  0.000  0.024  0.000  0.071  0.000  0.000  0.000  0.000  0.000  0.095
   10  0.000  0.024  0.000  0.071  0.000  0.000  0.000  0.000  0.000  0.095
tot    0.004  0.220  0.082  0.220  0.001  0.000  0.001  0.000  0.001  0.530

band    16 # energy   -5.90613471 # occ.  1.00000000

ion      s     py     pz     px    dxy    dyz    dz2    dxz  x2-y2    tot
    1  0.000  0.000  0.000  0.000  0.000  0.004  0.000  0.271  0.246  0.521
    2  0.000  0.002  0.000  0.000  0.001  0.000  0.000  0.045  0.037  0.085
    3  0.000  0.000  0.000  0.000  0.000  0.000  0.000  0.000  0.000  0.000
    4  0.000  0.000  0.000  0.000  0.000  0.000  0.000  0.000  0.000  0.001
    5  0.001  0.001  0.030  0.002  0.000  0.000  0.000  0.000  0.000  0.036
    6  0.002  0.005  0.026  0.024  0.000  0.000  0.000  0.001  0.000  0.058
    7  0.000  0.001  0.000  0.017  0.000  0.000  0.000  0.001  0.000  0.019
    8  0.001  0.000  0.024  0.003  0.000  0.000  0.000  0.000  0.000  0.028
    9  0.000  0.003  0.000  0.019  0.000  0.000  0.000  0.001  0.000  0.023
   10  0.002  0.002  0.027  0.019  0.000  0.000  0.000  0.001  0.000  0.052
tot    0.007  0.015  0.108  0.085  0.001  0.005  0.001  0.319  0.284  0.824

band    17 # energy   -5.90612216 # occ.  1.00000000

ion      s     py     pz     px    dxy    dyz    dz2    dxz  x2-y2    tot
    1  0.000  0.000  0.000  0.000  0.246  0.271  0.000  0.004  0.000  0.521
    2  0.000  0.000  0.000  0.002  0.037  0.045  0.000  0.000  0.001  0.085
    3  0.000  0.000  0.000  0.000  0.000  0.000  0.000  0.000  0.000  0.000
    4  0.000  0.000  0.000  0.000  0.000  0.000  0.000  0.000  0.000  0.001
    5  0.001  0.030  0.007  0.000  0.000  0.001  0.000  0.000  0.000  0.039
    6  0.000  0.004  0.012  0.001  0.000  0.000  0.000  0.000  0.000  0.018
    7  0.002  0.009  0.037  0.007  0.000  0.000  0.000  0.000  0.000  0.056
    8  0.001  0.028  0.010  0.000  0.000  0.001  0.000  0.000  0.000  0.040
    9  0.002  0.007  0.034  0.002  0.000  0.000  0.000  0.000  0.000  0.046
   10  0.000  0.007  0.007  0.003  0.000  0.000  0.000  0.000  0.000  0.017
tot    0.007  0.085  0.108  0.015  0.284  0.319  0.001  0.005  0.001  0.824

band    18 # energy   -5.43790633 # occ.  1.00000000

ion      s     py     pz     px    dxy    dyz    dz2    dxz  x2-y2    tot
    1  0.000  0.000  0.000  0.002  0.024  0.041  0.000  0.004  0.010  0.081
    2  0.000  0.000  0.000  0.000  0.194  0.163  0.000  0.045  0.024  0.426
    3  0.000  0.000  0.000  0.000  0.000  0.000  0.000  0.000  0.000  0.000
    4  0.000  0.000  0.000  0.001  0.000  0.000  0.000  0.001  0.000  0.003
    5  0.003  0.002  0.045  0.000  0.000  0.000  0.000  0.000  0.000  0.051
    6  0.004  0.004  0.079  0.007  0.000  0.000  0.000  0.000  0.000  0.095
    7  0.000  0.000  0.005  0.003  0.000  0.000  0.000  0.000  0.000  0.008
    8  0.003  0.008  0.062  0.001  0.000  0.000  0.000  0.000  0.000  0.075
    9  0.001  0.000  0.018  0.002  0.000  0.000  0.000  0.000  0.000  0.020
   10  0.001  0.001  0.014  0.002  0.000  0.000  0.000  0.000  0.000  0.017
tot    0.013  0.017  0.221  0.016  0.219  0.204  0.000  0.050  0.035  0.776

band    19 # energy   -5.43789533 # occ.  1.00000000

ion      s     py     pz     px    dxy    dyz    dz2    dxz  x2-y2    tot
    1  0.000  0.002  0.000  0.000  0.010  0.004  0.000  0.041  0.024  0.081
    2  0.000  0.000  0.000  0.000  0.024  0.045  0.000  0.163  0.194  0.426
    3  0.000  0.000  0.000  0.000  0.000  0.000  0.000  0.000  0.000  0.000
    4  0.000  0.001  0.000  0.000  0.000  0.001  0.000  0.000  0.000  0.003
    5  0.002  0.008  0.040  0.000  0.000  0.000  0.000  0.000  0.000  0.051
    6  0.001  0.000  0.007  0.000  0.000  0.000  0.000  0.000  0.000  0.008
    7  0.005  0.001  0.081  0.007  0.000  0.000  0.000  0.000  0.000  0.094
    8  0.000  0.000  0.000  0.000  0.000  0.000  0.000  0.000  0.000  0.000
    9  0.002  0.000  0.045  0.007  0.000  0.000  0.000  0.000  0.000  0.055
   10  0.003  0.003  0.048  0.002  0.000  0.000  0.000  0.000  0.000  0.058
tot    0.013  0.016  0.221  0.017  0.035  0.050  0.000  0.204  0.219  0.776

band    20 # energy   -4.88766483 # occ.  1.00000000

ion      s     py     pz     px    dxy    dyz    dz2    dxz  x2-y2    tot
    1  0.000  0.000  0.001  0.000  0.000  0.000  0.417  0.000  0.000  0.418
    2  0.001  0.000  0.001  0.000  0.000  0.000  0.171  0.000  0.000  0.172
    3  0.004  0.000  0.042  0.000  0.000  0.000  0.000  0.000  0.000  0.046
    4  0.002  0.000  0.038  0.000  0.000  0.000  0.004  0.000  0.000  0.045
    5  0.000  0.000  0.013  0.010  0.000  0.000  0.000  0.000  0.000  0.024
    6  0.000  0.008  0.013  0.002  0.000  0.000  0.000  0.000  0.000  0.024
    7  0.000  0.007  0.013  0.003  0.000  0.000  0.000  0.000  0.000  0.024
    8  0.000  0.000  0.004  0.006  0.000  0.000  0.000  0.000  0.000  0.011
    9  0.000  0.004  0.004  0.002  0.000  0.000  0.000  0.000  0.000  0.011
   10  0.000  0.005  0.004  0.001  0.000  0.000  0.000  0.000  0.000  0.011
tot    0.008  0.024  0.133  0.024  0.001  0.001  0.594  0.001  0.001  0.786

band    21 # energy   -4.60347773 # occ.  1.00000000

ion      s     py     pz     px    dxy    dyz    dz2    dxz  x2-y2    tot
    1  0.000  0.006  0.000  0.000  0.001  0.000  0.000  0.185  0.081  0.273
    2  0.000  0.006  0.000  0.000  0.000  0.015  0.000  0.075  0.001  0.097
    3  0.000  0.002  0.000  0.018  0.000  0.000  0.000  0.000  0.000  0.020
    4  0.000  0.000  0.000  0.017  0.000  0.000  0.000  0.000  0.002  0.019
    5  0.002  0.001  0.049  0.028  0.000  0.000  0.000  0.000  0.001  0.081
    6  0.001  0.004  0.026  0.006  0.000  0.000  0.000  0.000  0.000  0.037
    7  0.000  0.001  0.004  0.009  0.000  0.000  0.000  0.000  0.001  0.015
    8  0.005  0.000  0.075  0.033  0.000  0.000  0.000  0.000  0.001  0.113
    9  0.003  0.007  0.029  0.017  0.000  0.000  0.000  0.000  0.001  0.057
   10  0.000  0.000  0.011  0.007  0.000  0.000  0.000  0.000  0.000  0.019
tot    0.011  0.027  0.193  0.136  0.002  0.015  0.000  0.261  0.087  0.731

band    22 # energy   -4.60346730 # occ.  1.00000000

ion      s     py     pz     px    dxy    dyz    dz2    dxz  x2-y2    tot
    1  0.000  0.000  0.000  0.006  0.081  0.185  0.000  0.000  0.001  0.273
    2  0.000  0.000  0.000  0.006  0.001  0.075  0.000  0.015  0.000  0.097
    3  0.000  0.018  0.000  0.002  0.000  0.000  0.000  0.000  0.000  0.020
    4  0.000  0.017  0.000  0.000  0.002  0.000  0.000  0.000  0.000  0.019
    5  0.000  0.003  0.003  0.000  0.000  0.000  0.000  0.000  0.000  0.008
    6  0.002  0.022  0.027  0.000  0.001  0.000  0.000  0.000  0.000  0.052
    7  0.002  0.017  0.049  0.006  0.001  0.000  0.000  0.000  0.000  0.074
    8  0.000  0.007  0.002  0.003  0.000  0.001  0.000  0.000  0.000  0.013
    9  0.003  0.018  0.047  0.001  0.001  0.000  0.000  0.000  0.000  0.069
   10  0.005  0.032  0.066  0.003  0.001  0.000  0.000  0.000  0.000  0.107
tot    0.011  0.136  0.193  0.027  0.087  0.261  0.000  0.015  0.002  0.731

band    23 # energy   -4.59423829 # occ.  1.00000000

ion      s     py     pz     px    dxy    dyz    dz2    dxz  x2-y2    tot
    1  0.000  0.000  0.010  0.000  0.000  0.000  0.090  0.000  0.000  0.100
    2  0.002  0.000  0.011  0.000  0.000  0.000  0.011  0.000  0.000  0.024
    3  0.000  0.000  0.004  0.000  0.000  0.000  0.000  0.000  0.000  0.004
    4  0.004  0.000  0.010  0.000  0.000  0.000  0.001  0.000  0.000  0.016
    5  0.000  0.000  0.072  0.000  0.000  0.000  0.000  0.000  0.000  0.072
    6  0.000  0.000  0.072  0.000  0.000  0.000  0.000  0.000  0.000  0.072
    7  0.000  0.000  0.072  0.000  0.000  0.000  0.000  0.000  0.000  0.072
    8  0.001  0.000  0.065  0.000  0.000  0.000  0.000  0.000  0.000  0.066
    9  0.001  0.000  0.065  0.000  0.000  0.000  0.000  0.000  0.000  0.066
   10  0.001  0.000  0.065  0.000  0.000  0.000  0.000  0.000  0.000  0.066
tot    0.009  0.001  0.443  0.001  0.000  0.000  0.103  0.000  0.000  0.559

band    24 # energy   -4.39117077 # occ.  1.00000000

ion      s     py     pz     px    dxy    dyz    dz2    dxz  x2-y2    tot
    1  0.000  0.001  0.000  0.006  0.314  0.109  0.000  0.068  0.113  0.611
    2  0.000  0.003  0.000  0.009  0.009  0.000  0.000  0.000  0.000  0.021
    3  0.000  0.000  0.000  0.002  0.000  0.000  0.000  0.000  0.000  0.002
    4  0.000  0.002  0.000  0.002  0.001  0.000  0.000  0.000  0.000  0.005
    5  0.000  0.002  0.003  0.000  0.000  0.000  0.000  0.000  0.000  0.006
    6  0.001  0.001  0.042  0.002  0.000  0.000  0.000  0.000  0.000  0.046
    7  0.002  0.008  0.023  0.001  0.000  0.000  0.000  0.000  0.000  0.033
    8  0.001  0.010  0.017  0.003  0.000  0.000  0.000  0.000  0.000  0.031
    9  0.001  0.004  0.044  0.000  0.000  0.000  0.000  0.000  0.000  0.049
   10  0.000  0.002  0.006  0.004  0.000  0.000  0.000  0.000  0.000  0.012
tot    0.005  0.033  0.134  0.027  0.324  0.110  0.000  0.069  0.114  0.817

band    25 # energy   -4.39116325 # occ.  1.00000000

ion      s     py     pz     px    dxy    dyz    dz2    dxz  x2-y2    tot
    1  0.000  0.006  0.000  0.001  0.113  0.068  0.000  0.109  0.314  0.611
    2  0.000  0.009  0.000  0.003  0.000  0.000  0.000  0.000  0.009  0.021
    3  0.000  0.002  0.000  0.000  0.000  0.000  0.000  0.000  0.000  0.002
    4  0.000  0.002  0.000  0.002  0.000  0.000  0.000  0.000  0.001  0.005
    5  0.002  0.002  0.042  0.005  0.000  0.000  0.000  0.000  0.000  0.051
    6  0.001  0.000  0.003  0.007  0.000  0.000  0.000  0.000  0.000  0.011
    7  0.000  0.000  0.022  0.001  0.000  0.000  0.000  0.000  0.000  0.024
    8  0.000  0.001  0.028  0.001  0.000  0.000  0.000  0.000  0.000  0.031
    9  0.000  0.005  0.001  0.005  0.000  0.000  0.000  0.000  0.000  0.012
   10  0.002  0.000  0.039  0.008  0.000  0.000  0.000  0.000  0.000  0.049
tot    0.005  0.027  0.134  0.033  0.114  0.069  0.000  0.110  0.324  0.817

band    26 # energy   -4.29582771 # occ.  1.00000000

ion      s     py     pz     px    dxy    dyz    dz2    dxz  x2-y2    tot
    1  0.009  0.000  0.000  0.000  0.000  0.000  0.311  0.000  0.000  0.320
    2  0.011  0.000  0.000  0.000  0.000  0.000  0.562  0.000  0.000  0.573
    3  0.000  0.000  0.002  0.000  0.000  0.000  0.000  0.000  0.000  0.002
    4  0.000  0.000  0.006  0.000  0.000  0.000  0.000  0.000  0.000  0.007
    5  0.000  0.002  0.000  0.001  0.000  0.000  0.000  0.000  0.000  0.003
    6  0.000  0.000  0.000  0.003  0.000  0.000  0.000  0.000  0.000  0.003
    7  0.000  0.002  0.000  0.000  0.000  0.000  0.000  0.000  0.000  0.003
    8  0.000  0.002  0.002  0.001  0.000  0.000  0.000  0.000  0.000  0.005
    9  0.000  0.002  0.002  0.001  0.000  0.000  0.000  0.000  0.000  0.005
   10  0.000  0.000  0.002  0.002  0.000  0.000  0.000  0.000  0.000  0.005
tot    0.020  0.007  0.014  0.007  0.000  0.001  0.874  0.001  0.000  0.926

band    27 # energy   -4.14503193 # occ.  1.00000000

ion      s     py     pz     px    dxy    dyz    dz2    dxz  x2-y2    tot
    1  0.000  0.000  0.000  0.004  0.019  0.005  0.000  0.004  0.006  0.038
    2  0.000  0.000  0.000  0.001  0.495  0.292  0.000  0.003  0.029  0.819
    3  0.000  0.000  0.000  0.003  0.000  0.000  0.000  0.000  0.000  0.003
    4  0.000  0.002  0.000  0.006  0.000  0.000  0.000  0.000  0.000  0.008
    5  0.001  0.001  0.006  0.003  0.000  0.000  0.000  0.000  0.000  0.012
    6  0.000  0.001  0.007  0.001  0.000  0.000  0.000  0.000  0.000  0.009
    7  0.000  0.002  0.000  0.000  0.000  0.000  0.000  0.000  0.000  0.003
    8  0.001  0.001  0.002  0.001  0.000  0.000  0.000  0.000  0.000  0.006
    9  0.000  0.000  0.003  0.000  0.000  0.000  0.000  0.000  0.000  0.004
   10  0.001  0.002  0.009  0.001  0.000  0.000  0.000  0.000  0.000  0.013
tot    0.003  0.010  0.027  0.020  0.516  0.297  0.001  0.007  0.035  0.916

band    28 # energy   -4.14502824 # occ.  1.00000000

ion      s     py     pz     px    dxy    dyz    dz2    dxz  x2-y2    tot
    1  0.000  0.004  0.000  0.000  0.006  0.004  0.000  0.005  0.019  0.038
    2  0.000  0.001  0.000  0.000  0.029  0.003  0.000  0.292  0.495  0.819
    3  0.000  0.003  0.000  0.000  0.000  0.000  0.000  0.000  0.000  0.003
    4  0.000  0.006  0.000  0.002  0.000  0.000  0.000  0.000  0.000  0.008
    5  0.000  0.001  0.003  0.001  0.000  0.000  0.000  0.000  0.000  0.004
    6  0.001  0.004  0.002  0.000  0.000  0.000  0.000  0.000  0.001  0.007
    7  0.001  0.000  0.009  0.003  0.000  0.000  0.000  0.000  0.000  0.013
    8  0.000  0.002  0.007  0.000  0.000  0.000  0.000  0.000  0.000  0.009
    9  0.001  0.000  0.007  0.004  0.000  0.000  0.000  0.000  0.000  0.011
   10  0.000  0.001  0.000  0.000  0.000  0.000  0.000  0.000  0.000  0.002
tot    0.003  0.020  0.027  0.010  0.035  0.007  0.001  0.297  0.516  0.916

band    29 # energy   -3.50724551 # occ.  1.00000000

ion      s     py     pz     px    dxy    dyz    dz2    dxz  x2-y2    tot
    1  0.013  0.000  0.000  0.000  0.000  0.000  0.079  0.000  0.000  0.092
    2  0.010  0.000  0.000  0.000  0.000  0.000  0.153  0.000  0.000  0.163
    3  0.000  0.000  0.072  0.000  0.000  0.000  0.000  0.000  0.000  0.072
    4  0.001  0.000  0.124  0.000  0.000  0.000  0.005  0.000  0.000  0.130
    5  0.001  0.000  0.011  0.015  0.000  0.000  0.000  0.001  0.000  0.028
    6  0.001  0.012  0.011  0.004  0.000  0.000  0.000  0.000  0.000  0.028
    7  0.001  0.011  0.011  0.004  0.000  0.001  0.000  0.000  0.000  0.028
    8  0.001  0.000  0.027  0.012  0.000  0.000  0.000  0.001  0.000  0.041
    9  0.001  0.009  0.027  0.003  0.000  0.001  0.000  0.000  0.000  0.041
   10  0.001  0.009  0.027  0.003  0.000  0.001  0.000  0.000  0.000  0.041
tot    0.027  0.041  0.311  0.041  0.000  0.002  0.239  0.002  0.000  0.664

band    30 # energy   -3.25436442 # occ.  1.00000000

ion      s     py     pz     px    dxy    dyz    dz2    dxz  x2-y2    tot
    1  0.000  0.002  0.000  0.019  0.004  0.009  0.000  0.005  0.003  0.042
    2  0.000  0.003  0.000  0.020  0.005  0.016  0.000  0.000  0.000  0.043
    3  0.000  0.001  0.000  0.009  0.000  0.000  0.000  0.000  0.000  0.010
    4  0.000  0.002  0.000  0.012  0.000  0.000  0.000  0.001  0.003  0.018
    5  0.002  0.013  0.012  0.042  0.000  0.000  0.000  0.000  0.001  0.070
    6  0.000  0.016  0.000  0.080  0.000  0.000  0.000  0.001  0.000  0.097
    7  0.001  0.003  0.010  0.065  0.000  0.000  0.000  0.000  0.000  0.080
    8  0.003  0.011  0.024  0.052  0.000  0.000  0.000  0.000  0.001  0.092
    9  0.000  0.017  0.001  0.103  0.000  0.000  0.000  0.000  0.000  0.122
   10  0.002  0.001  0.016  0.088  0.001  0.000  0.000  0.000  0.000  0.109
tot    0.008  0.069  0.063  0.490  0.011  0.025  0.001  0.007  0.008  0.683

band    31 # energy   -3.25433496 # occ.  1.00000000

ion      s     py     pz     px    dxy    dyz    dz2    dxz  x2-y2    tot
    1  0.000  0.019  0.000  0.002  0.003  0.005  0.000  0.009  0.004  0.042
    2  0.000  0.020  0.000  0.003  0.000  0.000  0.000  0.016  0.005  0.043
    3  0.000  0.009  0.000  0.001  0.000  0.000  0.000  0.000  0.000  0.010
    4  0.000  0.012  0.000  0.002  0.003  0.001  0.000  0.000  0.000  0.018
    5  0.000  0.084  0.003  0.007  0.000  0.001  0.000  0.000  0.000  0.095
    6  0.002  0.045  0.014  0.005  0.001  0.000  0.000  0.000  0.000  0.068
    7  0.001  0.058  0.005  0.021  0.000  0.000  0.000  0.001  0.000  0.085
    8  0.000  0.113  0.003  0.006  0.000  0.000  0.000  0.000  0.000  0.123
    9  0.003  0.059  0.027  0.003  0.001  0.000  0.000  0.000  0.000  0.093