<?xml version="1.0" encoding="ISO-8859-1"?>
<modeling>
 <generator>
  <i name="program" type="string">vasp </i>
  <i name="version" type="string">5.4.4.18Apr17-6-g9f103f2a35  </i>
  <i name="subversion" type="string">(build May  1 2020 15:48:39) complex            parallel </i>
  <i name="platform" type="string">LinuxGNU </i>
  <i name="date" type="string">2020 06 20 </i>
  <i name="time" type="string">15:04:40 </i>
 </generator>
 <incar>
  <i type="int" name="ISTART">     1</i>
  <i type="string" name="PREC">accurate</i>
  <i type="string" name="ALGO"> Normal</i>
  <i type="int" name="ISPIN">     2</i>
  <i name="AMIN">      0.01000000</i>
  <i type="int" name="NELM">   400</i>
  <i type="int" name="IBRION">     2</i>
  <i name="EDIFF">      0.00010000</i>
  <i type="int" name="NSW">    99</i>
  <i type="int" name="ISIF">     3</i>
  <i name="ENCUT">    520.00000000</i>
  <v name="MAGMOM">      5.00000000      5.00000000      0.60000000      0.60000000      0.60000000      0.60000000      0.60000000      0.60000000      0.60000000      0.60000000</v>
  <i type="string" name="LREAL"> Auto</i>
  <i type="int" name="ISMEAR">    -5</i>
  <i name="SIGMA">      0.05000000</i>
  <i type="logical" name="LWAVE"> F  </i>
  <i type="int" name="LORBIT">    11</i>
  <v type="int" name="KPOINT_BSE">    -1     0     0     0</v>
  <i type="int" name="NELM">   400</i>
  <i type="string" name="GGA"> Bo</i>
  <i name="PARAM1">      0.18333333</i>
  <i name="PARAM2">      0.22000000</i>
  <i type="logical" name="LUSE_VDW"> T  </i>
  <i name="AGGAC">      0.00000000</i>
 </incar>
 <structure name="primitive_cell" >
  <crystal>
   <varray name="basis" >
    <v>       6.90777700      -0.00000000       0.00000000 </v>
    <v>       3.45388800       5.98231000       0.00000000 </v>
    <v>       0.00000000       0.00000000      23.44458800 </v>
   </varray>
   <i name="volume">    968.83501932 </i>
   <varray name="rec_basis" >
    <v>       0.14476437      -0.08357974       0.00000000 </v>
    <v>       0.00000000       0.16715951      -0.00000000 </v>
    <v>      -0.00000000       0.00000000       0.04265377 </v>
   </varray>
  </crystal>
  <varray name="positions" >
   <v>       0.33333300       0.33333300       0.49992500 </v>
   <v>       0.00042000       0.37322400      -0.42624800 </v>
   <v>      -0.37364300       0.00042000      -0.42624800 </v>
   <v>       0.37322400      -0.37364300      -0.42624800 </v>
   <v>       0.37364300      -0.00042000       0.42624800 </v>
   <v>      -0.37322400       0.37364300       0.42624800 </v>
   <v>      -0.00042000      -0.37322400       0.42624800 </v>
   <v>      -0.33333300      -0.33333300      -0.49992500 </v>
   <v>       0.00000000       0.00000000       0.44821600 </v>
   <v>       0.00000000       0.00000000      -0.44821600 </v>
  </varray>
 </structure>
 <varray name="primitive_index" >
  <v type="int" >        1 </v>
  <v type="int" >        6 </v>
  <v type="int" >        5 </v>
  <v type="int" >        7 </v>
  <v type="int" >        8 </v>
  <v type="int" >       10 </v>
  <v type="int" >        9 </v>
  <v type="int" >        2 </v>
  <v type="int" >        3 </v>
  <v type="int" >        4 </v>
 </varray>
 <kpoints>
  <generation param="Gamma">
   <v type="int" name="divisions">       5        5        1 </v>
   <v name="usershift">      0.00000000       0.00000000       0.00000000 </v>
   <v name="genvec1">      0.20000000       0.00000000       0.00000000 </v>
   <v name="genvec2">      0.00000000       0.20000000       0.00000000 </v>
   <v name="genvec3">      0.00000000       0.00000000       1.00000000 </v>
   <v name="shift">      0.00000000       0.00000000       0.00000000 </v>
  </generation>
  <varray name="kpointlist" >
   <v>       0.00000000       0.00000000       0.00000000 </v>
   <v>       0.20000000       0.00000000       0.00000000 </v>
   <v>       0.40000000       0.00000000       0.00000000 </v>
   <v>       0.40000000       0.20000000       0.00000000 </v>
   <v>      -0.40000000       0.20000000       0.00000000 </v>
  </varray>
  <varray name="weights" >
   <v>       0.04000000 </v>
   <v>       0.24000000 </v>
   <v>       0.24000000 </v>
   <v>       0.24000000 </v>
   <v>       0.24000000 </v>
  </varray>
  <varray name="tetrahedronlist"  type="int" >
   <v type="int" >        6        1        1        2        2 </v>
   <v type="int" >       12        1        2        2        2 </v>
   <v type="int" >       12        2        2        3        4 </v>
   <v type="int" >       12        2        2        2        4 </v>
   <v type="int" >       12        2        3        3        4 </v>
   <v type="int" >       12        2        3        4        4 </v>
   <v type="int" >        6        2        2        4        4 </v>
   <v type="int" >       12        3        3        3        5 </v>
   <v type="int" >       12        3        3        4        5 </v>
   <v type="int" >       12        3        4        4        5 </v>
   <v type="int" >        6        3        3        5        5 </v>
   <v type="int" >       12        3        4        5        5 </v>
   <v type="int" >        6        4        4        5        5 </v>
   <v type="int" >       12        4        5        5        5 </v>
   <v type="int" >        6        5        5        5        5 </v>
  </varray>
  <i name="volumeweight">      0.00666667 </i>
 </kpoints>
 <parameters>
  <separator name="general" >
   <i type="string" name="SYSTEM">unknown system</i>
   <i type="logical" name="LCOMPAT"> F  </i>
  </separator>
  <separator name="electronic" >
   <i type="string" name="PREC">accura</i>
   <i name="ENMAX">    520.00000000</i>
   <i name="ENAUG">    544.56500000</i>
   <i name="EDIFF">      0.00010000</i>
   <i type="int" name="IALGO">    38</i>
   <i type="int" name="IWAVPR">    11</i>
   <i type="int" name="NBANDS">    48</i>
   <i name="NELECT">     64.00000000</i>
   <i type="int" name="TURBO">     0</i>
   <i type="int" name="IRESTART">     0</i>
   <i type="int" name="NREBOOT">     0</i>
   <i type="int" name="NMIN">     0</i>
   <i name="EREF">      0.00000000</i>
   <separator name="electronic smearing" >
    <i type="int" name="ISMEAR">    -5</i>
    <i name="SIGMA">      0.05000000</i>
    <i name="KSPACING">      0.50000000</i>
    <i type="logical" name="KGAMMA"> T  </i>
   </separator>
   <separator name="electronic projectors" >
    <i type="logical" name="LREAL"> T  </i>
    <v name="ROPT">     -0.00025000     -0.00025000     -0.00025000     -0.00025000</v>
    <i type="int" name="LMAXPAW">  -100</i>
    <i type="int" name="LMAXMIX">     2</i>
    <i type="logical" name="NLSPLINE"> F  </i>
   </separator>
   <separator name="electronic startup" >
    <i type="int" name="ISTART">     0</i>
    <i type="int" name="ICHARG">     2</i>
    <i type="int" name="INIWAV">     1</i>
   </separator>
   <separator name="electronic spin" >
    <i type="int" name="ISPIN">     2</i>
    <i type="logical" name="LNONCOLLINEAR"> F  </i>
    <v name="MAGMOM">      5.00000000      5.00000000      0.60000000      0.60000000      0.60000000      0.60000000      0.60000000      0.60000000      0.60000000      0.60000000</v>
    <i name="NUPDOWN">     -1.00000000</i>
    <i type="logical" name="LSORBIT"> F  </i>
    <v name="SAXIS">      0.00000000      0.00000000      1.00000000</v>
    <i type="logical" name="LSPIRAL"> F  </i>
    <v name="QSPIRAL">      0.00000000      0.00000000      0.00000000</v>
    <i type="logical" name="LZEROZ"> F  </i>
   </separator>
   <separator name="electronic exchange-correlation" >
    <i type="logical" name="LASPH"> F  </i>
    <i type="logical" name="LMETAGGA"> F  </i>
   </separator>
   <separator name="electronic convergence" >
    <i type="int" name="NELM">   400</i>
    <i type="int" name="NELMDL">     0</i>
    <i type="int" name="NELMIN">     2</i>
    <i name="ENINI">    520.00000000</i>
    <separator name="electronic convergence detail" >
     <i type="logical" name="LDIAG"> T  </i>
     <i type="logical" name="LSUBROT"> F  </i>
     <i name="WEIMIN">      0.00100000</i>
     <i name="EBREAK">      0.00000052</i>
     <i name="DEPER">      0.30000000</i>
     <i type="int" name="NRMM">     4</i>
     <i name="TIME">      0.40000000</i>
    </separator>
   </separator>
   <separator name="electronic mixer" >
    <i name="AMIX">      0.40000000</i>
    <i name="BMIX">      1.00000000</i>
    <i name="AMIN">      0.01000000</i>
    <i name="AMIX_MAG">      1.60000000</i>
    <i name="BMIX_MAG">      1.00000000</i>
    <separator name="electronic mixer details" >
     <i type="int" name="IMIX">     4</i>
     <i type="logical" name="MIXFIRST"> F  </i>
     <i type="int" name="MAXMIX">   -45</i>
     <i name="WC">    100.00000000</i>
     <i type="int" name="INIMIX">     1</i>
     <i type="int" name="MIXPRE">     1</i>
     <i type="int" name="MREMOVE">     5</i>
    </separator>
   </separator>
   <separator name="electronic dipolcorrection" >
    <i type="logical" name="LDIPOL"> F  </i>
    <i type="logical" name="LMONO"> F  </i>
    <i type="int" name="IDIPOL">     0</i>
    <i name="EPSILON">      1.00000000</i>
    <v name="DIPOL">   -100.00000000   -100.00000000   -100.00000000</v>
    <i name="EFIELD">      0.00000000</i>
   </separator>
  </separator>
  <separator name="grids" >
   <i type="int" name="NGX">    54</i>
   <i type="int" name="NGY">    54</i>
   <i type="int" name="NGZ">   180</i>
   <i type="int" name="NGXF">   108</i>
   <i type="int" name="NGYF">   108</i>
   <i type="int" name="NGZF">   360</i>
   <i type="logical" name="ADDGRID"> F  </i>
  </separator>
  <separator name="ionic" >
   <i type="int" name="NSW">    99</i>
   <i type="int" name="IBRION">     2</i>
   <i type="int" name="MDALGO">     0</i>
   <i type="int" name="ISIF">     3</i>
   <i name="PSTRESS">      0.00000000</i>
   <i name="EDIFFG">      0.00100000</i>
   <i type="int" name="NFREE">     1</i>
   <i name="POTIM">      0.50000000</i>
   <i name="SMASS">     -3.00000000</i>
   <i name="SCALEE">      1.00000000</i>
  </separator>
  <separator name="ionic md" >
   <i name="TEBEG">      0.00010000</i>
   <i name="TEEND">      0.00010000</i>
   <i type="int" name="NBLOCK">     1</i>
   <i type="int" name="KBLOCK">    99</i>
   <i type="int" name="NPACO">   256</i>
   <i name="APACO">     16.00000000</i>
  </separator>
  <separator name="symmetry" >
   <i type="int" name="ISYM">     2</i>
   <i name="SYMPREC">      0.00001000</i>
  </separator>
  <separator name="dos" >
   <i type="int" name="LORBIT">    11</i>
   <v name="RWIGS">     -1.00000000     -1.00000000     -1.00000000     -1.00000000</v>
   <i type="int" name="NEDOS">   301</i>
   <i name="EMIN">     10.00000000</i>
   <i name="EMAX">    -10.00000000</i>
   <i name="EFERMI">      0.00000000</i>
  </separator>
  <separator name="writing" >
   <i type="int" name="NWRITE">     2</i>
   <i type="logical" name="LWAVE"> F  </i>
   <i type="logical" name="LDOWNSAMPLE"> F  </i>
   <i type="logical" name="LCHARG"> T  </i>
   <i type="logical" name="LPARD"> F  </i>
   <i type="logical" name="LVTOT"> F  </i>
   <i type="logical" name="LVHAR"> F  </i>
   <i type="logical" name="LELF"> F  </i>
   <i type="logical" name="LOPTICS"> F  </i>
   <v name="STM">      0.00000000      0.00000000      0.00000000      0.00000000      0.00000000      0.00000000      0.00000000</v>
  </separator>
  <separator name="performance" >
   <i type="int" name="NPAR">    16</i>
   <i type="int" name="NSIM">     4</i>
   <i type="int" name="NBLK">    -1</i>
   <i type="logical" name="LPLANE"> T  </i>
   <i type="logical" name="LSCALAPACK"> T  </i>
   <i type="logical" name="LSCAAWARE"> F  </i>
   <i type="logical" name="LSCALU"> F  </i>
   <i type="logical" name="LASYNC"> F  </i>
   <i type="logical" name="LORBITALREAL"> F  </i>
  </separator>
  <separator name="miscellaneous" >
   <i type="int" name="IDIOT">     3</i>
   <i type="int" name="ISPECIAL">     0</i>
   <i type="logical" name="LMUSIC"> F  </i>
   <v name="POMASS">     58.69000000     28.08500000     72.61000000     78.96000000</v>
   <v name="DARWINR">      0.00000000      0.00000000      0.00000000      0.00000000</v>
   <v name="DARWINV">      1.00000000      1.00000000      1.00000000      1.00000000</v>
   <i type="logical" name="LCORR"> T  </i>
  </separator>
  <i type="logical" name="GGA_COMPAT"> T  </i>
  <i type="logical" name="LBERRY"> F  </i>
  <i type="int" name="ICORELEVEL">     0</i>
  <i type="logical" name="LDAU"> F  </i>
  <i type="int" name="I_CONSTRAINED_M">     0</i>
  <separator name="electronic exchange-correlation" >
   <i type="string" name="GGA">BO</i>
   <i type="int" name="VOSKOWN">     0</i>
   <i type="logical" name="LHFCALC"> F  </i>
   <i type="string" name="PRECFOCK"></i>
   <i type="logical" name="LSYMGRAD"> F  </i>
   <i type="logical" name="LHFONE"> F  </i>
   <i type="logical" name="LRHFCALC"> F  </i>
   <i type="logical" name="LTHOMAS"> F  </i>
   <i type="logical" name="LMODELHF"> F  </i>
   <i name="ENCUT4O">     -1.00000000</i>
   <i type="int" name="EXXOEP">     0</i>
   <i type="int" name="FOURORBIT">     0</i>
   <i name="AEXX">      0.00000000</i>
   <i name="HFALPHA">      0.00000000</i>
   <i name="MCALPHA">      0.00000000</i>
   <i name="ALDAX">      1.00000000</i>
   <i name="AGGAX">      1.00000000</i>
   <i name="ALDAC">      1.00000000</i>
   <i name="AGGAC">      0.00000000</i>
   <i type="int" name="NKREDX">     1</i>
   <i type="int" name="NKREDY">     1</i>
   <i type="int" name="NKREDZ">     1</i>
   <i type="logical" name="SHIFTRED"> F  </i>
   <i type="logical" name="ODDONLY"> F  </i>
   <i type="logical" name="EVENONLY"> F  </i>
   <i type="int" name="LMAXFOCK">     0</i>
   <i type="int" name="NMAXFOCKAE">     0</i>
   <i type="logical" name="LFOCKAEDFT"> F  </i>
   <i name="HFSCREEN">      0.00000000</i>
   <i name="HFSCREENC">      0.00000000</i>
   <i type="int" name="NBANDSGWLOW">     0</i>
  </separator>
  <separator name="vdW DFT" >
   <i type="logical" name="LUSE_VDW"> T  </i>
   <i name="Zab_VDW">     -0.84910000</i>
   <i name="PARAM1">      0.18333333</i>
   <i name="PARAM2">      0.22000000</i>
   <i name="PARAM3">      0.00000000</i>
  </separator>
  <separator name="model GW" >
   <i type="int" name="MODEL_GW">     0</i>
   <i name="MODEL_EPS0">     58.13010116</i>
   <i name="MODEL_ALPHA">      1.00000000</i>
  </separator>
  <separator name="linear response parameters" >
   <i type="logical" name="LEPSILON"> F  </i>
   <i type="logical" name="LRPA"> F  </i>
   <i type="logical" name="LNABLA"> F  </i>
   <i type="logical" name="LVEL"> F  </i>
   <i type="int" name="KINTER">     0</i>
   <i name="CSHIFT">      0.10000000</i>
   <i name="OMEGAMAX">     -1.00000000</i>
   <i name="DEG_THRESHOLD">      0.00200000</i>
   <i name="RTIME">     -0.10000000</i>
   <i name="WPLASMAI">      0.00000000</i>
   <v name="DFIELD">      0.00000000      0.00000000      0.00000000</v>
   <v name="WPLASMA">      0.00000000      0.00000000      0.00000000      0.00000000      0.00000000      0.00000000      0.00000000      0.00000000      0.00000000</v>
  </separator>
  <separator name="orbital magnetization" >
   <i type="logical" name="NUCIND"> F  </i>
   <v name="MAGPOS">      0.00000000      0.00000000      0.00000000</v>
   <i type="logical" name="LNICSALL"> T  </i>
   <i type="logical" name="ORBITALMAG"> F  </i>
   <i type="logical" name="LMAGBLOCH"> F  </i>
   <i type="logical" name="LCHIMAG"> F  </i>
   <i type="logical" name="LGAUGE"> T  </i>
   <i type="int" name="MAGATOM">     0</i>
   <v name="MAGDIPOL">      0.00000000      0.00000000      0.00000000</v>
   <v name="AVECCONST">      0.00000000      0.00000000      0.00000000</v>
  </separator>
  <separator name="response functions" >
   <i type="logical" name="LADDER"> F  </i>
   <i type="logical" name="LRPAFORCE"> F  </i>
   <i type="logical" name="LFXC"> F  </i>
   <i type="logical" name="LHARTREE"> T  </i>
   <i type="int" name="IBSE">     0</i>
   <v type="int" name="KPOINT">    -1     0     0     0</v>
   <i type="logical" name="LTCTE"> F  </i>
   <i type="logical" name="LTETE"> F  </i>
   <i type="logical" name="LTRIPLET"> F  </i>
   <i type="logical" name="LFXCEPS"> F  </i>
   <i type="logical" name="LFXHEG"> F  </i>
   <i type="int" name="NATURALO">     2</i>
   <i type="logical" name="L2ORDER"> F  </i>
   <i type="logical" name="LMP2LT"> F  </i>
   <i type="logical" name="LUSEW"> F  </i>
   <i name="ENCUTGW">     -2.00000000</i>
   <i name="ENCUTGWSOFT">     -2.00000000</i>
   <i name="ENCUTLF">     -1.00000000</i>
   <i type="int" name="LMAXMP2">    -1</i>
   <i name="SCISSOR">      0.00000000</i>
   <i type="int" name="NOMEGA">     0</i>
   <i type="int" name="NOMEGAR">     0</i>
   <i type="int" name="NBANDSGW">    -1</i>
   <i type="int" name="NBANDSO">    -1</i>
   <i type="int" name="NBANDSV">    -1</i>
   <i type="int" name="NELM">   400</i>
   <i type="int" name="NELMHF">     1</i>
   <i type="int" name="DIM">     3</i>
   <i type="int" name="ANTIRES">     0</i>
   <i name="OMEGAMAX">    -30.00000000</i>
   <i name="OMEGAMIN">    -30.00000000</i>
   <i name="OMEGATL">   -200.00000000</i>
   <i type="int" name="OMEGAGRID">   140</i>
   <i name="CSHIFT">     -0.10000000</i>
   <i type="logical" name="SELFENERGY"> F  </i>
   <i type="logical" name="LSPECTRAL"> F  </i>
   <i type="logical" name="LSPECTRALGW"> F  </i>
   <i type="logical" name="LSINGLES"> F  </i>
   <i type="logical" name="LFERMIGW"> F  </i>
   <i type="logical" name="ODDONLYGW"> F  </i>
   <i type="logical" name="EVENONLYGW"> F  </i>
   <i type="int" name="NKREDLFX">     1</i>
   <i type="int" name="NKREDLFY">     1</i>
   <i type="int" name="NKREDLFZ">     1</i>
   <i type="int" name="MAXMEM">  2800</i>
   <i type="int" name="TELESCOPE">     0</i>
   <i type="int" name="TAUPAR">     1</i>
   <i type="int" name="OMEGAPAR">    -1</i>
   <i name="LAMBDA">      1.00000000</i>
  </separator>
  <separator name="External order field" >
   <i name="OFIELD_KAPPA">      0.00000000</i>
   <v name="OFIELD_K">      0.00000000      0.00000000      0.00000000</v>
   <i name="OFIELD_Q6_NEAR">      0.00000000</i>
   <i name="OFIELD_Q6_FAR">      0.00000000</i>
   <i name="OFIELD_A">      0.00000000</i>
  </separator>
 </parameters>
 <atominfo>
  <atoms>      10 </atoms>
  <types>       4 </types>
  <array name="atoms" >
   <dimension dim="1">ion</dimension>
   <field type="string">element</field>
   <field type="int">atomtype</field>
   <set>
    <rc><c>Ni</c><c>   1</c></rc>
    <rc><c>Ni</c><c>   1</c></rc>
    <rc><c>Si</c><c>   2</c></rc>
    <rc><c>Ge</c><c>   3</c></rc>
    <rc><c>Se</c><c>   4</c></rc>
    <rc><c>Se</c><c>   4</c></rc>
    <rc><c>Se</c><c>   4</c></rc>
    <rc><c>Se</c><c>   4</c></rc>
    <rc><c>Se</c><c>   4</c></rc>
    <rc><c>Se</c><c>   4</c></rc>
   </set>
  </array>
  <array name="atomtypes" >
   <dimension dim="1">type</dimension>
   <field type="int">atomspertype</field>
   <field type="string">element</field>
   <field>mass</field>
   <field>valence</field>
   <field type="string">pseudopotential</field>
   <set>
    <rc><c>   2</c><c>Ni</c><c>     58.69000000</c><c>     10.00000000</c><c> PAW_PBE Ni 06Sep2000                   </c></rc>
    <rc><c>   1</c><c>Si</c><c>     28.08500000</c><c>      4.00000000</c><c> PAW_PBE Si 05Jan2001                   </c></rc>
    <rc><c>   1</c><c>Ge</c><c>     72.61000000</c><c>      4.00000000</c><c> PAW_PBE Ge 05Jan2001                   </c></rc>
    <rc><c>   6</c><c>Se</c><c>     78.96000000</c><c>      6.00000000</c><c> PAW_PBE Se 06Sep2000                   </c></rc>
   </set>
  </array>
 </atominfo>
 <structure name="initialpos" >
  <crystal>
   <varray name="basis" >
    <v>       6.90777700      -0.00000000       0.00000000 </v>
    <v>       3.45388800       5.98231000       0.00000000 </v>
    <v>       0.00000000       0.00000000      23.44458800 </v>
   </varray>
   <i name="volume">    968.83501932 </i>
   <varray name="rec_basis" >
    <v>       0.14476437      -0.08357974       0.00000000 </v>
    <v>       0.00000000       0.16715951      -0.00000000 </v>
    <v>      -0.00000000       0.00000000       0.04265377 </v>
   </varray>
  </crystal>
  <varray name="positions" >
   <v>       0.33333300       0.33333300       0.49992500 </v>
   <v>       0.66666700       0.66666700       0.50007500 </v>
   <v>       0.00000000       0.00000000       0.44821600 </v>
   <v>       0.00000000       0.00000000       0.55178400 </v>
   <v>       0.62635700       0.00042000       0.57375200 </v>
   <v>       0.00042000       0.37322400       0.57375200 </v>
   <v>       0.37322400       0.62635700       0.57375200 </v>
   <v>       0.37364300       0.99958000       0.42624800 </v>
   <v>       0.99958000       0.62677600       0.42624800 </v>
   <v>       0.62677600       0.37364300       0.42624800 </v>
  </varray>
  <varray name="selective"  type="logical" >
   <v type="logical" >  T  T  T </v>
   <v type="logical" >  T  T  T </v>
   <v type="logical" >  T  T  T </v>
   <v type="logical" >  F  F  F </v>
   <v type="logical" >  T  T  T </v>
   <v type="logical" >  T  T  T </v>
   <v type="logical" >  T  T  T </v>
   <v type="logical" >  T  T  T </v>
   <v type="logical" >  T  T  T </v>
   <v type="logical" >  T  T  T </v>
  </varray>
  <nose>
   <v>      -3.00000000       0.00000000       0.00010000       0.00010000 </v>
  </nose>
 </structure>
 <calculation>
  <scstep>
   <time name="dav">   22.60   22.93</time>
   <time name="total">   75.16   75.81</time>
   <energy>
    <i name="alphaZ">     40.05543433 </i>
    <i name="ewald">   8065.03639907 </i>
    <i name="hartreedc"> -11594.03494219 </i>
    <i name="XCdc">     37.63652441 </i>
    <i name="pawpsdc">   2445.44674051 </i>
    <i name="pawaedc">  -2457.11695131 </i>
    <i name="eentropy">      0.00000000 </i>
    <i name="bandstr">    -45.84419631 </i>
    <i name="atom">   3923.45879020 </i>
    <i name="e_fr_energy">    414.63779871 </i>
    <i name="e_wo_entrp">    414.63779871 </i>
    <i name="e_0_energy">    414.63779871 </i>
   </energy>
  </scstep>
  <scstep>
   <time name="dav">   31.34   31.73</time>
   <time name="total">   31.34   31.73</time>
   <energy>
    <i name="e_fr_energy">     29.06006730 </i>
    <i name="e_wo_entrp">     29.06006730 </i>
    <i name="e_0_energy">     29.06006730 </i>
   </energy>
  </scstep>
  <scstep>
   <time name="dav">   29.29   29.39</time>
   <time name="total">   29.29   29.39</time>
   <energy>
    <i name="e_fr_energy">    -39.76546089 </i>
    <i name="e_wo_entrp">    -39.76546089 </i>
    <i name="e_0_energy">    -39.76546089 </i>
   </energy>
  </scstep>
  <scstep>
   <time name="dav">   27.16   27.25</time>
   <time name="total">   27.16   27.25</time>
   <energy>
    <i name="e_fr_energy">    -42.33432157 </i>
    <i name="e_wo_entrp">    -42.33432157 </i>
    <i name="e_0_energy">    -42.33432157 </i>
   </energy>
  </scstep>
  <scstep>
   <time name="dav">   28.73   28.90</time>
   <time name="total">   30.87   31.05</time>
   <energy>
    <i name="e_fr_energy">    -42.39705482 </i>
    <i name="e_wo_entrp">    -42.39705482 </i>
    <i name="e_0_energy">    -42.39705482 </i>
   </energy>
  </scstep>
  <scstep>
   <time name="dav">   28.96   29.06</time>
   <time name="total">   83.56   83.78</time>
   <energy>
    <i name="e_fr_energy">   -118.16629133 </i>
    <i name="e_wo_entrp">   -118.16629133 </i>
    <i name="e_0_energy">   -118.16629133 </i>
   </energy>
  </scstep>
  <scstep>
   <time name="dav">   24.44   24.90</time>
   <time name="total">   79.12   79.82</time>
   <energy>
    <i name="e_fr_energy">    -63.68263050 </i>
    <i name="e_wo_entrp">    -63.68263050 </i>
    <i name="e_0_energy">    -63.68263050 </i>
   </energy>
  </scstep>
  <scstep>
   <time name="dav">   27.82   28.98</time>
   <time name="total">   82.04   83.86</time>
   <energy>
    <i name="e_fr_energy">    -31.34194921 </i>
    <i name="e_wo_entrp">    -31.34194921 </i>
    <i name="e_0_energy">    -31.34194921 </i>
   </energy>
  </scstep>
  <scstep>
   <time name="dav">   32.30   32.61</time>
   <time name="total">   85.42   86.96</time>
   <energy>
    <i name="e_fr_energy">    -31.46034540 </i>
    <i name="e_wo_entrp">    -31.46034540 </i>
    <i name="e_0_energy">    -31.46034540 </i>
   </energy>
  </scstep>
  <scstep>
   <time name="dav">   26.68   26.80</time>
   <time name="total">   80.82   81.13</time>
   <energy>
    <i name="e_fr_energy">    -33.10566358 </i>
    <i name="e_wo_entrp">    -33.10566358 </i>
    <i name="e_0_energy">    -33.10566358 </i>
   </energy>
  </scstep>
  <scstep>
   <time name="dav">   30.13   30.35</time>
   <time name="total">   84.33   84.67</time>
   <energy>
    <i name="e_fr_energy">    -32.55914226 </i>
    <i name="e_wo_entrp">    -32.55914226 </i>
    <i name="e_0_energy">    -32.55914226 </i>
   </energy>
  </scstep>
  <scstep>
   <time name="dav">   27.70   27.77</time>
   <time name="total">   80.59   80.98</time>
   <energy>
    <i name="e_fr_energy">    -34.45479216 </i>
    <i name="e_wo_entrp">    -34.45479216 </i>
    <i name="e_0_energy">    -34.45479216 </i>
   </energy>
  </scstep>
  <scstep>
   <time name="dav">   25.97   26.19</time>
   <time name="total">   78.99   79.46</time>
   <energy>
    <i name="e_fr_energy">    -33.59263063 </i>
    <i name="e_wo_entrp">    -33.59263063 </i>
    <i name="e_0_energy">    -33.59263063 </i>
   </energy>
  </scstep>
  <scstep>
   <time name="dav">   28.50   28.59</time>
   <time name="total">   81.74   81.88</time>
   <energy>
    <i name="e_fr_energy">    -33.34956988 </i>
    <i name="e_wo_entrp">    -33.34956988 </i>
    <i name="e_0_energy">    -33.34956988 </i>
   </energy>
  </scstep>
  <scstep>
   <time name="dav">   32.57   32.76</time>
   <time name="total">   85.98   86.21</time>
   <energy>
    <i name="e_fr_energy">    -33.63632359 </i>
    <i name="e_wo_entrp">    -33.63632359 </i>
    <i name="e_0_energy">    -33.63632359 </i>
   </energy>
  </scstep>
  <scstep>
   <time name="dav">   28.36   28.42</time>
   <time name="total">   81.50   81.59</time>
   <energy>
    <i name="e_fr_energy">    -33.98550514 </i>
    <i name="e_wo_entrp">    -33.98550514 </i>
    <i name="e_0_energy">    -33.98550514 </i>
   </energy>
  </scstep>
  <scstep>
   <time name="dav">   25.74   25.77</time>
   <time name="total">   78.88   79.01</time>
   <energy>
    <i name="e_fr_energy">    -34.04224483 </i>
    <i name="e_wo_entrp">    -34.04224483 </i>
    <i name="e_0_energy">    -34.04224483 </i>
   </energy>
  </scstep>
  <scstep>
   <time name="dav">   25.94   26.07</time>
   <time name="total">   78.93   79.31</time>
   <energy>
    <i name="e_fr_energy">    -34.06486860 </i>
    <i name="e_wo_entrp">    -34.06486860 </i>
    <i name="e_0_energy">    -34.06486860 </i>
   </energy>
  </scstep>
  <scstep>
   <time name="dav">   23.44   23.47</time>
   <time name="total">   76.97   77.11</time>
   <energy>
    <i name="e_fr_energy">    -34.06480695 </i>
    <i name="e_wo_entrp">    -34.06480695 </i>
    <i name="e_0_energy">    -34.06480695 </i>
   </energy>
  </scstep>
  <scstep>
   <time name="dav">   27.02   27.28</time>
   <time name="total">   80.22   80.55</time>
   <energy>
    <i name="e_fr_energy">    -34.06418439 </i>
    <i name="e_wo_entrp">    -34.06418439 </i>
    <i name="e_0_energy">    -34.06418439 </i>
   </energy>
  </scstep>
  <scstep>
   <time name="dav">   28.34   28.47</time>
   <time name="total">   82.13   82.62</time>
   <energy>
    <i name="e_fr_energy">    -34.06610575 </i>
    <i name="e_wo_entrp">    -34.06610575 </i>
    <i name="e_0_energy">    -34.06610575 </i>
   </energy>
  </scstep>
  <scstep>
   <time name="dav">   24.40   25.05</time>
   <time name="total">   78.83   79.91</time>
   <energy>
    <i name="e_fr_energy">    -34.06779449 </i>
    <i name="e_wo_entrp">    -34.06779449 </i>
    <i name="e_0_energy">    -34.06779449 </i>
   </energy>
  </scstep>
  <scstep>
   <time name="dav">   23.45   23.53</time>
   <time name="total">   76.54   76.82</time>
   <energy>
    <i name="e_fr_energy">    -34.06845192 </i>
    <i name="e_wo_entrp">    -34.06845192 </i>
    <i name="e_0_energy">    -34.06845192 </i>
   </energy>
  </scstep>
  <scstep>
   <time name="dav">   21.31   21.37</time>
   <time name="total">   74.38   74.74</time>
   <energy>
    <i name="e_fr_energy">    -34.06881794 </i>
    <i name="e_wo_entrp">    -34.06881794 </i>
    <i name="e_0_energy">    -34.06881794 </i>
   </energy>
  </scstep>
  <scstep>
   <time name="dav">   20.87   21.21</time>
   <time name="total">   74.06   74.56</time>
   <energy>
    <i name="e_fr_energy">    -34.06929488 </i>
    <i name="e_wo_entrp">    -34.06929488 </i>
    <i name="e_0_energy">    -34.06929488 </i>
   </energy>
  </scstep>
  <scstep>
   <time name="dav">   22.48   22.62</time>
   <time name="total">   75.48   75.98</time>
   <energy>
    <i name="e_fr_energy">    -34.06997246 </i>
    <i name="e_wo_entrp">    -34.06997246 </i>
    <i name="e_0_energy">    -34.06997246 </i>
   </energy>
  </scstep>
  <scstep>
   <time name="dav">   20.80   20.96</time>
   <time name="total">   73.82   74.36</time>
   <energy>
    <i name="e_fr_energy">    -34.07019677 </i>
    <i name="e_wo_entrp">    -34.07019677 </i>
    <i name="e_0_energy">    -34.07019677 </i>
   </energy>
  </scstep>
  <scstep>
   <time name="dav">   20.18   20.26</time>
   <time name="total">   73.61   74.08</time>
   <energy>
    <i name="e_fr_energy">    -34.07037693 </i>
    <i name="e_wo_entrp">    -34.07037693 </i>
    <i name="e_0_energy">    -34.07037693 </i>
   </energy>
  </scstep>
  <scstep>
   <time name="dav">   19.91   20.05</time>
   <time name="total">   73.33   73.83</time>
   <energy>
    <i name="e_fr_energy">    -34.07056172 </i>
    <i name="e_wo_entrp">    -34.07056172 </i>
    <i name="e_0_energy">    -34.07056172 </i>
   </energy>
  </scstep>
  <scstep>
   <time name="dav">   19.80   19.99</time>
   <time name="total">   72.96   73.57</time>
   <energy>
    <i name="e_fr_energy">    -34.07046031 </i>
    <i name="e_wo_entrp">    -34.07046031 </i>
    <i name="e_0_energy">    -34.07046031 </i>
   </energy>
  </scstep>
  <scstep>
   <time name="dav">   19.81   19.90</time>
   <time name="total">   71.26   71.49</time>
   <energy>
    <i name="alphaZ">     40.05543433 </i>
    <i name="ewald">   8065.03639907 </i>
    <i name="hartreedc"> -11577.66630327 </i>
    <i name="XCdc">     31.58934794 </i>
    <i name="pawpsdc">   2451.95731833 </i>
    <i name="pawaedc">  -2464.96577273 </i>
    <i name="eentropy">      0.00000000 </i>
    <i name="bandstr">   -503.53560884 </i>
    <i name="atom">   3923.45879020 </i>
    <i name="e_fr_energy">    -34.07039498 </i>
    <i name="e_wo_entrp">    -34.07039498 </i>
    <i name="e_0_energy">    -34.07039498 </i>
   </energy>
  </scstep>
  <structure>
   <crystal>
    <varray name="basis" >
     <v>       6.90777700      -0.00000000       0.00000000 </v>
     <v>       3.45388800       5.98231000       0.00000000 </v>
     <v>       0.00000000       0.00000000      23.44458800 </v>
    </varray>
    <i name="volume">    968.83501932 </i>
    <varray name="rec_basis" >
     <v>       0.14476437      -0.08357974       0.00000000 </v>
     <v>       0.00000000       0.16715951      -0.00000000 </v>
     <v>      -0.00000000       0.00000000       0.04265377 </v>
    </varray>
   </crystal>
   <varray name="positions" >
    <v>       0.33333300       0.33333300       0.49992500 </v>
    <v>       0.66666700       0.66666700       0.50007500 </v>
    <v>       0.00000000       0.00000000       0.44821600 </v>
    <v>       0.00000000       0.00000000       0.55178400 </v>
    <v>       0.62635700       0.00042000       0.57375200 </v>
    <v>       0.00042000       0.37322400       0.57375200 </v>
    <v>       0.37322400       0.62635700       0.57375200 </v>
    <v>       0.37364300       0.99958000       0.42624800 </v>
    <v>       0.99958000       0.62677600       0.42624800 </v>
    <v>       0.62677600       0.37364300       0.42624800 </v>
   </varray>
  </structure>
  <varray name="forces" >
   <v>      -0.00000000      -0.00000000       0.03856004 </v>
   <v>      -0.00000000       0.00000000       0.02266888 </v>
   <v>      -0.00000000       0.00000000      -0.50074810 </v>
   <v>      -0.00000000       0.00000000       0.17984384 </v>
   <v>       0.43429399      -0.00458273      -1.22411848 </v>
   <v>      -0.22111573      -0.37381824      -1.22411848 </v>
   <v>      -0.21317826       0.37840098      -1.22411848 </v>
   <v>      -0.97890589       0.00534812       1.31067692 </v>
   <v>       0.49408448       0.84508326       1.31067692 </v>
   <v>       0.48482141      -0.85043138       1.31067692 </v>
  </varray>
  <varray name="stress" >
   <v>     -37.83302821      -0.00000221      -0.00000000 </v>
   <v>       0.00000853     -37.83302359       0.00000000 </v>
   <v>       0.00000000       0.00000000     -20.43304218 </v>
  </varray>
  <energy>
   <i name="e_fr_energy">    -34.07039498 </i>
   <i name="e_wo_entrp">    -34.07039498 </i>
   <i name="e_0_energy">      0.00000000 </i>
  </energy>
  <time name="totalsc"> 2387.43 2402.69</time>
 </calculation>
 <calculation>
  <scstep>
   <time name="dav">   30.65   30.86</time>
   <time name="total">   84.43   84.83</time>
   <energy>
    <i name="alphaZ">     53.81845770 </i>
    <i name="ewald">  10007.08019336 </i>
    <i name="hartreedc"> -13837.06642267 </i>
    <i name="XCdc">     48.26344026 </i>
    <i name="pawpsdc">   2451.96842435 </i>
    <i name="pawaedc">  -2464.97717453 </i>
    <i name="eentropy">      0.00000000 </i>
    <i name="bandstr">   -294.44249373 </i>
    <i name="atom">   3923.45879020 </i>
    <i name="e_fr_energy">   -111.89678506 </i>
    <i name="e_wo_entrp">   -111.89678506 </i>
    <i name="e_0_energy">   -111.89678506 </i>
   </energy>
  </scstep>
  <scstep>
   <time name="dav">   34.82   34.96</time>
   <time name="total">   88.89   89.17</time>
   <energy>
    <i name="e_fr_energy">   -334.51662672 </i>
    <i name="e_wo_entrp">   -334.51662672 </i>
    <i name="e_0_energy">   -334.51662672 </i>
   </energy>
  </scstep>
  <scstep>
   <time name="dav">   27.78   27.88</time>
   <time name="total">   81.71   81.90</time>
   <energy>
    <i name="e_fr_energy">    -80.88103012 </i>
    <i name="e_wo_entrp">    -80.88103012 </i>
    <i name="e_0_energy">    -80.88103012 </i>
   </energy>
  </scstep>
  <scstep>
   <time name="dav">   31.15   31.37</time>
   <time name="total">   85.15   85.52</time>
   <energy>
    <i name="e_fr_energy">    -40.09196021 </i>
    <i name="e_wo_entrp">    -40.09196021 </i>
    <i name="e_0_energy">    -40.09196021 </i>
   </energy>
  </scstep>
  <scstep>
   <time name="dav">   29.66   29.78</time>
   <time name="total">   83.75   83.92</time>
   <energy>
    <i name="e_fr_energy">    -38.40466137 </i>
    <i name="e_wo_entrp">    -38.40466137 </i>
    <i name="e_0_energy">    -38.40466137 </i>
   </energy>
  </scstep>
  <scstep>
   <time name="dav">   27.91   27.96</time>
   <time name="total">   81.95   82.22</time>
   <energy>
    <i name="e_fr_energy">    -37.88298494 </i>
    <i name="e_wo_entrp">    -37.88298494 </i>
    <i name="e_0_energy">    -37.88298494 </i>
   </energy>
  </scstep>
  <scstep>
   <time name="dav">   34.69   34.87</time>
   <time name="total">   88.57   88.92</time>
   <energy>
    <i name="e_fr_energy">    -37.72463656 </i>
    <i name="e_wo_entrp">    -37.72463656 </i>
    <i name="e_0_energy">    -37.72463656 </i>
   </energy>
  </scstep>
  <scstep>
   <time name="dav">   31.44   31.78</time>
   <time name="total">   85.30   86.01</time>
   <energy>
    <i name="e_fr_energy">    -37.48189344 </i>
    <i name="e_wo_entrp">    -37.48189344 </i>
    <i name="e_0_energy">    -37.48189344 </i>
   </energy>
  </scstep>
  <scstep>
   <time name="dav">   27.62   27.93</time>
   <time name="total">   81.12   82.03</time>
   <energy>
    <i name="e_fr_energy">    -37.38523766 </i>
    <i name="e_wo_entrp">    -37.38523766 </i>
    <i name="e_0_energy">    -37.38523766 </i>
   </energy>
  </scstep>
  <scstep>
   <time name="dav">   31.08   31.14</time>
   <time name="total">   84.72   85.20</time>
   <energy>
    <i name="e_fr_energy">    -37.48125360 </i>
    <i name="e_wo_entrp">    -37.48125360 </i>
    <i name="e_0_energy">    -37.48125360 </i>
   </energy>
  </scstep>
  <scstep>
   <time name="dav">   28.61   28.73</time>
   <time name="total">   82.34   82.81</time>
   <energy>
    <i name="e_fr_energy">    -37.47033018 </i>
    <i name="e_wo_entrp">    -37.47033018 </i>
    <i name="e_0_energy">    -37.47033018 </i>
   </energy>
  </scstep>
  <scstep>
   <time name="dav">   31.80   32.01</time>
   <time name="total">   85.89   86.26</time>
   <energy>
    <i name="e_fr_energy">    -37.47427978 </i>
    <i name="e_wo_entrp">    -37.47427978 </i>
    <i name="e_0_energy">    -37.47427978 </i>
   </energy>
  </scstep>
  <scstep>
   <time name="dav">   28.70   28.73</time>
   <time name="total">   82.59   82.75</time>
   <energy>
    <i name="e_fr_energy">    -37.47408296 </i>
    <i name="e_wo_entrp">    -37.47408296 </i>
    <i name="e_0_energy">    -37.47408296 </i>
   </energy>
  </scstep>
  <scstep>
   <time name="dav">   26.84   27.00</time>
   <time name="total">   80.91   81.14</time>
   <energy>
    <i name="e_fr_energy">    -37.46970496 </i>
    <i name="e_wo_entrp">    -37.46970496 </i>
    <i name="e_0_energy">    -37.46970496 </i>
   </energy>
  </scstep>
  <scstep>
   <time name="dav">   20.87   20.97</time>
   <time name="total">   74.59   75.05</time>
   <energy>
    <i name="e_fr_energy">    -37.47069699 </i>
    <i name="e_wo_entrp">    -37.47069699 </i>
    <i name="e_0_energy">    -37.47069699 </i>
   </energy>
  </scstep>
  <scstep>
   <time name="dav">   24.34   24.54</time>
   <time name="total">   78.15   78.73</time>
   <energy>
    <i name="e_fr_energy">    -37.47194800 </i>
    <i name="e_wo_entrp">    -37.47194800 </i>
    <i name="e_0_energy">    -37.47194800 </i>
   </energy>
  </scstep>
  <scstep>
   <time name="dav">   30.01   30.45</time>
   <time name="total">   83.63   84.62</time>
   <energy>
    <i name="e_fr_energy">    -37.47292122 </i>
    <i name="e_wo_entrp">    -37.47292122 </i>
    <i name="e_0_energy">    -37.47292122 </i>
   </energy>
  </scstep>
  <scstep>
   <time name="dav">   24.61   24.77</time>
   <time name="total">   78.16   78.76</time>
   <energy>
    <i name="e_fr_energy">    -37.47354718 </i>
    <i name="e_wo_entrp">    -37.47354718 </i>
    <i name="e_0_energy">    -37.47354718 </i>
   </energy>
  </scstep>
  <scstep>
   <time name="dav">   27.09   27.29</time>
   <time name="total">   81.07   81.45</time>
   <energy>
    <i name="e_fr_energy">    -37.47367010 </i>
    <i name="e_wo_entrp">    -37.47367010 </i>
    <i name="e_0_energy">    -37.47367010 </i>
   </energy>
  </scstep>
  <scstep>
   <time name="dav">   25.31   25.47</time>
   <time name="total">   78.76   79.55</time>
   <energy>
    <i name="e_fr_energy">    -37.47289545 </i>
    <i name="e_wo_entrp">    -37.47289545 </i>
    <i name="e_0_energy">    -37.47289545 </i>
   </energy>
  </scstep>
  <scstep>
   <time name="dav">   29.05   29.15</time>
   <time name="total">   83.03   83.30</time>
   <energy>
    <i name="e_fr_energy">    -37.47147195 </i>
    <i name="e_wo_entrp">    -37.47147195 </i>
    <i name="e_0_energy">    -37.47147195 </i>
   </energy>
  </scstep>
  <scstep>
   <time name="dav">   27.70   27.82</time>
   <time name="total">   81.52   81.85</time>
   <energy>
    <i name="e_fr_energy">    -37.47008251 </i>
    <i name="e_wo_entrp">    -37.47008251 </i>
    <i name="e_0_energy">    -37.47008251 </i>
   </energy>
  </scstep>
  <scstep>
   <time name="dav">   28.67   28.88</time>
   <time name="total">   82.59   83.06</time>
   <energy>
    <i name="e_fr_energy">    -37.47286818 </i>
    <i name="e_wo_entrp">    -37.47286818 </i>
    <i name="e_0_energy">    -37.47286818 </i>
   </energy>
  </scstep>
  <scstep>
   <time name="dav">   33.87   33.99</time>
   <time name="total">   87.73   88.05</time>
   <energy>
    <i name="e_fr_energy">    -37.47285874 </i>
    <i name="e_wo_entrp">    -37.47285874 </i>
    <i name="e_0_energy">    -37.47285874 </i>
   </energy>
  </scstep>
  <scstep>
   <time name="dav">   28.22   28.46</time>
   <time name="total">   81.80   82.47</time>
   <energy>
    <i name="e_fr_energy">    -37.47157102 </i>
    <i name="e_wo_entrp">    -37.47157102 </i>
    <i name="e_0_energy">    -37.47157102 </i>
   </energy>
  </scstep>
  <scstep>
   <time name="dav">   29.88   30.07</time>
   <time name="total">   83.94   84.25</time>
   <energy>
    <i name="e_fr_energy">    -37.46941090 </i>
    <i name="e_wo_entrp">    -37.46941090 </i>
    <i name="e_0_energy">    -37.46941090 </i>
   </energy>
  </scstep>
  <scstep>
   <time name="dav">   22.94   23.25</time>
   <time name="total">   76.62   77.25</time>
   <energy>
    <i name="e_fr_energy">    -37.47078384 </i>
    <i name="e_wo_entrp">    -37.47078384 </i>
    <i name="e_0_energy">    -37.47078384 </i>
   </energy>
  </scstep>
  <scstep>
   <time name="dav">   25.00   25.15</time>
   <time name="total">   79.08   79.37</time>
   <energy>
    <i name="e_fr_energy">    -37.47200385 </i>
    <i name="e_wo_entrp">    -37.47200385 </i>
    <i name="e_0_energy">    -37.47200385 </i>
   </energy>
  </scstep>
  <scstep>
   <time name="dav">   27.38   27.55</time>
   <time name="total">   82.48   82.75</time>
   <energy>
    <i name="e_fr_energy">    -37.47273309 </i>
    <i name="e_wo_entrp">    -37.47273309 </i>
    <i name="e_0_energy">    -37.47273309 </i>
   </energy>
  </scstep>
  <scstep>
   <time name="dav">   22.79   22.85</time>
   <time name="total">   77.33   77.95</time>
   <energy>
    <i name="e_fr_energy">    -37.47297824 </i>
    <i name="e_wo_entrp">    -37.47297824 </i>
    <i name="e_0_energy">    -37.47297824 </i>
   </energy>
  </scstep>
  <scstep>
   <time name="dav">   21.94   22.06</time>
   <time name="total">   74.93   75.46</time>
   <energy>
    <i name="alphaZ">     53.81845770 </i>
    <i name="ewald">  10007.08019336 </i>
    <i name="hartreedc"> -13550.93097684 </i>
    <i name="XCdc">     37.58101329 </i>
    <i name="pawpsdc">   2598.62511645 </i>
    <i name="pawaedc">  -2614.48454963 </i>
    <i name="eentropy">      0.00000000 </i>
    <i name="bandstr">   -492.62109898 </i>
    <i name="atom">   3923.45879020 </i>
    <i name="e_fr_energy">    -37.47305445 </i>
    <i name="e_wo_entrp">    -37.47305445 </i>
    <i name="e_0_energy">    -37.47305445 </i>
   </energy>
  </scstep>
  <structure>
   <crystal>
    <varray name="basis" >
     <v>       6.14538233      -0.00000004      -0.00000000 </v>
     <v>       3.07269087       5.32205695      -0.00000000 </v>
     <v>       0.00000000       0.00000000      22.04710647 </v>
    </varray>
    <i name="volume">    721.07431446 </i>
    <varray name="rec_basis" >
     <v>       0.16272381      -0.09394863       0.00000000 </v>
     <v>       0.00000000       0.18789727      -0.00000000 </v>
     <v>       0.00000000      -0.00000000       0.04535743 </v>
    </varray>
   </crystal>
   <varray name="positions" >
    <v>       0.33333300       0.33333300       0.50000435 </v>
    <v>       0.66666700       0.66666700       0.50012165 </v>
    <v>      -0.00000000       0.00000000       0.44718560 </v>
    <v>       0.00000000       0.00000000       0.55178400 </v>
    <v>       0.62940851       0.00038304       0.57123309 </v>
    <v>       0.00038304       0.37020945       0.57123309 </v>
    <v>       0.37020945       0.62940851       0.57123309 </v>
    <v>       0.36678494       0.99962313       0.42894502 </v>
    <v>       0.99962313       0.63359094       0.42894502 </v>
    <v>       0.63359094       0.36678494       0.42894502 </v>
   </varray>
  </structure>
  <varray name="forces" >
   <v>       0.00000000      -0.00000000       0.03592302 </v>
   <v>       0.00000000      -0.00000000       0.04259617 </v>
   <v>       0.00000000      -0.00000000      -0.48970175 </v>
   <v>       0.00000000      -0.00000000       0.07146026 </v>
   <v>      -1.15167817      -0.06019296       0.14120185 </v>
   <v>       0.52371039       1.02747899       0.14120185 </v>
   <v>       0.62796778      -0.96728603       0.14120185 </v>
   <v>       0.23524752      -0.04377696      -0.02796108 </v>
   <v>      -0.15553571      -0.18184184      -0.02796108 </v>
   <v>      -0.07971182       0.22561880      -0.02796108 </v>
  </varray>
  <varray name="stress" >
   <v>      12.78711467       0.00000192       0.00000000 </v>
   <v>      -0.00000353      12.78711350       0.00000000 </v>
   <v>       0.00000000       0.00000000       5.52666993 </v>
  </varray>
  <energy>
   <i name="e_fr_energy">    -37.47305445 </i>
   <i name="e_wo_entrp">    -37.47305445 </i>
   <i name="e_0_energy">      0.00000000 </i>
  </energy>
  <time name="totalsc"> 2679.26 2693.68</time>
 </calculation>
 <calculation>
  <scstep>
   <time name="dav">   28.24   28.49</time>
   <time name="total">   81.82   82.36</time>
   <energy>
    <i name="alphaZ">     51.88464010 </i>
    <i name="ewald">   9740.59743029 </i>
    <i name="hartreedc"> -13248.57892555 </i>
    <i name="XCdc">     35.57397576 </i>
    <i name="pawpsdc">   2598.47983860 </i>
    <i name="pawaedc">  -2614.34596565 </i>
    <i name="eentropy">      0.00000000 </i>
    <i name="bandstr">   -525.53528095 </i>
    <i name="atom">   3923.45879020 </i>
    <i name="e_fr_energy">    -38.46549720 </i>
    <i name="e_wo_entrp">    -38.46549720 </i>
    <i name="e_0_energy">    -38.46549720 </i>
   </energy>
  </scstep>
  <scstep>
   <time name="dav">   27.77   27.87</time>
   <time name="total">   81.40   81.81</time>
   <energy>
    <i name="e_fr_energy">    -43.34818671 </i>
    <i name="e_wo_entrp">    -43.34818671 </i>
    <i name="e_0_energy">    -43.34818671 </i>
   </energy>
  </scstep>
  <scstep>
   <time name="dav">   35.58   35.72</time>
   <time name="total">   89.34   89.73</time>
   <energy>
    <i name="e_fr_energy">   -451.48603329 </i>
    <i name="e_wo_entrp">   -451.48603329 </i>
    <i name="e_0_energy">   -451.48603329 </i>
   </energy>
  </scstep>
  <scstep>
   <time name="dav">   30.38   30.53</time>
   <time name="total">   84.14   84.46</time>
   <energy>
    <i name="e_fr_energy">   -124.45545939 </i>
    <i name="e_wo_entrp">   -124.45545939 </i>
    <i name="e_0_energy">   -124.45545939 </i>
   </energy>
  </scstep>
  <scstep>
   <time name="dav">   25.04   25.43</time>
   <time name="total">   78.75   79.33</time>
   <energy>
    <i name="e_fr_energy">    -37.29675207 </i>
    <i name="e_wo_entrp">    -37.29675207 </i>
    <i name="e_0_energy">    -37.29675207 </i>
   </energy>
  </scstep>
  <scstep>
   <time name="dav">   25.80   25.94</time>
   <time name="total">   79.25   80.00</time>
   <energy>
    <i name="e_fr_energy">    -37.65594358 </i>
    <i name="e_wo_entrp">    -37.65594358 </i>
    <i name="e_0_energy">    -37.65594358 </i>
   </energy>
  </scstep>
  <scstep>
   <time name="dav">   27.05   27.17</time>
   <time name="total">   80.27   81.24</time>
   <energy>
    <i name="e_fr_energy">    -37.52839188 </i>
    <i name="e_wo_entrp">    -37.52839188 </i>
    <i name="e_0_energy">    -37.52839188 </i>
   </energy>
  </scstep>
  <scstep>
   <time name="dav">   31.58   31.70</time>
   <time name="total">   85.18   85.75</time>
   <energy>
    <i name="e_fr_energy">    -37.50506841 </i>
    <i name="e_wo_entrp">    -37.50506841 </i>
    <i name="e_0_energy">    -37.50506841 </i>
   </energy>
  </scstep>
  <scstep>
   <time name="dav">   26.50   26.73</time>
   <time name="total">   80.16   80.64</time>
   <energy>
    <i name="e_fr_energy">    -37.50093939 </i>
    <i name="e_wo_entrp">    -37.50093939 </i>
    <i name="e_0_energy">    -37.50093939 </i>
   </energy>
  </scstep>
  <scstep>
   <time name="dav">   26.40   26.81</time>
   <time name="total">   79.91   80.78</time>
   <energy>
    <i name="e_fr_energy">    -37.49975212 </i>
    <i name="e_wo_entrp">    -37.49975212 </i>
    <i name="e_0_energy">    -37.49975212 </i>
   </energy>
  </scstep>
  <scstep>
   <time name="dav">   26.00   26.09</time>
   <time name="total">   79.84   80.11</time>
   <energy>
    <i name="e_fr_energy">    -37.39338357 </i>
    <i name="e_wo_entrp">    -37.39338357 </i>
    <i name="e_0_energy">    -37.39338357 </i>
   </energy>
  </scstep>
  <scstep>
   <time name="dav">   29.67   29.82</time>
   <time name="total">   83.37   83.75</time>
   <energy>
    <i name="e_fr_energy">    -37.50744863 </i>
    <i name="e_wo_entrp">    -37.50744863 </i>
    <i name="e_0_energy">    -37.50744863 </i>
   </energy>
  </scstep>
  <scstep>
   <time name="dav">   27.52   27.67</time>
   <time name="total">   81.58   81.97</time>
   <energy>
    <i name="e_fr_energy">    -37.49917725 </i>
    <i name="e_wo_entrp">    -37.49917725 </i>
    <i name="e_0_energy">    -37.49917725 </i>
   </energy>
  </scstep>
  <scstep>
   <time name="dav">   28.72   28.85</time>
   <time name="total">   82.72   82.87</time>
   <energy>
    <i name="e_fr_energy">    -37.49772435 </i>
    <i name="e_wo_entrp">    -37.49772435 </i>
    <i name="e_0_energy">    -37.49772435 </i>
   </energy>
  </scstep>
  <scstep>
   <time name="dav">   25.95   26.05</time>
   <time name="total">   79.61   80.01</time>
   <energy>
    <i name="e_fr_energy">    -37.50385626 </i>
    <i name="e_wo_entrp">    -37.50385626 </i>
    <i name="e_0_energy">    -37.50385626 </i>
   </energy>
  </scstep>
  <scstep>
   <time name="dav">   24.50   24.78</time>
   <time name="total">   78.53   78.86</time>
   <energy>
    <i name="e_fr_energy">    -37.50846425 </i>
    <i name="e_wo_entrp">    -37.50846425 </i>
    <i name="e_0_energy">    -37.50846425 </i>
   </energy>
  </scstep>
  <scstep>
   <time name="dav">   27.67   27.88</time>
   <time name="total">   81.39   82.01</time>
   <energy>
    <i name="e_fr_energy">    -37.51369735 </i>
    <i name="e_wo_entrp">    -37.51369735 </i>
    <i name="e_0_energy">    -37.51369735 </i>
   </energy>
  </scstep>
  <scstep>
   <time name="dav">   27.98   28.11</time>
   <time name="total">   82.12   82.43</time>
   <energy>
    <i name="e_fr_energy">    -37.51605188 </i>
    <i name="e_wo_entrp">    -37.51605188 </i>
    <i name="e_0_energy">    -37.51605188 </i>
   </energy>
  </scstep>
  <scstep>
   <time name="dav">   23.86   24.06</time>
   <time name="total">   78.07   78.41</time>
   <energy>
    <i name="e_fr_energy">    -37.51788022 </i>
    <i name="e_wo_entrp">    -37.51788022 </i>
    <i name="e_0_energy">    -37.51788022 </i>
   </energy>
  </scstep>
  <scstep>
   <time name="dav">   21.89   22.03</time>
   <time name="total">   75.78   76.06</time>
   <energy>
    <i name="e_fr_energy">    -37.51851902 </i>
    <i name="e_wo_entrp">    -37.51851902 </i>
    <i name="e_0_energy">    -37.51851902 </i>
   </energy>
  </scstep>
  <scstep>
   <time name="dav">   22.68   22.87</time>
   <time name="total">   77.34   77.96</time>
   <energy>
    <i name="e_fr_energy">    -37.51910734 </i>
    <i name="e_wo_entrp">    -37.51910734 </i>
    <i name="e_0_energy">    -37.51910734 </i>
   </energy>
  </scstep>
  <scstep>
   <time name="dav">   21.71   21.77</time>
   <time name="total">   75.46   76.72</time>
   <energy>
    <i name="e_fr_energy">    -37.51923444 </i>
    <i name="e_wo_entrp">    -37.51923444 </i>
    <i name="e_0_energy">    -37.51923444 </i>
   </energy>
  </scstep>
  <scstep>
   <time name="dav">   20.95   21.09</time>
   <time name="total">   74.98   76.36</time>
   <energy>
    <i name="e_fr_energy">    -37.52035920 </i>
    <i name="e_wo_entrp">    -37.52035920 </i>
    <i name="e_0_energy">    -37.52035920 </i>
   </energy>
  </scstep>
  <scstep>
   <time name="dav">   23.43   23.69</time>
   <time name="total">   77.14   77.78</time>
   <energy>
    <i name="e_fr_energy">    -37.52259727 </i>
    <i name="e_wo_entrp">    -37.52259727 </i>
    <i name="e_0_energy">    -37.52259727 </i>
   </energy>
  </scstep>
  <scstep>
   <time name="dav">   24.40   24.80</time>
   <time name="total">   78.34   79.04</time>
   <energy>
    <i name="e_fr_energy">    -37.52248836 </i>
    <i name="e_wo_entrp">    -37.52248836 </i>
    <i name="e_0_energy">    -37.52248836 </i>
   </energy>
  </scstep>
  <scstep>
   <time name="dav">   24.56   24.63</time>
   <time name="total">   76.12   76.50</time>
   <energy>
    <i name="alphaZ">     51.88464010 </i>
    <i name="ewald">   9740.59743029 </i>
    <i name="hartreedc"> -13281.37179648 </i>
    <i name="XCdc">     36.75726212 </i>
    <i name="pawpsdc">   2572.82391881 </i>
    <i name="pawaedc">  -2588.23884831 </i>
    <i name="eentropy">      0.00000000 </i>
    <i name="bandstr">   -493.43394640 </i>
    <i name="atom">   3923.45879020 </i>
    <i name="e_fr_energy">    -37.52254967 </i>
    <i name="e_wo_entrp">    -37.52254967 </i>
    <i name="e_0_energy">    -37.52254967 </i>
   </energy>
  </scstep>
  <structure>
   <crystal>
    <varray name="basis" >
     <v>       6.23553358      -0.00000004      -0.00000000 </v>
     <v>       3.11776647       5.40013021      -0.00000000 </v>
     <v>       0.00000000       0.00000000      22.21235516 </v>
    </varray>
    <i name="volume">    747.94982520 </i>
    <varray name="rec_basis" >
     <v>       0.16037120      -0.09259035       0.00000000 </v>
     <v>       0.00000000       0.18518072      -0.00000000 </v>
     <v>       0.00000000      -0.00000000       0.04501999 </v>
    </varray>
   </crystal>
   <varray name="positions" >
    <v>       0.33333300       0.33333300       0.49999437 </v>
    <v>       0.66666700       0.66666700       0.50011578 </v>
    <v>      -0.00000000      -0.00000000       0.44731516 </v>
    <v>       0.00000000       0.00000000       0.55178400 </v>
    <v>       0.62900291       0.00038796       0.57154983 </v>
    <v>       0.00038796       0.37061013       0.57154983 </v>
    <v>       0.37061013       0.62900291       0.57154983 </v>
    <v>       0.36769649       0.99961740       0.42860589 </v>
    <v>       0.99961740       0.63268511       0.42860589 </v>
    <v>       0.63268511       0.36769649       0.42860589 </v>
   </varray>
  </structure>
  <varray name="forces" >
   <v>       0.00000000       0.00000000       0.04682011 </v>
   <v>       0.00000000       0.00000000       0.04805101 </v>
   <v>       0.00000000       0.00000000      -0.54744033 </v>
   <v>       0.00000000       0.00000000       0.13436402 </v>
   <v>      -0.88099668      -0.02093101      -0.11891438 </v>
   <v>       0.42237150       0.77343098      -0.11891438 </v>
   <v>       0.45862518      -0.75249996      -0.11891438 </v>
   <v>       0.00334958      -0.00637870       0.22498278 </v>
   <v>      -0.00719891       0.00028853       0.22498278 </v>
   <v>       0.00384933       0.00609017       0.22498278 </v>
  </varray>
  <varray name="stress" >
   <v>       0.00288440       0.00000611      -0.00000000 </v>
   <v>      -0.00000611       0.00288440       0.00000000 </v>
   <v>      -0.00000000      -0.00000000      -1.33125476 </v>
  </varray>
  <energy>
   <i name="e_fr_energy">    -37.52254967 </i>
   <i name="e_wo_entrp">    -37.52254967 </i>
   <i name="e_0_energy">      0.00000000 </i>
  </energy>
  <time name="totalsc"> 2218.10 2233.02</time>
 </calculation>
 <calculation>
  <scstep>
   <time name="dav">   23.74   23.85</time>
   <time name="total">   77.70   78.10</time>
   <energy>
    <i name="alphaZ">     52.21469032 </i>
    <i name="ewald">   9746.12402397 </i>
    <i name="hartreedc"> -13297.94212092 </i>
    <i name="XCdc">     37.11377526 </i>
    <i name="pawpsdc">   2572.85261216 </i>
    <i name="pawaedc">  -2588.26688055 </i>
    <i name="eentropy">      0.00000000 </i>
    <i name="bandstr">   -483.19325256 </i>
    <i name="atom">   3923.45879020 </i>
    <i name="e_fr_energy">    -37.63836214 </i>
    <i name="e_wo_entrp">    -37.63836214 </i>
    <i name="e_0_energy">    -37.63836214 </i>
   </energy>
  </scstep>
  <scstep>
   <time name="dav">   28.83   28.89</time>
   <time name="total">   82.77   82.92</time>
   <energy>
    <i name="e_fr_energy">    -37.85511215 </i>
    <i name="e_wo_entrp">    -37.85511215 </i>
    <i name="e_0_energy">    -37.85511215 </i>
   </energy>
  </scstep>
  <scstep>
   <time name="dav">   28.04   28.09</time>
   <time name="total">   82.14   82.24</time>
   <energy>
    <i name="e_fr_energy">    -37.63971325 </i>
    <i name="e_wo_entrp">    -37.63971325 </i>
    <i name="e_0_energy">    -37.63971325 </i>
   </energy>
  </scstep>
  <scstep>
   <time name="dav">   31.68   31.94</time>
   <time name="total">   85.58   85.93</time>
   <energy>
    <i name="e_fr_energy">    -37.64498194 </i>
    <i name="e_wo_entrp">    -37.64498194 </i>
    <i name="e_0_energy">    -37.64498194 </i>
   </energy>
  </scstep>
  <scstep>
   <time name="dav">   28.12   29.05</time>
   <time name="total">   81.73   82.83</time>
   <energy>
    <i name="e_fr_energy">    -37.63824006 </i>
    <i name="e_wo_entrp">    -37.63824006 </i>
    <i name="e_0_energy">    -37.63824006 </i>
   </energy>
  </scstep>
  <scstep>
   <time name="dav">   26.36   26.53</time>
   <time name="total">   79.97   80.43</time>
   <energy>
    <i name="e_fr_energy">    -37.63878498 </i>
    <i name="e_wo_entrp">    -37.63878498 </i>
    <i name="e_0_energy">    -37.63878498 </i>
   </energy>
  </scstep>
  <scstep>
   <time name="dav">   24.52   24.63</time>
   <time name="total">   76.29   76.46</time>
   <energy>
    <i name="alphaZ">     52.21469032 </i>
    <i name="ewald">   9746.12402397 </i>
    <i name="hartreedc"> -13291.52923591 </i>
    <i name="XCdc">     36.86206544 </i>
    <i name="pawpsdc">   2577.79370937 </i>
    <i name="pawaedc">  -2593.31385531 </i>
    <i name="eentropy">      0.00000000 </i>
    <i name="bandstr">   -489.24891169 </i>
    <i name="atom">   3923.45879020 </i>
    <i name="e_fr_energy">    -37.63872362 </i>
    <i name="e_wo_entrp">    -37.63872362 </i>
    <i name="e_0_energy">    -37.63872362 </i>
   </energy>
  </scstep>
  <structure>
   <crystal>
    <varray name="basis" >
     <v>       6.22718237       0.00000004      -0.00000000 </v>
     <v>       3.11359080       5.39289789       0.00000000 </v>
     <v>      -0.00000000      -0.00000000      22.13119101 </v>
    </varray>
    <i name="volume">    743.22201775 </i>
    <varray name="rec_basis" >
     <v>       0.16058627      -0.09271452       0.00000000 </v>
     <v>      -0.00000000       0.18542906       0.00000000 </v>
     <v>       0.00000000      -0.00000000       0.04518510 </v>
    </varray>
   </crystal>
   <varray name="positions" >
    <v>       0.33333300       0.33333300       0.50009467 </v>
    <v>       0.66666700       0.66666700       0.50021827 </v>
    <v>       0.00000000       0.00000000       0.44614104 </v>
    <v>       0.00000000       0.00000000       0.55178400 </v>
    <v>       0.62248057       0.00020489       0.57126525 </v>
    <v>       0.00020489       0.37731554       0.57126525 </v>
    <v>       0.37731554       0.62248057       0.57126525 </v>
    <v>       0.36765698       0.99956234       0.42911768 </v>
    <v>       0.99956234       0.63277968       0.42911768 </v>
    <v>       0.63277968       0.36765698       0.42911768 </v>
   </varray>
  </structure>
  <varray name="forces" >
   <v>       0.00000000      -0.00000000       0.06477283 </v>
   <v>       0.00000000      -0.00000000       0.06466695 </v>
   <v>       0.00000000      -0.00000000      -0.26061252 </v>
   <v>       0.00000000      -0.00000000       0.20250244 </v>
   <v>      -0.49522433      -0.01387786      -0.11966185 </v>
   <v>       0.23559356       0.43581576      -0.11966185 </v>
   <v>       0.25963077      -0.42193790      -0.11966185 </v>
   <v>       0.04897386      -0.00033654       0.09588529 </v>
   <v>      -0.02477838      -0.04224433       0.09588529 </v>
   <v>      -0.02419548       0.04258088       0.09588529 </v>
  </varray>
  <varray name="stress" >
   <v>      -0.57830178       0.00000264      -0.00000000 </v>
   <v>      -0.00000257      -0.57830172      -0.00000000 </v>
   <v>      -0.00000000      -0.00000000      -2.16647348 </v>
  </varray>
  <energy>
   <i name="e_fr_energy">    -37.63872362 </i>
   <i name="e_wo_entrp">    -37.63872362 </i>
   <i name="e_0_energy">      0.00000000 </i>
  </energy>
  <time name="totalsc">  701.20  704.79</time>
 </calculation>
 <calculation>
  <scstep>
   <time name="dav">   23.28   23.49</time>
   <time name="total">   76.98   77.55</time>
   <energy>
    <i name="alphaZ">     52.39706257 </i>
    <i name="ewald">   9749.23813904 </i>
    <i name="hartreedc"> -13299.53040540 </i>
    <i name="XCdc">     37.05045914 </i>
    <i name="pawpsdc">   2578.44094086 </i>
    <i name="pawaedc">  -2593.98771670 </i>
    <i name="eentropy">      0.00000000 </i>
    <i name="bandstr">   -484.74034858 </i>
    <i name="atom">   3923.45879020 </i>
    <i name="e_fr_energy">    -37.67307886 </i>
    <i name="e_wo_entrp">    -37.67307886 </i>
    <i name="e_0_energy">    -37.67307886 </i>
   </energy>
  </scstep>
  <scstep>
   <time name="dav">   26.12   26.33</time>
   <time name="total">   79.88   80.40</time>
   <energy>
    <i name="e_fr_energy">    -37.71610479 </i>
    <i name="e_wo_entrp">    -37.71610479 </i>
    <i name="e_0_energy">    -37.71610479 </i>
   </energy>
  </scstep>
  <scstep>
   <time name="dav">   22.98   23.08</time>
   <time name="total">   76.76   77.11</time>
   <energy>
    <i name="e_fr_energy">    -37.67238070 </i>
    <i name="e_wo_entrp">    -37.67238070 </i>
    <i name="e_0_energy">    -37.67238070 </i>
   </energy>
  </scstep>
  <scstep>
   <time name="dav">   28.18   28.35</time>
   <time name="total">   82.24   82.63</time>
   <energy>
    <i name="e_fr_energy">    -37.67139306 </i>
    <i name="e_wo_entrp">    -37.67139306 </i>
    <i name="e_0_energy">    -37.67139306 </i>
   </energy>
  </scstep>
  <scstep>
   <time name="dav">   25.05   25.07</time>
   <time name="total">   78.75   79.17</time>
   <energy>
    <i name="e_fr_energy">    -37.67187632 </i>
    <i name="e_wo_entrp">    -37.67187632 </i>
    <i name="e_0_energy">    -37.67187632 </i>
   </energy>
  </scstep>
  <scstep>
   <time name="dav">   23.40   23.48</time>
   <time name="total">   77.40   77.69</time>
   <energy>
    <i name="e_fr_energy">    -37.67111279 </i>
    <i name="e_wo_entrp">    -37.67111279 </i>
    <i name="e_0_energy">    -37.67111279 </i>
   </energy>
  </scstep>
  <scstep>
   <time name="dav">   20.95   21.08</time>
   <time name="total">   74.81   75.04</time>
   <energy>
    <i name="e_fr_energy">    -37.67127901 </i>
    <i name="e_wo_entrp">    -37.67127901 </i>
    <i name="e_0_energy">    -37.67127901 </i>
   </energy>
  </scstep>
  <scstep>
   <time name="dav">   21.66   21.68</time>
   <time name="total">   75.84   75.98</time>
   <energy>
    <i name="e_fr_energy">    -37.67139578 </i>
    <i name="e_wo_entrp">    -37.67139578 </i>
    <i name="e_0_energy">    -37.67139578 </i>
   </energy>
  </scstep>
  <scstep>
   <time name="dav">   21.84   21.91</time>
   <time name="total">   75.60   75.79</time>
   <energy>
    <i name="e_fr_energy">    -37.67160288 </i>
    <i name="e_wo_entrp">    -37.67160288 </i>
    <i name="e_0_energy">    -37.67160288 </i>
   </energy>
  </scstep>
  <scstep>
   <time name="dav">   22.38   22.57</time>
   <time name="total">   76.29   76.56</time>
   <energy>
    <i name="e_fr_energy">    -37.67185014 </i>
    <i name="e_wo_entrp">    -37.67185014 </i>
    <i name="e_0_energy">    -37.67185014 </i>
   </energy>
  </scstep>
  <scstep>
   <time name="dav">   22.69   22.80</time>
   <time name="total">   76.65   76.86</time>
   <energy>
    <i name="e_fr_energy">    -37.67209292 </i>
    <i name="e_wo_entrp">    -37.67209292 </i>
    <i name="e_0_energy">    -37.67209292 </i>
   </energy>
  </scstep>
  <scstep>
   <time name="dav">   21.36   21.47</time>
   <time name="total">   75.17   75.38</time>
   <energy>
    <i name="e_fr_energy">    -37.67224907 </i>
    <i name="e_wo_entrp">    -37.67224907 </i>
    <i name="e_0_energy">    -37.67224907 </i>
   </energy>
  </scstep>
  <scstep>
   <time name="dav">   20.58   20.61</time>
   <time name="total">   72.22   72.28</time>
   <energy>
    <i name="alphaZ">     52.39706257 </i>
    <i name="ewald">   9749.23813904 </i>
    <i name="hartreedc"> -13293.47774986 </i>
    <i name="XCdc">     36.89258537 </i>
    <i name="pawpsdc">   2582.40100743 </i>
    <i name="pawaedc">  -2598.02389072 </i>
    <i name="eentropy">      0.00000000 </i>
    <i name="bandstr">   -490.55824344 </i>
    <i name="atom">   3923.45879020 </i>
    <i name="e_fr_energy">    -37.67229940 </i>
    <i name="e_wo_entrp">    -37.67229940 </i>
    <i name="e_0_energy">    -37.67229940 </i>
   </energy>
  </scstep>
  <structure>
   <crystal>
    <varray name="basis" >
     <v>       6.22259998       0.00000009      -0.00000000 </v>
     <v>       3.11129956       5.38892945       0.00000000 </v>
     <v>      -0.00000000      -0.00000000      22.08665543 </v>
    </varray>
    <i name="volume">    740.63517287 </i>
    <varray name="rec_basis" >
     <v>       0.16070453      -0.09278279       0.00000000 </v>
     <v>      -0.00000000       0.18556562       0.00000000 </v>
     <v>       0.00000000      -0.00000000       0.04527621 </v>
    </varray>
   </crystal>
   <varray name="positions" >
    <v>       0.33333300       0.33333300       0.50014991 </v>
    <v>       0.66666700       0.66666700       0.50027472 </v>
    <v>       0.00000000       0.00000000       0.44549443 </v>
    <v>       0.00000000       0.00000000       0.55178400 </v>
    <v>       0.61889690       0.00010430       0.57110853 </v>
    <v>       0.00010430       0.38099980       0.57110853 </v>
    <v>       0.38099980       0.61889690       0.57110853 </v>
    <v>       0.36763527       0.99953209       0.42939953 </v>
    <v>       0.99953209       0.63283164       0.42939953 </v>
    <v>       0.63283164       0.36763527       0.42939953 </v>
   </varray>
  </structure>
  <varray name="forces" >
   <v>       0.00000000      -0.00000000       0.07174291 </v>
   <v>       0.00000000      -0.00000000       0.06907942 </v>
   <v>       0.00000000      -0.00000000      -0.12146901 </v>
   <v>       0.00000000      -0.00000000       0.23857133 </v>
   <v>      -0.29274897      -0.01224341      -0.11017507 </v>
   <v>       0.13577136       0.25964974      -0.11017507 </v>
   <v>       0.15697761      -0.24740632      -0.11017507 </v>
   <v>       0.07469847       0.00122448       0.02420019 </v>
   <v>      -0.03628880      -0.06530301       0.02420019 </v>
   <v>      -0.03840967       0.06407853       0.02420019 </v>
  </varray>
  <varray name="stress" >
   <v>       0.15571769       0.00000059       0.00000000 </v>
   <v>      -0.00000061       0.15571767       0.00000000 </v>
   <v>       0.00000000       0.00000000      -0.65858174 </v>
  </varray>
  <energy>
   <i name="e_fr_energy">    -37.67229940 </i>
   <i name="e_wo_entrp">    -37.67229940 </i>
   <i name="e_0_energy">      0.00000000 </i>
  </energy>
  <time name="totalsc"> 1134.53 1138.56</time>
 </calculation>
 <calculation>
  <scstep>
   <time name="dav">   24.46   24.48</time>
   <time name="total">   78.32   78.45</time>
   <energy>
    <i name="alphaZ">     52.76453647 </i>
    <i name="ewald">   9755.53924287 </i>
    <i name="hartreedc"> -13309.94545779 </i>
    <i name="XCdc">     37.28920517 </i>
    <i name="pawpsdc">   2582.39892468 </i>
    <i name="pawaedc">  -2598.02437814 </i>
    <i name="eentropy">      0.00000000 </i>
    <i name="bandstr">   -481.17382164 </i>
    <i name="atom">   3923.45879020 </i>
    <i name="e_fr_energy">    -37.69295819 </i>
    <i name="e_wo_entrp">    -37.69295819 </i>
    <i name="e_0_energy">    -37.69295819 </i>
   </energy>
  </scstep>
  <scstep>
   <time name="dav">   27.85   28.00</time>
   <time name="total">   81.38   82.15</time>
   <energy>
    <i name="e_fr_energy">    -37.86594948 </i>
    <i name="e_wo_entrp">    -37.86594948 </i>
    <i name="e_0_energy">    -37.86594948 </i>
   </energy>
  </scstep>
  <scstep>
   <time name="dav">   25.85   26.10</time>
   <time name="total">   79.61   80.06</time>
   <energy>
    <i name="e_fr_energy">    -37.78760668 </i>
    <i name="e_wo_entrp">    -37.78760668 </i>
    <i name="e_0_energy">    -37.78760668 </i>
   </energy>
  </scstep>
  <scstep>
   <time name="dav">   34.84   35.20</time>
   <time name="total">   88.84   89.38</time>
   <energy>
    <i name="e_fr_energy">    -37.71282107 </i>
    <i name="e_wo_entrp">    -37.71282107 </i>
    <i name="e_0_energy">    -37.71282107 </i>
   </energy>
  </scstep>
  <scstep>
   <time name="dav">   29.19   29.41</time>
   <time name="total">   83.07   83.49</time>
   <energy>
    <i name="e_fr_energy">    -37.74775326 </i>
    <i name="e_wo_entrp">    -37.74775326 </i>
    <i name="e_0_energy">    -37.74775326 </i>
   </energy>
  </scstep>
  <scstep>
   <time name="dav">   28.39   28.58</time>
   <time name="total">   82.42   82.66</time>
   <energy>
    <i name="e_fr_energy">    -37.69001139 </i>
    <i name="e_wo_entrp">    -37.69001139 </i>
    <i name="e_0_energy">    -37.69001139 </i>
   </energy>
  </scstep>
  <scstep>
   <time name="dav">   27.67   27.83</time>
   <time name="total">   81.41   81.96</time>
   <energy>
    <i name="e_fr_energy">    -37.68884944 </i>
    <i name="e_wo_entrp">    -37.68884944 </i>
    <i name="e_0_energy">    -37.68884944 </i>
   </energy>
  </scstep>
  <scstep>
   <time name="dav">   24.23   24.35</time>
   <time name="total">   75.97   76.34</time>
   <energy>
    <i name="alphaZ">     52.76453647 </i>
    <i name="ewald">   9755.53924287 </i>
    <i name="hartreedc"> -13302.91438192 </i>
    <i name="XCdc">     37.01780788 </i>
    <i name="pawpsdc">   2589.92784583 </i>
    <i name="pawaedc">  -2605.72642899 </i>
    <i name="eentropy">      0.00000000 </i>
    <i name="bandstr">   -487.75635658 </i>
    <i name="atom">   3923.45879020 </i>
    <i name="e_fr_energy">    -37.68894422 </i>
    <i name="e_wo_entrp">    -37.68894422 </i>
    <i name="e_0_energy">    -37.68894422 </i>
   </energy>
  </scstep>
  <structure>
   <crystal>
    <varray name="basis" >
     <v>       6.21343519       0.00000018      -0.00000000 </v>
     <v>       3.10671709       5.38099255       0.00000000 </v>
     <v>      -0.00000000      -0.00000000      21.99758427 </v>
    </varray>
    <i name="volume">    735.47708537 </i>
    <varray name="rec_basis" >
     <v>       0.16094157      -0.09291965       0.00000000 </v>
     <v>      -0.00000001       0.18583932       0.00000000 </v>
     <v>       0.00000000      -0.00000000       0.04545954 </v>
    </varray>
   </crystal>
   <varray name="positions" >
    <v>       0.33333300       0.33333300       0.50026061 </v>
    <v>       0.66666700       0.66666700       0.50038784 </v>
    <v>       0.00000000       0.00000000       0.44419860 </v>
    <v>       0.00000000       0.00000000       0.55178400 </v>
    <v>       0.61172427      -0.00009701       0.57079445 </v>
    <v>      -0.00009701       0.38837374       0.57079445 </v>
    <v>       0.38837374       0.61172427       0.57079445 </v>
    <v>       0.36759182       0.99947155       0.42996437 </v>
    <v>       0.99947155       0.63293563       0.42996437 </v>
    <v>       0.63293563       0.36759182       0.42996437 </v>
   </varray>
  </structure>
  <varray name="forces" >
   <v>       0.00000000      -0.00000000       0.08146066 </v>
   <v>       0.00000000      -0.00000000       0.07289881 </v>
   <v>       0.00000000      -0.00000000       0.13447470 </v>
   <v>       0.00000000      -0.00000000       0.29272230 </v>
   <v>       0.04658156       0.00764728      -0.07477808 </v>
   <v>      -0.01666803      -0.04416445      -0.07477808 </v>
   <v>      -0.02991352       0.03651717      -0.07477808 </v>
   <v>       0.11893814       0.01031413      -0.11907408 </v>
   <v>      -0.05053676      -0.10816051      -0.11907408 </v>
   <v>      -0.06840138       0.09784638      -0.11907408 </v>
  </varray>
  <varray name="stress" >
   <v>       0.43992639       0.00000240      -0.00000000 </v>
   <v>      -0.00000246       0.43992634       0.00000000 </v>
   <v>       0.00000000       0.00000000      -0.34445694 </v>
  </varray>
  <energy>
   <i name="e_fr_energy">    -37.68894422 </i>
   <i name="e_wo_entrp">    -37.68894422 </i>
   <i name="e_0_energy">      0.00000000 </i>
  </energy>
  <time name="totalsc">  786.64  790.75</time>
 </calculation>
 <calculation>
  <scstep>
   <time name="dav">   25.31   26.30</time>
   <time name="total">   79.59   80.73</time>
   <energy>
    <i name="alphaZ">     52.68351723 </i>
    <i name="ewald">   9709.81969191 </i>
    <i name="hartreedc"> -13256.99161888 </i>
    <i name="XCdc">     36.91262052 </i>
    <i name="pawpsdc">   2590.20196381 </i>
    <i name="pawaedc">  -2606.00156752 </i>
    <i name="eentropy">      0.00000000 </i>
    <i name="bandstr">   -487.77740168 </i>
    <i name="atom">   3923.45879020 </i>
    <i name="e_fr_energy">    -37.69400442 </i>
    <i name="e_wo_entrp">    -37.69400442 </i>
    <i name="e_0_energy">    -37.69400442 </i>
   </energy>
  </scstep>
  <scstep>
   <time name="dav">   28.24   28.31</time>
   <time name="total">   81.97   82.38</time>
   <energy>
    <i name="e_fr_energy">    -37.70123145 </i>
    <i name="e_wo_entrp">    -37.70123145 </i>
    <i name="e_0_energy">    -37.70123145 </i>
   </energy>
  </scstep>
  <scstep>
   <time name="dav">   23.99   24.03</time>
   <time name="total">   78.70   78.93</time>
   <energy>
    <i name="e_fr_energy">    -37.69479827 </i>
    <i name="e_wo_entrp">    -37.69479827 </i>
    <i name="e_0_energy">    -37.69479827 </i>
   </energy>
  </scstep>
  <scstep>
   <time name="dav">   30.72   30.74</time>
   <time name="total">   84.63   84.68</time>
   <energy>
    <i name="e_fr_energy">    -37.69562377 </i>
    <i name="e_wo_entrp">    -37.69562377 </i>
    <i name="e_0_energy">    -37.69562377 </i>
   </energy>
  </scstep>
  <scstep>
   <time name="dav">   24.42   24.45</time>
   <time name="total">   78.15   78.31</time>
   <energy>
    <i name="e_fr_energy">    -37.69437713 </i>
    <i name="e_wo_entrp">    -37.69437713 </i>
    <i name="e_0_energy">    -37.69437713 </i>
   </energy>
  </scstep>
  <scstep>
   <time name="dav">   22.46   22.48</time>
   <time name="total">   73.98   74.34</time>
   <energy>
    <i name="alphaZ">     52.68351723 </i>
    <i name="ewald">   9709.81969191 </i>
    <i name="hartreedc"> -13256.83369757 </i>
    <i name="XCdc">     36.94725500 </i>
    <i name="pawpsdc">   2589.07448238 </i>
    <i name="pawaedc">  -2604.85275239 </i>
    <i name="eentropy">      0.00000000 </i>
    <i name="bandstr">   -487.99171444 </i>
    <i name="atom">   3923.45879020 </i>
    <i name="e_fr_energy">    -37.69442767 </i>
    <i name="e_wo_entrp">    -37.69442767 </i>
    <i name="e_0_energy">    -37.69442767 </i>
   </energy>
  </scstep>
  <structure>
   <crystal>
    <varray name="basis" >
     <v>       6.22129127       0.00000022      -0.00000000 </v>
     <v>       3.11064509       5.38779614       0.00000000 </v>
     <v>      -0.00000000       0.00000000      21.97580695 </v>
    </varray>
    <i name="volume">    736.60813732 </i>
    <varray name="rec_basis" >
     <v>       0.16073834      -0.09280231       0.00000000 </v>
     <v>      -0.00000001       0.18560465      -0.00000000 </v>
     <v>       0.00000000      -0.00000000       0.04550459 </v>
    </varray>
   </crystal>
   <varray name="positions" >
    <v>       0.33333300       0.33333300       0.50049247 </v>
    <v>       0.66666700       0.66666700       0.50059532 </v>
    <v>       0.00000000       0.00000000       0.44458133 </v>
    <v>       0.00000000       0.00000000       0.55178400 </v>
    <v>       0.61214916      -0.00000804       0.57058162 </v>
    <v>      -0.00000804       0.38785988       0.57058162 </v>
    <v>       0.38785988       0.61214916       0.57058162 </v>
    <v>       0.36873028       0.99959155       0.42962547 </v>
    <v>       0.99959155       0.63167716       0.42962547 </v>
    <v>       0.63167716       0.36873028       0.42962547 </v>
   </varray>
  </structure>
  <varray name="forces" >
   <v>       0.00000000       0.00000000      -0.01341491 </v>
   <v>       0.00000000       0.00000000      -0.01963245 </v>
   <v>       0.00000000       0.00000000      -0.04593364 </v>
   <v>       0.00000000       0.00000000       0.36283697 </v>
   <v>       0.03747286       0.00297218      -0.04138950 </v>
   <v>      -0.01616244      -0.03393854      -0.04138950 </v>
   <v>      -0.02131042       0.03096636      -0.04138950 </v>
   <v>       0.01272250       0.01001266      -0.05322916 </v>
   <v>       0.00230997      -0.01602434      -0.05322916 </v>
   <v>      -0.01503247       0.00601168      -0.05322916 </v>
  </varray>
  <varray name="stress" >
   <v>      -0.22459842       0.00000236      -0.00000000 </v>
   <v>      -0.00000233      -0.22459840      -0.00000000 </v>
   <v>      -0.00000000      -0.00000000       0.27314473 </v>
  </varray>
  <energy>
   <i name="e_fr_energy">    -37.69442767 </i>
   <i name="e_wo_entrp">    -37.69442767 </i>
   <i name="e_0_energy">      0.00000000 </i>
  </energy>
  <time name="totalsc">  612.55  615.73</time>
 </calculation>
 <calculation>
  <scstep>
   <time name="dav">   23.31   23.47</time>
   <time name="total">   77.08   77.69</time>
   <energy>
    <i name="alphaZ">     52.66836427 </i>
    <i name="ewald">   9701.26266378 </i>
    <i name="hartreedc"> -13248.15029636 </i>
    <i name="XCdc">     36.92693369 </i>
    <i name="pawpsdc">   2588.99001048 </i>
    <i name="pawaedc">  -2604.76267513 </i>
    <i name="eentropy">      0.00000000 </i>
    <i name="bandstr">   -488.08831682 </i>
    <i name="atom">   3923.45879020 </i>
    <i name="e_fr_energy">    -37.69452588 </i>
    <i name="e_wo_entrp">    -37.69452588 </i>
    <i name="e_0_energy">    -37.69452588 </i>
   </energy>
  </scstep>
  <scstep>
   <time name="dav">   26.18   26.38</time>
   <time name="total">   79.89   80.36</time>
   <energy>
    <i name="e_fr_energy">    -37.69460942 </i>
    <i name="e_wo_entrp">    -37.69460942 </i>
    <i name="e_0_energy">    -37.69460942 </i>
   </energy>
  </scstep>
  <scstep>
   <time name="dav">   22.36   22.51</time>
   <time name="total">   74.40   74.79</time>
   <energy>
    <i name="alphaZ">     52.66836427 </i>
    <i name="ewald">   9701.26266378 </i>
    <i name="hartreedc"> -13248.00809692 </i>
    <i name="XCdc">     36.92998239 </i>
    <i name="pawpsdc">   2588.87825686 </i>
    <i name="pawaedc">  -2604.64724205 </i>
    <i name="eentropy">      0.00000000 </i>
    <i name="bandstr">   -488.23727145 </i>
    <i name="atom">   3923.45879020 </i>
    <i name="e_fr_energy">    -37.69455292 </i>
    <i name="e_wo_entrp">    -37.69455292 </i>
    <i name="e_0_energy">    -37.69455292 </i>
   </energy>
  </scstep>
  <structure>
   <crystal>
    <varray name="basis" >
     <v>       6.22276430       0.00000023      -0.00000000 </v>
     <v>       3.11138160       5.38907183       0.00000000 </v>
     <v>      -0.00000000       0.00000000      21.97172366 </v>
    </varray>
    <i name="volume">    736.82006321 </i>
    <varray name="rec_basis" >
     <v>       0.16070029      -0.09278034       0.00000000 </v>
     <v>      -0.00000001       0.18556071      -0.00000000 </v>
[...]
        <r>  0.0004  0.0185  0.0007  0.0032  0.0003  0.0001  0.0000  0.0000  0.0001 </r>
        <r>  0.0019  0.0108  0.0151  0.0091  0.0003  0.0000  0.0005  0.0001  0.0004 </r>
        <r>  0.0005  0.0030  0.0305  0.0015  0.0001  0.0000  0.0002  0.0000  0.0000 </r>
       </set>
       <set comment="band 30">
        <r>  0.0009  0.0096  0.0009  0.0117  0.0436  0.0143  0.0722  0.0160  0.0915 </r>
        <r>  0.0000  0.0084  0.0027  0.0078  0.0164  0.0006  0.0441  0.0002  0.0301 </r>
        <r>  0.0000  0.0003  0.0015  0.0004  0.0000  0.0000  0.0000  0.0000  0.0000 </r>
        <r>  0.0000  0.0020  0.0021  0.0005  0.0002  0.0000  0.0001  0.0001  0.0001 </r>
        <r>  0.0001  0.0564  0.0144  0.0006  0.0003  0.0003  0.0001  0.0000  0.0000 </r>
        <r>  0.0002  0.0119  0.0019  0.0211  0.0000  0.0000  0.0000  0.0002  0.0002 </r>
        <r>  0.0000  0.0081  0.0224  0.0312  0.0000  0.0002  0.0001  0.0001  0.0003 </r>
        <r>  0.0001  0.0443  0.0141  0.0002  0.0002  0.0002  0.0000  0.0001  0.0000 </r>
        <r>  0.0003  0.0128  0.0030  0.0416  0.0001  0.0001  0.0000  0.0002  0.0001 </r>
        <r>  0.0001  0.0181  0.0105  0.0420  0.0002  0.0000  0.0000  0.0003  0.0002 </r>
       </set>
       <set comment="band 31">
        <r>  0.0015  0.0031  0.0001  0.0035  0.0058  0.0562  0.0889  0.0370  0.0069 </r>
        <r>  0.0011  0.0046  0.0000  0.0064  0.0027  0.0587  0.0215  0.0171  0.0018 </r>
        <r>  0.0028  0.0005  0.0474  0.0003  0.0000  0.0000  0.0000  0.0000  0.0000 </r>
        <r>  0.0095  0.0014  0.0665  0.0003  0.0000  0.0000  0.0057  0.0000  0.0000 </r>
        <r>  0.0010  0.0003  0.0142  0.0175  0.0000  0.0001  0.0000  0.0003  0.0001 </r>
        <r>  0.0026  0.0121  0.0446  0.0085  0.0001  0.0004  0.0001  0.0001  0.0000 </r>
        <r>  0.0008  0.0155  0.0138  0.0034  0.0004  0.0003  0.0000  0.0000  0.0000 </r>
        <r>  0.0015  0.0005  0.0143  0.0107  0.0001  0.0000  0.0000  0.0004  0.0002 </r>
        <r>  0.0032  0.0108  0.0423  0.0022  0.0001  0.0005  0.0001  0.0002  0.0001 </r>
        <r>  0.0017  0.0095  0.0130  0.0014  0.0001  0.0005  0.0000  0.0000  0.0000 </r>
       </set>
       <set comment="band 32">
        <r>  0.0000  0.0003  0.0003  0.0002  0.0154  0.0098  0.0126  0.0121  0.0183 </r>
        <r>  0.0001  0.0001  0.0000  0.0003  0.0232  0.0730  0.0000  0.1892  0.0466 </r>
        <r>  0.0014  0.0023  0.0029  0.0007  0.0000  0.0000  0.0000  0.0000  0.0000 </r>
        <r>  0.0017  0.0002  0.0082  0.0048  0.0003  0.0001  0.0008  0.0003  0.0004 </r>
        <r>  0.0009  0.0080  0.0013  0.0133  0.0001  0.0004  0.0000  0.0001  0.0000 </r>
        <r>  0.0059  0.0109  0.0431  0.0029  0.0000  0.0004  0.0000  0.0002  0.0001 </r>
        <r>  0.0042  0.0031  0.0313  0.0280  0.0000  0.0000  0.0000  0.0007  0.0002 </r>
        <r>  0.0038  0.0225  0.0276  0.0044  0.0002  0.0003  0.0000  0.0003  0.0000 </r>
        <r>  0.0053  0.0001  0.0479  0.0130  0.0001  0.0001  0.0000  0.0005  0.0001 </r>
        <r>  0.0007  0.0163  0.0008  0.0053  0.0000  0.0000  0.0000  0.0004  0.0001 </r>
       </set>
       <set comment="band 33">
        <r>  0.0000  0.0001  0.0003  0.0001  0.0190  0.0424  0.0073  0.0679  0.0490 </r>
        <r>  0.0003  0.0004  0.0001  0.0004  0.0653  0.0846  0.0009  0.0211  0.0325 </r>
        <r>  0.0022  0.0002  0.0036  0.0032  0.0000  0.0000  0.0000  0.0000  0.0000 </r>
        <r>  0.0078  0.0034  0.0054  0.0033  0.0002  0.0001  0.0022  0.0002  0.0007 </r>
        <r>  0.0073  0.0283  0.0559  0.0106  0.0001  0.0002  0.0000  0.0004  0.0001 </r>
        <r>  0.0025  0.0133  0.0173  0.0013  0.0004  0.0004  0.0000  0.0004  0.0001 </r>
        <r>  0.0003  0.0131  0.0115  0.0042  0.0001  0.0002  0.0000  0.0002  0.0004 </r>
        <r>  0.0002  0.0076  0.0100  0.0079  0.0003  0.0001  0.0001  0.0003  0.0001 </r>
        <r>  0.0021  0.0001  0.0170  0.0081  0.0000  0.0004  0.0000  0.0004  0.0005 </r>
        <r>  0.0060  0.0010  0.0463  0.0245  0.0000  0.0004  0.0000  0.0003  0.0003 </r>
       </set>
       <set comment="band 34">
        <r>  0.0002  0.0004  0.0000  0.0001  0.0988  0.1354  0.0020  0.1174  0.0283 </r>
        <r>  0.0000  0.0001  0.0003  0.0002  0.0204  0.0099  0.0103  0.0018  0.0108 </r>
        <r>  0.0031  0.0005  0.0006  0.0015  0.0000  0.0000  0.0000  0.0000  0.0000 </r>
        <r>  0.0088  0.0016  0.0012  0.0017  0.0003  0.0004  0.0013  0.0002  0.0002 </r>
        <r>  0.0026  0.0135  0.0305  0.0002  0.0002  0.0005  0.0000  0.0001  0.0002 </r>
        <r>  0.0019  0.0094  0.0114  0.0179  0.0001  0.0000  0.0000  0.0005  0.0003 </r>
        <r>  0.0057  0.0100  0.0458  0.0152  0.0001  0.0004  0.0000  0.0002  0.0000 </r>
        <r>  0.0046  0.0110  0.0357  0.0075  0.0001  0.0004  0.0000  0.0002  0.0001 </r>
        <r>  0.0015  0.0190  0.0115  0.0006  0.0002  0.0003  0.0000  0.0001  0.0001 </r>
        <r>  0.0021  0.0035  0.0258  0.0106  0.0002  0.0003  0.0000  0.0003  0.0002 </r>
       </set>
       <set comment="band 35">
        <r>  0.0006  0.0005  0.0004  0.0001  0.0206  0.0884  0.0001  0.1143  0.0247 </r>
        <r>  0.0006  0.0002  0.0005  0.0005  0.0025  0.0432  0.0000  0.0541  0.0034 </r>
        <r>  0.0001  0.0005  0.0004  0.0011  0.0000  0.0000  0.0000  0.0000  0.0000 </r>
        <r>  0.0009  0.0009  0.0005  0.0031  0.0001  0.0000  0.0001  0.0000  0.0004 </r>
        <r>  0.0012  0.0589  0.0026  0.0000  0.0008  0.0002  0.0000  0.0001  0.0003 </r>
        <r>  0.0002  0.0150  0.0008  0.0450  0.0001  0.0001  0.0000  0.0007  0.0011 </r>
        <r>  0.0018  0.0094  0.0019  0.0551  0.0000  0.0001  0.0001  0.0002  0.0009 </r>
        <r>  0.0012  0.0615  0.0015  0.0011  0.0006  0.0002  0.0000  0.0000  0.0001 </r>
        <r>  0.0002  0.0133  0.0006  0.0417  0.0003  0.0003  0.0000  0.0004  0.0007 </r>
        <r>  0.0011  0.0124  0.0027  0.0488  0.0000  0.0000  0.0000  0.0003  0.0008 </r>
       </set>
       <set comment="band 36">
        <r>  0.0000  0.0019  0.0005  0.0007  0.0000  0.0177  0.0002  0.0001  0.0045 </r>
        <r>  0.0000  0.0011  0.0005  0.0014  0.0030  0.0032  0.0002  0.0064  0.0007 </r>
        <r>  0.0415  0.0004  0.0014  0.0002  0.0000  0.0000  0.0000  0.0000  0.0000 </r>
        <r>  0.1052  0.0008  0.0584  0.0002  0.0001  0.0000  0.0009  0.0000  0.0000 </r>
        <r>  0.0048  0.0070  0.0010  0.0748  0.0003  0.0000  0.0006  0.0001  0.0032 </r>
        <r>  0.0030  0.0517  0.0043  0.0181  0.0035  0.0001  0.0002  0.0000  0.0011 </r>
        <r>  0.0049  0.0386  0.0008  0.0381  0.0032  0.0002  0.0006  0.0000  0.0003 </r>
        <r>  0.0043  0.0044  0.0131  0.0199  0.0001  0.0000  0.0001  0.0000  0.0012 </r>
        <r>  0.0030  0.0243  0.0054  0.0077  0.0016  0.0002  0.0000  0.0000  0.0004 </r>
        <r>  0.0038  0.0086  0.0118  0.0152  0.0012  0.0000  0.0000  0.0000  0.0001 </r>
       </set>
       <set comment="band 37">
        <r>  0.0001  0.0002  0.0000  0.0018  0.0102  0.0170  0.0003  0.0168  0.0034 </r>
        <r>  0.0002  0.0014  0.0000  0.0005  0.0059  0.0186  0.0003  0.0068  0.0070 </r>
        <r>  0.0821  0.0010  0.0718  0.0003  0.0000  0.0000  0.0000  0.0000  0.0000 </r>
        <r>  0.0081  0.0001  0.0297  0.0001  0.0000  0.0000  0.0011  0.0000  0.0000 </r>
        <r>  0.0001  0.0000  0.0123  0.0095  0.0000  0.0000  0.0006  0.0002  0.0005 </r>
        <r>  0.0003  0.0036  0.0029  0.0013  0.0002  0.0004  0.0003  0.0002  0.0001 </r>
        <r>  0.0001  0.0065  0.0127  0.0024  0.0005  0.0001  0.0006  0.0001  0.0000 </r>
        <r>  0.0042  0.0024  0.0138  0.0579  0.0004  0.0000  0.0014  0.0009  0.0054 </r>
        <r>  0.0020  0.0383  0.0097  0.0125  0.0044  0.0012  0.0005  0.0004  0.0015 </r>
        <r>  0.0044  0.0341  0.0137  0.0284  0.0052  0.0006  0.0014  0.0002  0.0005 </r>
       </set>
       <set comment="band 38">
        <r>  0.0356  0.0007  0.0021  0.0016  0.0011  0.0006  0.0013  0.0010  0.0008 </r>
        <r>  0.0394  0.0004  0.0023  0.0018  0.0008  0.0003  0.0013  0.0009  0.0006 </r>
        <r>  0.0004  0.0326  0.0001  0.0109  0.0000  0.0000  0.0000  0.0000  0.0000 </r>
        <r>  0.0004  0.0756  0.0001  0.0242  0.0065  0.0047  0.0001  0.0015  0.0021 </r>
        <r>  0.0018  0.0007  0.0008  0.0047  0.0051  0.0021  0.0001  0.0008  0.0019 </r>
        <r>  0.0134  0.0385  0.0011  0.0132  0.0036  0.0020  0.0010  0.0006  0.0010 </r>
        <r>  0.0019  0.0029  0.0008  0.0024  0.0038  0.0011  0.0001  0.0018  0.0033 </r>
        <r>  0.0017  0.0002  0.0015  0.0034  0.0063  0.0019  0.0001  0.0009  0.0011 </r>
        <r>  0.0115  0.0276  0.0011  0.0091  0.0022  0.0021  0.0006  0.0008  0.0008 </r>
        <r>  0.0017  0.0024  0.0015  0.0014  0.0032  0.0012  0.0001  0.0016  0.0042 </r>
       </set>
       <set comment="band 39">
        <r>  0.0288  0.0026  0.0024  0.0026  0.0051  0.0016  0.0025  0.0025  0.0009 </r>
        <r>  0.0264  0.0036  0.0022  0.0017  0.0024  0.0025  0.0021  0.0005  0.0029 </r>
        <r>  0.0000  0.0056  0.0000  0.0167  0.0000  0.0000  0.0000  0.0000  0.0000 </r>
        <r>  0.0000  0.0270  0.0000  0.0846  0.0024  0.0012  0.0000  0.0037  0.0073 </r>
        <r>  0.0104  0.0185  0.0003  0.0412  0.0026  0.0004  0.0009  0.0015  0.0052 </r>
        <r>  0.0000  0.0024  0.0000  0.0057  0.0024  0.0003  0.0000  0.0009  0.0077 </r>
        <r>  0.0102  0.0595  0.0002  0.0008  0.0034  0.0013  0.0009  0.0006  0.0045 </r>
        <r>  0.0040  0.0082  0.0006  0.0186  0.0012  0.0005  0.0004  0.0019  0.0013 </r>
        <r>  0.0000  0.0005  0.0000  0.0019  0.0012  0.0003  0.0000  0.0010  0.0033 </r>
        <r>  0.0039  0.0253  0.0007  0.0007  0.0008  0.0017  0.0004  0.0007  0.0015 </r>
       </set>
       <set comment="band 40">
        <r>  0.0220  0.0005  0.0052  0.0009  0.0013  0.0009  0.0028  0.0007  0.0050 </r>
        <r>  0.0218  0.0002  0.0053  0.0012  0.0037  0.0003  0.0025  0.0012  0.0024 </r>
        <r>  0.0003  0.0421  0.0032  0.0140  0.0000  0.0000  0.0000  0.0000  0.0000 </r>
        <r>  0.0011  0.0592  0.0036  0.0186  0.0083  0.0012  0.0009  0.0004  0.0026 </r>
        <r>  0.0011  0.0019  0.0014  0.0012  0.0061  0.0002  0.0004  0.0003  0.0020 </r>
        <r>  0.0163  0.0206  0.0069  0.0071  0.0029  0.0000  0.0009  0.0000  0.0009 </r>
        <r>  0.0012  0.0002  0.0015  0.0029  0.0051  0.0001  0.0005  0.0004  0.0031 </r>
        <r>  0.0017  0.0018  0.0036  0.0008  0.0124  0.0002  0.0010  0.0003  0.0021 </r>
        <r>  0.0197  0.0155  0.0016  0.0053  0.0035  0.0009  0.0014  0.0003  0.0011 </r>
        <r>  0.0017  0.0001  0.0036  0.0025  0.0071  0.0003  0.0010  0.0003  0.0074 </r>
       </set>
       <set comment="band 41">
        <r>  0.0154  0.0014  0.0037  0.0001  0.0015  0.0051  0.0016  0.0027  0.0047 </r>
        <r>  0.0161  0.0001  0.0040  0.0014  0.0031  0.0029  0.0015  0.0038  0.0028 </r>
        <r>  0.0000  0.0184  0.0000  0.0549  0.0000  0.0000  0.0000  0.0000  0.0000 </r>
        <r>  0.0000  0.0104  0.0000  0.0346  0.0015  0.0006  0.0000  0.0020  0.0050 </r>
        <r>  0.0048  0.0047  0.0022  0.0067  0.0015  0.0003  0.0014  0.0002  0.0032 </r>
        <r>  0.0000  0.0027  0.0000  0.0077  0.0015  0.0002  0.0000  0.0007  0.0045 </r>
        <r>  0.0046  0.0110  0.0021  0.0006  0.0014  0.0003  0.0014  0.0002  0.0032 </r>
        <r>  0.0125  0.0136  0.0024  0.0200  0.0046  0.0000  0.0019  0.0000  0.0056 </r>
        <r>  0.0000  0.0049  0.0000  0.0143  0.0047  0.0000  0.0000  0.0000  0.0144 </r>
        <r>  0.0125  0.0325  0.0024  0.0010  0.0031  0.0000  0.0019  0.0000  0.0072 </r>
       </set>
       <set comment="band 42">
        <r>  0.0006  0.0032  0.0002  0.0020  0.0045  0.0019  0.0002  0.0025  0.0045 </r>
        <r>  0.0006  0.0045  0.0002  0.0009  0.0035  0.0016  0.0002  0.0018  0.0044 </r>
        <r>  0.0428  0.0027  0.0403  0.0008  0.0000  0.0000  0.0000  0.0000  0.0000 </r>
        <r>  0.0225  0.0031  0.0567  0.0010  0.0005  0.0000  0.0145  0.0000  0.0002 </r>
        <r>  0.0007  0.0003  0.0105  0.0003  0.0003  0.0007  0.0005  0.0056  0.0001 </r>
        <r>  0.0002  0.0023  0.0229  0.0008  0.0003  0.0031  0.0003  0.0010  0.0001 </r>
        <r>  0.0007  0.0005  0.0104  0.0000  0.0001  0.0058  0.0005  0.0005  0.0003 </r>
        <r>  0.0005  0.0000  0.0070  0.0021  0.0006  0.0003  0.0014  0.0056  0.0007 </r>
        <r>  0.0009  0.0040  0.0245  0.0015  0.0009  0.0029  0.0016  0.0010  0.0003 </r>
        <r>  0.0005  0.0016  0.0070  0.0005  0.0002  0.0052  0.0014  0.0007  0.0010 </r>
       </set>
       <set comment="band 43">
        <r>  0.0299  0.0026  0.0044  0.0031  0.0020  0.0006  0.0056  0.0005  0.0040 </r>
        <r>  0.0327  0.0038  0.0044  0.0020  0.0021  0.0007  0.0059  0.0002  0.0032 </r>
        <r>  0.0005  0.0094  0.0015  0.0035  0.0000  0.0000  0.0000  0.0000  0.0000 </r>
        <r>  0.0007  0.0196  0.0042  0.0059  0.0021  0.0008  0.0013  0.0003  0.0006 </r>
        <r>  0.0002  0.0089  0.0001  0.0011  0.0011  0.0088  0.0002  0.0010  0.0008 </r>
        <r>  0.0022  0.0041  0.0095  0.0015  0.0010  0.0010  0.0082  0.0003  0.0003 </r>
        <r>  0.0002  0.0007  0.0001  0.0093  0.0014  0.0048  0.0003  0.0049  0.0006 </r>
        <r>  0.0001  0.0095  0.0003  0.0012  0.0008  0.0122  0.0002  0.0006  0.0005 </r>
        <r>  0.0017  0.0023  0.0112  0.0007  0.0004  0.0030  0.0044  0.0011  0.0001 </r>
        <r>  0.0001  0.0005  0.0004  0.0100  0.0010  0.0049  0.0001  0.0078  0.0003 </r>
       </set>
       <set comment="band 44">
        <r>  0.0040  0.0024  0.0013  0.0044  0.0001  0.0001  0.0003  0.0001  0.0004 </r>
        <r>  0.0045  0.0013  0.0014  0.0057  0.0004  0.0000  0.0003  0.0001  0.0000 </r>
        <r>  0.0039  0.0023  0.0031  0.0008  0.0000  0.0000  0.0000  0.0000  0.0000 </r>
        <r>  0.0039  0.0032  0.0017  0.0009  0.0004  0.0000  0.0030  0.0000  0.0001 </r>
        <r>  0.0005  0.0005  0.0008  0.0012  0.0003  0.0015  0.0011  0.0001  0.0002 </r>
        <r>  0.0020  0.0059  0.0064  0.0022  0.0002  0.0005  0.0019  0.0001  0.0001 </r>
        <r>  0.0007  0.0016  0.0010  0.0001  0.0003  0.0002  0.0013  0.0014  0.0002 </r>
        <r>  0.0006  0.0006  0.0020  0.0008  0.0013  0.0029  0.0012  0.0002  0.0003 </r>
        <r>  0.0014  0.0075  0.0062  0.0024  0.0003  0.0002  0.0044  0.0001  0.0001 </r>
        <r>  0.0006  0.0014  0.0022  0.0000  0.0001  0.0003  0.0012  0.0026  0.0015 </r>
       </set>
       <set comment="band 45">
        <r>  0.0128  0.0024  0.0027  0.0017  0.0018  0.0003  0.0022  0.0002  0.0023 </r>
        <r>  0.0119  0.0034  0.0022  0.0011  0.0018  0.0002  0.0020  0.0001  0.0025 </r>
        <r>  0.0000  0.0003  0.0000  0.0008  0.0000  0.0000  0.0000  0.0000  0.0000 </r>
        <r>  0.0000  0.0011  0.0000  0.0042  0.0003  0.0001  0.0000  0.0002  0.0009 </r>
        <r>  0.0042  0.0028  0.0075  0.0012  0.0002  0.0013  0.0038  0.0014  0.0002 </r>
        <r>  0.0000  0.0022  0.0000  0.0056  0.0001  0.0012  0.0000  0.0038  0.0002 </r>
        <r>  0.0040  0.0031  0.0075  0.0010  0.0000  0.0005  0.0036  0.0022  0.0003 </r>
        <r>  0.0018  0.0018  0.0090  0.0001  0.0002  0.0014  0.0012  0.0019  0.0001 </r>
        <r>  0.0000  0.0018  0.0000  0.0057  0.0001  0.0018  0.0000  0.0048  0.0002 </r>
        <r>  0.0018  0.0006  0.0084  0.0015  0.0000  0.0007  0.0011  0.0030  0.0002 </r>
       </set>
       <set comment="band 46">
        <r>  0.0021  0.0023  0.0010  0.0016  0.0001  0.0001  0.0023  0.0000  0.0001 </r>
        <r>  0.0020  0.0016  0.0013  0.0023  0.0001  0.0000  0.0020  0.0001  0.0001 </r>
        <r>  0.0000  0.0020  0.0000  0.0059  0.0000  0.0000  0.0000  0.0000  0.0000 </r>
        <r>  0.0000  0.0019  0.0000  0.0060  0.0001  0.0000  0.0000  0.0001  0.0003 </r>
        <r>  0.0011  0.0003  0.0017  0.0047  0.0001  0.0002  0.0024  0.0003  0.0008 </r>
        <r>  0.0000  0.0002  0.0000  0.0006  0.0003  0.0002  0.0000  0.0004  0.0007 </r>
        <r>  0.0011  0.0045  0.0015  0.0006  0.0004  0.0001  0.0023  0.0005  0.0005 </r>
        <r>  0.0020  0.0015  0.0048  0.0059  0.0004  0.0003  0.0044  0.0000  0.0006 </r>
        <r>  0.0000  0.0005  0.0000  0.0016  0.0005  0.0003  0.0000  0.0011  0.0015 </r>
        <r>  0.0021  0.0069  0.0052  0.0005  0.0002  0.0000  0.0045  0.0002  0.0008 </r>
       </set>
       <set comment="band 47">
        <r>  0.0216  0.0007  0.0076  0.0022  0.0008  0.0003  0.0003  0.0005  0.0013 </r>
        <r>  0.0222  0.0011  0.0077  0.0016  0.0004  0.0005  0.0002  0.0002  0.0014 </r>
        <r>  0.0014  0.0116  0.0086  0.0037  0.0000  0.0000  0.0000  0.0000  0.0000 </r>
        <r>  0.0006  0.0043  0.0094  0.0016  0.0007  0.0046  0.0026  0.0015  0.0002 </r>
        <r>  0.0003  0.0030  0.0065  0.0003  0.0014  0.0092  0.0000  0.0002  0.0004 </r>
        <r>  0.0005  0.0003  0.0165  0.0001  0.0023  0.0052  0.0016  0.0016  0.0008 </r>
        <r>  0.0003  0.0004  0.0064  0.0028  0.0003  0.0034  0.0000  0.0060  0.0014 </r>
        <r>  0.0001  0.0048  0.0058  0.0006  0.0005  0.0042  0.0001  0.0000  0.0005 </r>
        <r>  0.0017  0.0025  0.0067  0.0008  0.0027  0.0052  0.0021  0.0017  0.0009 </r>
        <r>  0.0001  0.0003  0.0055  0.0053  0.0005  0.0010  0.0001  0.0033  0.0005 </r>
       </set>
       <set comment="band 48">
        <r>  0.0554  0.0015  0.0007  0.0037  0.0001  0.0004  0.0008  0.0008  0.0001 </r>
        <r>  0.0738  0.0045  0.0012  0.0040  0.0000  0.0005  0.0032  0.0005  0.0002 </r>
        <r>  0.0001  0.0049  0.0001  0.0068  0.0000  0.0000  0.0000  0.0000  0.0000 </r>
        <r>  0.0001  0.0010  0.0002  0.0090  0.0002  0.0002  0.0001  0.0002  0.0007 </r>
        <r>  0.0020  0.0041  0.0211  0.0016  0.0001  0.0019  0.0009  0.0009  0.0004 </r>
        <r>  0.0001  0.0058  0.0001  0.0132  0.0000  0.0048  0.0002  0.0127  0.0001 </r>
        <r>  0.0036  0.0017  0.0197  0.0020  0.0002  0.0009  0.0009  0.0029  0.0002 </r>
        <r>  0.0044  0.0044  0.0127  0.0012  0.0005  0.0026  0.0003  0.0020  0.0003 </r>
        <r>  0.0001  0.0050  0.0001  0.0219  0.0000  0.0047  0.0002  0.0147  0.0002 </r>
        <r>  0.0037  0.0074  0.0141  0.0008  0.0005  0.0039  0.0008  0.0010  0.0001 </r>
       </set>
      </set>
     </set>
    </set>
   </array>
  </projected>
 </calculation>
 <structure name="finalpos" >
  <crystal>
   <varray name="basis" >
    <v>       6.22807773       0.00000025      -0.00000000 </v>
    <v>       3.11403830       5.39367340       0.00000000 </v>
    <v>      -0.00000000       0.00000000      21.99828490 </v>
   </varray>
   <i name="volume">    738.97114747 </i>
   <varray name="rec_basis" >
    <v>       0.16056319      -0.09270119       0.00000000 </v>
    <v>      -0.00000001       0.18540241      -0.00000000 </v>
    <v>       0.00000000      -0.00000000       0.04545809 </v>
   </varray>
  </crystal>
  <varray name="positions" >
   <v>       0.33333300       0.33333300       0.50054024 </v>
   <v>       0.66666700       0.66666700       0.50062984 </v>
   <v>       0.00000000       0.00000000       0.44463137 </v>
   <v>       0.00000000       0.00000000       0.55178400 </v>
   <v>       0.61242451       0.00003989       0.57046638 </v>
   <v>       0.00003989       0.38753660       0.57046638 </v>
   <v>       0.38753660       0.61242451       0.57046638 </v>
   <v>       0.36906060       0.99967664       0.42946863 </v>
   <v>       0.99967664       0.63126176       0.42946863 </v>
   <v>       0.63126176       0.36906060       0.42946863 </v>
  </varray>
  <varray name="selective"  type="logical" >
   <v type="logical" >  T  T  T </v>
   <v type="logical" >  T  T  T </v>
   <v type="logical" >  T  T  T </v>
   <v type="logical" >  F  F  F </v>
   <v type="logical" >  T  T  T </v>
   <v type="logical" >  T  T  T </v>
   <v type="logical" >  T  T  T </v>
   <v type="logical" >  T  T  T </v>
   <v type="logical" >  T  T  T </v>
   <v type="logical" >  T  T  T </v>
  </varray>
  <nose>
   <v>      -3.00000000       0.00000000       0.00010000       0.00010000 </v>
  </nose>
 </structure>
</modeling>
