unknown system                          
           1
     6.907777   -0.000000    0.000000
     3.453888    5.982310    0.000000
     0.000000    0.000000   23.444588
   Ni   Si   Ge   Se
   2   1   1   6
Direct configuration=     1
   0.33333300  0.33333300  0.49992500
   0.66666700  0.66666700  0.50007500
   0.00000000  0.00000000  0.44821600
   0.00000000  0.00000000  0.55178400
   0.62635700  0.00042000  0.57375200
   0.00042000  0.37322400  0.57375200
   0.37322400  0.62635700  0.57375200
   0.37364300  0.99958000  0.42624800
   0.99958000  0.62677600  0.42624800
   0.62677600  0.37364300  0.42624800
unknown system                          
           1
     6.145382   -0.000000   -0.000000
     3.072691    5.322057   -0.000000
     0.000000    0.000000   22.047106
   Ni   Si   Ge   Se
   2   1   1   6
Direct configuration=     2
   0.33333300  0.33333300  0.50000435
   0.66666700  0.66666700  0.50012165
  -0.00000000  0.00000000  0.44718560
   0.00000000  0.00000000  0.55178400
   0.62940851  0.00038304  0.57123309
   0.00038304  0.37020945  0.57123309
   0.37020945  0.62940851  0.57123309
   0.36678494  0.99962313  0.42894502
   0.99962313  0.63359094  0.42894502
   0.63359094  0.36678494  0.42894502
unknown system                          
           1
     6.235534   -0.000000   -0.000000
     3.117766    5.400130   -0.000000
     0.000000    0.000000   22.212355
   Ni   Si   Ge   Se
   2   1   1   6
Direct configuration=     3
   0.33333300  0.33333300  0.49999437
   0.66666700  0.66666700  0.50011578
  -0.00000000 -0.00000000  0.44731516
   0.00000000  0.00000000  0.55178400
   0.62900291  0.00038796  0.57154983
   0.00038796  0.37061013  0.57154983
   0.37061013  0.62900291  0.57154983
   0.36769649  0.99961740  0.42860589
   0.99961740  0.63268511  0.42860589
   0.63268511  0.36769649  0.42860589
unknown system                          
           1
     6.227182    0.000000   -0.000000
     3.113591    5.392898    0.000000
    -0.000000   -0.000000   22.131191
   Ni   Si   Ge   Se
   2   1   1   6
Direct configuration=     4
   0.33333300  0.33333300  0.50009467
   0.66666700  0.66666700  0.50021827
   0.00000000  0.00000000  0.44614104
   0.00000000  0.00000000  0.55178400
   0.62248057  0.00020489  0.57126525
   0.00020489  0.37731554  0.57126525
   0.37731554  0.62248057  0.57126525
   0.36765698  0.99956234  0.42911768
   0.99956234  0.63277968  0.42911768
   0.63277968  0.36765698  0.42911768
unknown system                          
           1
     6.222600    0.000000   -0.000000
     3.111300    5.388929    0.000000
    -0.000000   -0.000000   22.086655
   Ni   Si   Ge   Se
   2   1   1   6
Direct configuration=     5
   0.33333300  0.33333300  0.50014991
   0.66666700  0.66666700  0.50027472
   0.00000000  0.00000000  0.44549443
   0.00000000  0.00000000  0.55178400
   0.61889690  0.00010430  0.57110853
   0.00010430  0.38099980  0.57110853
   0.38099980  0.61889690  0.57110853
   0.36763527  0.99953209  0.42939953
   0.99953209  0.63283164  0.42939953
   0.63283164  0.36763527  0.42939953
unknown system                          
           1
     6.213435    0.000000   -0.000000
     3.106717    5.380993    0.000000
    -0.000000   -0.000000   21.997584
   Ni   Si   Ge   Se
   2   1   1   6
Direct configuration=     6
   0.33333300  0.33333300  0.50026061
   0.66666700  0.66666700  0.50038784
   0.00000000  0.00000000  0.44419860
   0.00000000  0.00000000  0.55178400
   0.61172427 -0.00009701  0.57079445
  -0.00009701  0.38837374  0.57079445
   0.38837374  0.61172427  0.57079445
   0.36759182  0.99947155  0.42996437
   0.99947155  0.63293563  0.42996437
   0.63293563  0.36759182  0.42996437
unknown system                          
           1
     6.221291    0.000000   -0.000000
     3.110645    5.387796    0.000000
    -0.000000    0.000000   21.975807
   Ni   Si   Ge   Se
   2   1   1   6
Direct configuration=     7
   0.33333300  0.33333300  0.50049247
   0.66666700  0.66666700  0.50059532
   0.00000000  0.00000000  0.44458133
   0.00000000  0.00000000  0.55178400
   0.61214916 -0.00000804  0.57058162
  -0.00000804  0.38785988  0.57058162
   0.38785988  0.61214916  0.57058162
   0.36873028  0.99959155  0.42962547
   0.99959155  0.63167716  0.42962547
   0.63167716  0.36873028  0.42962547
unknown system                          
           1
     6.222764    0.000000   -0.000000
     3.111382    5.389072    0.000000
    -0.000000    0.000000   21.971724
   Ni   Si   Ge   Se
   2   1   1   6
Direct configuration=     8
   0.33333300  0.33333300  0.50053598
   0.66666700  0.66666700  0.50063426
   0.00000000  0.00000000  0.44465317
   0.00000000  0.00000000  0.55178400
   0.61222872  0.00000863  0.57054168
   0.00000863  0.38776365  0.57054168
   0.38776365  0.61222872  0.57054168
   0.36894348  0.99961403  0.42956186
   0.99961403  0.63144149  0.42956186
   0.63144149  0.36894348  0.42956186
unknown system                          
           1
     6.238015    0.000000   -0.000000
     3.119007    5.402279    0.000000
    -0.000000    0.000000   22.047961
   Ni   Si   Ge   Se
   2   1   1   6
Direct configuration=     9
   0.33333300  0.33333300  0.50054814
   0.66666700  0.66666700  0.50062164
   0.00000000  0.00000000  0.44459101
   0.00000000  0.00000000  0.55178400
   0.61278813  0.00009794  0.57032694
   0.00009794  0.38711493  0.57032694
   0.38711493  0.61278813  0.57032694
   0.36927813  0.99979292  0.42929598
   0.99979292  0.63092795  0.42929598
   0.63092795  0.36927813  0.42929598
unknown system                          
           1
     6.228078    0.000000   -0.000000
     3.114038    5.393673    0.000000
    -0.000000    0.000000   21.998285
   Ni   Si   Ge   Se
   2   1   1   6
Direct configuration=    10
   0.33333300  0.33333300  0.50054024
   0.66666700  0.66666700  0.50062984
   0.00000000  0.00000000  0.44463137
   0.00000000  0.00000000  0.55178400
   0.61242451  0.00003989  0.57046638
   0.00003989  0.38753660  0.57046638
   0.38753660  0.61242451  0.57046638
   0.36906060  0.99967664  0.42946863
   0.99967664  0.63126176  0.42946863
   0.63126176  0.36906060  0.42946863
