 vasp.5.4.4.18Apr17-6-g9f103f2a35 (build May  1 2020 15:48:39) complex           
 executed on             LinuxGNU date 2020.06.26  22:38:47
 running on   16 total cores
 distrk:  each k-point on   16 cores,    1 groups
 distr:  one band on NCORES_PER_BAND=   1 cores,   16 groups


--------------------------------------------------------------------------------------------------------


 INCAR:
 POTCAR:   PAW_PBE Ni 06Sep2000                   
 POTCAR:   PAW_PBE Ge 05Jan2001                   
 POTCAR:    PAW_PBE P 17Jan2003                   
 POTCAR:    PAW_PBE S 17Jan2003                   

 ----------------------------------------------------------------------------- 
|                                                                             |
|           W    W    AA    RRRRR   N    N  II  N    N   GGGG   !!!           |
|           W    W   A  A   R    R  NN   N  II  NN   N  G    G  !!!           |
|           W    W  A    A  R    R  N N  N  II  N N  N  G       !!!           |
|           W WW W  AAAAAA  RRRRR   N  N N  II  N  N N  G  GGG   !            |
|           WW  WW  A    A  R   R   N   NN  II  N   NN  G    G                |
|           W    W  A    A  R    R  N    N  II  N    N   GGGG   !!!           |
|                                                                             |
|      For optimal performance we recommend to set                            |
|        NCORE= 4 - approx SQRT( number of cores)                             |
|      NCORE specifies how many cores store one orbital (NPAR=cpu/NCORE).     |
|      This setting can  greatly improve the performance of VASP for DFT.     |
|      The default,   NCORE=1            might be grossly inefficient         |
|      on modern multi-core architectures or massively parallel machines.     |
|      Do your own testing !!!!                                               |
|      Unfortunately you need to use the default for GW and RPA calculations. |
|      (for HF NCORE is supported but not extensively tested yet)             |
|                                                                             |
 ----------------------------------------------------------------------------- 


 ----------------------------------------------------------------------------- 
|                                                                             |
|  ADVICE TO THIS USER RUNNING 'VASP/VAMP'   (HEAR YOUR MASTER'S VOICE ...):  |
|                                                                             |
|      You have switched on vdW-DFT.                                          |
|      This routine was written and supplied by Jiri Klimes.                  |
|      We recommed that you carefully read and cite the following             |
|      publication                                                            |
|      J. Klimes, D.R. Bowler, A. Michelides                                  |
|        J. Phys.: Cond Matt. 22 022201 (2010)                                |
|      J. Klimes, D.R. Bowler, A. Michelides                                  |
|        Phys. Rev. B. 83, 195131 (2011)                                      |
|      and references therein.                                                |
|                                                                             |
 ----------------------------------------------------------------------------- 

 POTCAR:   PAW_PBE Ni 06Sep2000                   
   VRHFIN =Ni:                                                                  
   LEXCH  = PE                                                                  
   EATOM  =  1077.9025 eV,   79.2236 Ry                                         
                                                                                
   TITEL  = PAW_PBE Ni 06Sep2000                                                
   LULTRA =        F    use ultrasoft PP ?                                      
   IUNSCR =        1    unscreen: 0-lin 1-nonlin 2-no                           
   RPACOR =    2.000    partial core radius                                     
   POMASS =   58.690; ZVAL   =   10.000    mass and valenz                      
   RCORE  =    2.300    outmost cutoff radius                                   
   RWIGS  =    2.430; RWIGS  =    1.286    wigner-seitz radius (au A)           
   ENMAX  =  269.533; ENMIN  =  202.150 eV                                      
   RCLOC  =    1.681    cutoff for local pot                                    
   LCOR   =        T    correct aug charges                                     
   LPAW   =        T    paw PP                                                  
   EAUG   =  544.565                                                            
   DEXC   =    -.009                                                            
   RMAX   =    2.808    core radius for proj-oper                               
   RAUG   =    1.300    factor for augmentation sphere                          
   RDEP   =    2.390    radius for radial grids                                 
   QCUT   =   -4.451; QGAM   =    8.902    optimization parameters              
                                                                                
   Description                                                                  
     l     E      TYP  RCUT    TYP  RCUT                                        
     2   .000     23  2.300                                                     
     2   .000     23  2.300                                                     
     0   .000     23  2.300                                                     
     0   .000     23  2.300                                                     
     1  -.200     23  2.300                                                     
     1   .000     23  2.300                                                     
     3   .000      7   .000                                                     
  local pseudopotential read in
  partial core-charges read in
  atomic valenz-charges read in
  non local Contribution for L=           2  read in
    real space projection operators read in
  non local Contribution for L=           2  read in
    real space projection operators read in
  non local Contribution for L=           0  read in
    real space projection operators read in
  non local Contribution for L=           0  read in
    real space projection operators read in
  non local Contribution for L=           1  read in
    real space projection operators read in
  non local Contribution for L=           1  read in
    real space projection operators read in
    PAW grid and wavefunctions read in

   number of l-projection  operators is LMAX  =           6
   number of lm-projection operators is LMMAX =          18

 POTCAR:   PAW_PBE Ge 05Jan2001                   
   VRHFIN =Ge: s2p2                                                             
   LEXCH  = PE                                                                  
   EATOM  =   104.9960 eV,    7.7170 Ry                                         
                                                                                
   TITEL  = PAW_PBE Ge 05Jan2001                                                
   LULTRA =        F    use ultrasoft PP ?                                      
   IUNSCR =        1    unscreen: 0-lin 1-nonlin 2-no                           
   RPACOR =    2.170    partial core radius                                     
   POMASS =   72.610; ZVAL   =    4.000    mass and valenz                      
   RCORE  =    2.300    outmost cutoff radius                                   
   RWIGS  =    2.300; RWIGS  =    1.217    wigner-seitz radius (au A)           
   ENMAX  =  173.807; ENMIN  =  130.355 eV                                      
   ICORE  =        3    local potential                                         
   LCOR   =        T    correct aug charges                                     
   LPAW   =        T    paw PP                                                  
   EAUG   =  385.843                                                            
   DEXC   =    -.138                                                            
   RMAX   =    3.497    core radius for proj-oper                               
   RAUG   =    1.300    factor for augmentation sphere                          
   RDEP   =    2.318    radius for radial grids                                 
   QCUT   =   -3.574; QGAM   =    7.148    optimization parameters              
                                                                                
   Description                                                                  
     l     E      TYP  RCUT    TYP  RCUT                                        
     0   .000     23  2.300                                                     
     0   .000     23  2.300                                                     
     1   .000     23  2.300                                                     
     1   .000     23  2.300                                                     
     2   .000     23  2.300                                                     
     3  -.100      7  2.300                                                     
  local pseudopotential read in
  partial core-charges read in
  atomic valenz-charges read in
  non local Contribution for L=           0  read in
    real space projection operators read in
  non local Contribution for L=           0  read in
    real space projection operators read in
  non local Contribution for L=           1  read in
    real space projection operators read in
  non local Contribution for L=           1  read in
    real space projection operators read in
  non local Contribution for L=           2  read in
    real space projection operators read in
    PAW grid and wavefunctions read in

   number of l-projection  operators is LMAX  =           5
   number of lm-projection operators is LMMAX =          13

 POTCAR:    PAW_PBE P 17Jan2003                   
   VRHFIN =P : s2p3                                                             
   LEXCH  = PE                                                                  
   EATOM  =   176.0430 eV,   12.9388 Ry                                         
                                                                                
   TITEL  = PAW_PBE P 17Jan2003                                                 
   LULTRA =        F    use ultrasoft PP ?                                      
   IUNSCR =        1    unscreen: 0-lin 1-nonlin 2-no                           
   RPACOR =    1.500    partial core radius                                     
   POMASS =   30.974; ZVAL   =    5.000    mass and valenz                      
   RCORE  =    1.900    outmost cutoff radius                                   
   RWIGS  =    2.330; RWIGS  =    1.233    wigner-seitz radius (au A)           
   ENMAX  =  270.000; ENMIN  =  191.280 eV                                      
   ICORE  =        2    local potential                                         
   LCOR   =        T    correct aug charges                                     
   LPAW   =        T    paw PP                                                  
   EAUG   =  342.924                                                            
   DEXC   =    -.002                                                            
   RMAX   =    2.887    core radius for proj-oper                               
   RAUG   =    1.300    factor for augmentation sphere                          
   RDEP   =    1.931    radius for radial grids                                 
   QCUT   =   -4.330; QGAM   =    8.659    optimization parameters              
                                                                                
   Description                                                                  
     l     E      TYP  RCUT    TYP  RCUT                                        
     0   .000     23  1.900                                                     
     0   .000     23  1.900                                                     
     1   .000     23  1.900                                                     
     1   .000     23  1.900                                                     
     2   .000     23  1.900                                                     
  local pseudopotential read in
  partial core-charges read in
  atomic valenz-charges read in
  non local Contribution for L=           0  read in
    real space projection operators read in
  non local Contribution for L=           0  read in
    real space projection operators read in
  non local Contribution for L=           1  read in
    real space projection operators read in
  non local Contribution for L=           1  read in
    real space projection operators read in
    PAW grid and wavefunctions read in

   number of l-projection  operators is LMAX  =           4
   number of lm-projection operators is LMMAX =           8

 POTCAR:    PAW_PBE S 17Jan2003                   
   VRHFIN =S : s2p4                                                             
   LEXCH  = PE                                                                  
   EATOM  =   276.8230 eV,   20.3459 Ry                                         
                                                                                
   TITEL  = PAW_PBE S 17Jan2003                                                 
   LULTRA =        F    use ultrasoft PP ?                                      
   IUNSCR =        1    unscreen: 0-lin 1-nonlin 2-no                           
   RPACOR =    1.500    partial core radius                                     
   POMASS =   32.066; ZVAL   =    6.000    mass and valenz                      
   RCORE  =    1.900    outmost cutoff radius                                   
   RWIGS  =    2.200; RWIGS  =    1.164    wigner-seitz radius (au A)           
   ENMAX  =  280.000; ENMIN  =  194.016 eV                                      
   ICORE  =        2    local potential                                         
   LCOR   =        T    correct aug charges                                     
   LPAW   =        T    paw PP                                                  
   EAUG   =  335.092                                                            
   DEXC   =     .000                                                            
   RMAX   =    2.867    core radius for proj-oper                               
   RAUG   =    1.300    factor for augmentation sphere                          
   RDEP   =    1.954    radius for radial grids                                 
   QCUT   =   -4.360; QGAM   =    8.721    optimization parameters              
                                                                                
   Description                                                                  
     l     E      TYP  RCUT    TYP  RCUT                                        
     0   .000     23  1.900                                                     
     0   .000     23  1.900                                                     
     1   .000     23  1.900                                                     
     1   .000     23  1.900                                                     
     2   .000     23  1.900                                                     
  local pseudopotential read in
  partial core-charges read in
  atomic valenz-charges read in
  non local Contribution for L=           0  read in
    real space projection operators read in
  non local Contribution for L=           0  read in
    real space projection operators read in
  non local Contribution for L=           1  read in
    real space projection operators read in
  non local Contribution for L=           1  read in
    real space projection operators read in
    PAW grid and wavefunctions read in

   number of l-projection  operators is LMAX  =           4
   number of lm-projection operators is LMMAX =           8

 Optimization of the real space projectors (new method)

 maximal supplied QI-value         = 16.25
 optimisation between [QCUT,QGAM] = [ 11.54, 23.24] = [ 37.28,151.24] Ry 
 Optimized for a Real-space Cutoff    1.49 Angstroem

   l    n(q)    QCUT    max X(q) W(low)/X(q) W(high)/X(q)  e(spline) 
   2      9    11.539     4.811    0.20E-04    0.14E-04    0.45E-07
   2      9    11.539    15.146    0.24E-03    0.12E-03    0.20E-06
   0     10    11.539    14.357    0.18E-04    0.12E-05    0.14E-07
   0     10    11.539    43.282    0.39E-04    0.17E-04    0.23E-06
   1     10    11.539     5.514    0.99E-05    0.13E-04    0.19E-07
   1     10    11.539     7.697    0.38E-04    0.79E-04    0.91E-07
 Optimization of the real space projectors (new method)

 maximal supplied QI-value         = 16.25
 optimisation between [QCUT,QGAM] = [ 11.54, 23.24] = [ 37.28,151.24] Ry 
 Optimized for a Real-space Cutoff    1.28 Angstroem

   l    n(q)    QCUT    max X(q) W(low)/X(q) W(high)/X(q)  e(spline) 
   0      9    11.539     8.651    0.22E-04    0.16E-04    0.10E-07
   0      9    11.539    33.192    0.11E-03    0.16E-03    0.65E-07
   1      8    11.539     5.899    0.37E-04    0.28E-04    0.43E-07
   1      8    11.539    27.289    0.22E-03    0.28E-04    0.14E-06
   2      8    11.539     4.673    0.11E-03    0.18E-03    0.58E-07
 Optimization of the real space projectors (new method)

 maximal supplied QI-value         = 19.84
 optimisation between [QCUT,QGAM] = [ 11.51, 23.22] = [ 37.09,150.92] Ry 
 Optimized for a Real-space Cutoff    1.21 Angstroem

   l    n(q)    QCUT    max X(q) W(low)/X(q) W(high)/X(q)  e(spline) 
   0      8    11.508     6.651    0.19E-04    0.31E-05    0.49E-08
   0      8    11.508    90.285    0.95E-04    0.17E-03    0.51E-07
   1      8    11.508     4.328    0.14E-04    0.32E-04    0.22E-07
   1      8    11.508    54.583    0.16E-03    0.71E-04    0.89E-07
 Optimization of the real space projectors (new method)

 maximal supplied QI-value         = 19.84
 optimisation between [QCUT,QGAM] = [ 11.51, 23.22] = [ 37.09,150.92] Ry 
 Optimized for a Real-space Cutoff    1.21 Angstroem

   l    n(q)    QCUT    max X(q) W(low)/X(q) W(high)/X(q)  e(spline) 
   0      8    11.508     5.487    0.18E-04    0.22E-05    0.47E-08
   0      8    11.508    85.627    0.96E-04    0.18E-03    0.54E-07
   1      8    11.508     3.530    0.17E-04    0.28E-04    0.21E-07
   1      8    11.508    42.714    0.18E-03    0.63E-04    0.92E-07

 ----------------------------------------------------------------------------- 
|                                                                             |
|  ADVICE TO THIS USER RUNNING 'VASP/VAMP'   (HEAR YOUR MASTER'S VOICE ...):  |
|                                                                             |
|      You enforced a specific xc-type in the INCAR file,                     |
|      a different type was found on the POTCAR file                          |
|          I HOPE YOU KNOW, WHAT YOU ARE  DOING                               |
|                                                                             |
 ----------------------------------------------------------------------------- 

 PAW_PBE Ni 06Sep2000                   :
 energy of atom  1       EATOM=-1077.9025
 kinetic energy error for atom=    0.0030 (will be added to EATOM!!)
 PAW_PBE Ge 05Jan2001                   :
 energy of atom  2       EATOM= -104.9960
 kinetic energy error for atom=    0.0002 (will be added to EATOM!!)
  PAW_PBE P 17Jan2003                   :
 energy of atom  3       EATOM= -176.0430
 kinetic energy error for atom=    0.0011 (will be added to EATOM!!)
  PAW_PBE S 17Jan2003                   :
 energy of atom  4       EATOM= -276.8230
 kinetic energy error for atom=    0.0016 (will be added to EATOM!!)


 POSCAR: Ni2 Ge P S6                             
  positions in direct lattice
  velocities in cartesian coordinates
  No initial velocities read in
 exchange correlation table for  LEXCH =       42
   RHO(1)=    0.500       N(1)  =     2000
   RHO(2)=  100.500       N(2)  =     4000



--------------------------------------------------------------------------------------------------------


 ion  position               nearest neighbor table
   1  0.333  0.333  0.500-   6 2.78   5 2.78   7 2.78   8 2.78  10 2.78   9 2.78
   2  0.667  0.667  0.500-   9 2.78   8 2.78  10 2.78   5 2.78   7 2.78   6 2.78
   3  0.000  0.000  0.448-   4 2.43   8 2.63  10 2.63   9 2.63
   4  0.000  0.000  0.552-   3 2.43   5 2.63   7 2.63   6 2.63
   5  0.626  0.000  0.574-   4 2.63   1 2.78   2 2.78
   6  0.000  0.373  0.574-   4 2.63   1 2.78   2 2.78
   7  0.373  0.626  0.574-   4 2.63   1 2.78   2 2.78
   8  0.374  1.000  0.426-   3 2.63   2 2.78   1 2.78
   9  1.000  0.627  0.426-   3 2.63   2 2.78   1 2.78
  10  0.627  0.374  0.426-   3 2.63   2 2.78   1 2.78

  LATTYP: Found a hexagonal cell.
 ALAT       =     6.9077769333
 C/A-ratio  =     3.3939410937
  
  Lattice vectors:
  
 A1 = (   3.4538890000,  -5.9823100000,   0.0000000000)
 A2 = (  -6.9077770000,   0.0000000000,   0.0000000000)
 A3 = (   0.0000000000,   0.0000000000, -23.4445880000)


Analysis of symmetry for initial positions (statically):
=====================================================================
 Subroutine PRICEL returns:
 Original cell was already a primitive cell.
 

 Routine SETGRP: Setting up the symmetry group for a 
 hexagonal supercell.


 Subroutine GETGRP returns: Found  3 space group operations
 (whereof  3 operations were pure point group operations)
 out of a pool of 24 trial point group operations.


The static configuration has the point symmetry C_3 .


Analysis of symmetry for dynamics (positions and initial velocities):
=====================================================================
 Subroutine PRICEL returns:
 Original cell was already a primitive cell.
 

 Routine SETGRP: Setting up the symmetry group for a 
 hexagonal supercell.


 Subroutine GETGRP returns: Found  3 space group operations
 (whereof  3 operations were pure point group operations)
 out of a pool of 24 trial point group operations.


The dynamic configuration has the point symmetry C_3 .


Analysis of constrained symmetry for selective dynamics:
=====================================================================
 Subroutine PRICEL returns:
 Original cell was already a primitive cell.
 

 Routine SETGRP: Setting up the symmetry group for a 
 hexagonal supercell.


 Subroutine GETGRP returns: Found  3 space group operations
 (whereof  3 operations were pure point group operations)
 out of a pool of 24 trial point group operations.


The constrained configuration has the point symmetry C_3 .


Analysis of structural, dynamic, and magnetic symmetry:
=====================================================================
 Subroutine PRICEL returns:
 Original cell was already a primitive cell.
 

 Routine SETGRP: Setting up the symmetry group for a 
 hexagonal supercell.


 Subroutine GETGRP returns: Found  3 space group operations
 (whereof  3 operations were pure point group operations)
 out of a pool of 24 trial point group operations.


The magnetic configuration has the point symmetry C_3 .


 Subroutine INISYM returns: Found  3 space group operations
 (whereof  3 operations are pure point group operations),
 and found     1 'primitive' translations



 KPOINTS: Kpoints from vasprun.xml                

Automatic generation of k-mesh.
Space group operators:
 irot       det(A)        alpha          n_x          n_y          n_z        tau_x        tau_y        tau_z
    1     1.000000     0.000000     1.000000     0.000000     0.000000     0.000000     0.000000     0.000000
    2     1.000000   120.000000     0.000000     0.000000     1.000000     0.000000     0.000000     0.000000
    3     1.000000   120.000000     0.000000     0.000000    -1.000000     0.000000     0.000000     0.000000
 
 Subroutine IBZKPT returns following result:
 ===========================================
 
 Found      5 irreducible k-points:
 
 Following reciprocal coordinates:
            Coordinates               Weight
  0.000000  0.000000  0.000000      1.000000
  0.200000  0.000000  0.000000      6.000000
  0.400000  0.000000  0.000000      6.000000
  0.400000  0.200000  0.000000      6.000000
 -0.400000  0.200000  0.000000      6.000000
 
 Following cartesian coordinates:
            Coordinates               Weight
  0.000000  0.000000  0.000000      1.000000
  0.028953 -0.016716  0.000000      6.000000
  0.057906 -0.033432  0.000000      6.000000
  0.057906  0.000000  0.000000      6.000000
 -0.057906  0.066864  0.000000      6.000000
 
 TETIRR: Found     15 inequivalent tetrahedra from      150


--------------------------------------------------------------------------------------------------------




 Dimension of arrays:
   k-points           NKPTS =      5   k-points in BZ     NKDIM =      5   number of bands    NBANDS=     48
   number of dos      NEDOS =    301   number of ions     NIONS =     10
   non local maximal  LDIM  =      6   non local SUM 2l+1 LMDIM =     18
   total plane-waves  NPLWV = 524880
   max r-space proj   IRMAX =   7543   max aug-charges    IRDMAX=  29641
   dimension x,y,z NGX =    54 NGY =   54 NGZ =  180
   dimension x,y,z NGXF=   108 NGYF=  108 NGZF=  360
   support grid    NGXF=   108 NGYF=  108 NGZF=  360
   ions per type =               2   1   1   6
   NGX,Y,Z   is equivalent  to a cutoff of  13.00, 13.00, 12.76 a.u.
   NGXF,Y,Z  is equivalent  to a cutoff of  25.99, 25.99, 25.53 a.u.

 SYSTEM =  unknown system                          
 POSCAR =  Ni2 Ge P S6                             

 Startparameter for this run:
   NWRITE =      2    write-flag & timer
   PREC   = accura    normal or accurate (medium, high low for compatibility)
   ISTART =      0    job   : 0-new  1-cont  2-samecut
   ICHARG =      2    charge: 1-file 2-atom 10-const
   ISPIN  =      2    spin polarized calculation?
   LNONCOLLINEAR =      F non collinear calculations
   LSORBIT =      F    spin-orbit coupling
   INIWAV =      1    electr: 0-lowe 1-rand  2-diag
   LASPH  =      F    aspherical Exc in radial PAW
   METAGGA=      F    non-selfconsistent MetaGGA calc.

 Electronic Relaxation 1
   ENCUT  =  520.0 eV  38.22 Ry    6.18 a.u.  12.84 12.84 43.59*2*pi/ulx,y,z
   ENINI  =  520.0     initial cutoff
   ENAUG  =  544.6 eV  augmentation charge cutoff
   NELM   =    400;   NELMIN=  2; NELMDL=  0     # of ELM steps 
   EDIFF  = 0.1E-03   stopping-criterion for ELM
   LREAL  =      T    real-space projection
   NLSPLINE    = F    spline interpolate recip. space projectors
   LCOMPAT=      F    compatible to vasp.4.4
   GGA_COMPAT  = T    GGA compatible to vasp.4.4-vasp.4.6
   LMAXPAW     = -100 max onsite density
   LMAXMIX     =    2 max onsite mixed and CHGCAR
   VOSKOWN=      0    Vosko Wilk Nusair interpolation
   ROPT   =   -0.00025  -0.00025  -0.00025  -0.00025
 Ionic relaxation
   EDIFFG = 0.1E-02   stopping-criterion for IOM
   NSW    =     99    number of steps for IOM
   NBLOCK =      1;   KBLOCK =     99    inner block; outer block 
   IBRION =      2    ionic relax: 0-MD 1-quasi-New 2-CG
   NFREE  =      1    steps in history (QN), initial steepest desc. (CG)
   ISIF   =      3    stress and relaxation
   IWAVPR =     11    prediction:  0-non 1-charg 2-wave 3-comb
   ISYM   =      2    0-nonsym 1-usesym 2-fastsym
   LCORR  =      T    Harris-Foulkes like correction to forces

   POTIM  = 0.5000    time-step for ionic-motion
   TEIN   =    0.0    initial temperature
   TEBEG  =    0.0;   TEEND  =   0.0 temperature during run
   SMASS  =  -3.00    Nose mass-parameter (am)
   estimated Nose-frequenzy (Omega)   =  0.10E-29 period in steps =****** mass=  -0.109E-26a.u.
   SCALEE = 1.0000    scale energy and forces
   NPACO  =    256;   APACO  = 16.0  distance and # of slots for P.C.
   PSTRESS=    0.0 pullay stress

  Mass of Ions in am
   POMASS =  58.69 72.61 30.97 32.07
  Ionic Valenz
   ZVAL   =  10.00  4.00  5.00  6.00
  Atomic Wigner-Seitz radii
   RWIGS  =  -1.00 -1.00 -1.00 -1.00
  virtual crystal weights 
   VCA    =   1.00  1.00  1.00  1.00
   NELECT =      65.0000    total number of electrons
   NUPDOWN=      -1.0000    fix difference up-down

 DOS related values:
   EMIN   =  10.00;   EMAX   =-10.00  energy-range for DOS
   EFERMI =   0.00
   ISMEAR =    -5;   SIGMA  =   0.05  broadening in eV -4-tet -1-fermi 0-gaus

 Electronic relaxation 2 (details)
   IALGO  =     38    algorithm
   LDIAG  =      T    sub-space diagonalisation (order eigenvalues)
   LSUBROT=      F    optimize rotation matrix (better conditioning)
   TURBO    =      0    0=normal 1=particle mesh
   IRESTART =      0    0=no restart 2=restart with 2 vectors
   NREBOOT  =      0    no. of reboots
   NMIN     =      0    reboot dimension
   EREF     =   0.00    reference energy to select bands
   IMIX   =      4    mixing-type and parameters
     AMIX     =   0.40;   BMIX     =  1.00
     AMIX_MAG =   1.60;   BMIX_MAG =  1.00
     AMIN     =   0.01
     WC   =   100.;   INIMIX=   1;  MIXPRE=   1;  MAXMIX= -45

 Intra band minimization:
   WEIMIN = 0.0010     energy-eigenvalue tresh-hold
   EBREAK =  0.52E-06  absolut break condition
   DEPER  =   0.30     relativ break condition  

   TIME   =   0.40     timestep for ELM

  volume/ion in A,a.u.               =      96.88       653.80
  Fermi-wavevector in a.u.,A,eV,Ry     =   0.665216  1.257076  6.020745  0.442512
  Thomas-Fermi vector in A             =   1.739143

 Write flags
   LWAVE        =      F    write WAVECAR
   LDOWNSAMPLE  =      F    k-point downsampling of WAVECAR
   LCHARG       =      T    write CHGCAR
   LVTOT        =      F    write LOCPOT, total local potential
   LVHAR        =      F    write LOCPOT, Hartree potential only
   LELF         =      F    write electronic localiz. function (ELF)
   LORBIT       =     11    0 simple, 1 ext, 2 COOP (PROOUT), +10 PAW based schemes


 Dipole corrections
   LMONO  =      F    monopole corrections only (constant potential shift)
   LDIPOL =      F    correct potential (dipole corrections)
   IDIPOL =      0    1-x, 2-y, 3-z, 4-all directions 
   EPSILON=  1.0000000 bulk dielectric constant

 Exchange correlation treatment:
   GGA     =    BO    GGA type
   LEXCH   =    42    internal setting for exchange type
   VOSKOWN=      0    Vosko Wilk Nusair interpolation
   LHFCALC =     F    Hartree Fock is set to
   LHFONE  =     F    Hartree Fock one center treatment
   AEXX    =    0.0000 exact exchange contribution

 vdW DFT:
   LUSE_VDW   =     T    switch on vdW DFT
   Zab_VDW    =-.8491    correlation parameter
   PARAM1     =0.1833
   PARAM2     =0.2200
   PARAM3     =0.0000
   -- rVV10 --
   BPARAM     = 6.3000
   CPARAM     = 0.0093

 Linear response parameters
   LEPSILON=     F    determine dielectric tensor
   LRPA    =     F    only Hartree local field effects (RPA)
   LNABLA  =     F    use nabla operator in PAW spheres
   LVEL    =     F    velocity operator in full k-point grid
   LINTERFAST=   F  fast interpolation
   KINTER  =     0    interpolate to denser k-point grid
   CSHIFT  =0.1000    complex shift for real part using Kramers Kronig
   OMEGAMAX=  -1.0    maximum frequency
   DEG_THRESHOLD= 0.2000000E-02 threshold for treating states as degnerate
   RTIME   =   -0.100 relaxation time in fs
  (WPLASMAI=    0.000 imaginary part of plasma frequency in eV, 0.658/RTIME)
   DFIELD  = 0.0000000 0.0000000 0.0000000 field for delta impulse in time

 Orbital magnetization related:
   ORBITALMAG=     F  switch on orbital magnetization
   LCHIMAG   =     F  perturbation theory with respect to B field
   DQ        =  0.001000  dq finite difference perturbation B field
   LLRAUG    =     F  two centre corrections for induced B field



--------------------------------------------------------------------------------------------------------


 conjugate gradient relaxation of ions
   using selective dynamics as specified on POSCAR
 charge density and potential will be updated during run
 spin polarized calculation
 Variant of blocked Davidson
 Davidson routine will perform the subspace rotation
 perform sub-space diagonalisation
    after iterative eigenvector-optimisation
 modified Broyden-mixing scheme, WC =      100.0
 initial mixing is a Kerker type mixing with AMIX =  0.4000 and BMIX =      1.0000
 Hartree-type preconditioning will be used
 using additional bands           15
 real space projection scheme for non local part
 use partial core corrections
 calculate Harris-corrections to forces   (improved forces if not selfconsistent)
 use gradient corrections 
 use of overlap-Matrix (Vanderbilt PP)
 Fermi weights with tetrahedron method with Bloechl corrections


--------------------------------------------------------------------------------------------------------


  energy-cutoff  :      520.00
  volume of cell :      968.84
      direct lattice vectors                 reciprocal lattice vectors
     6.907777000 -0.000000000  0.000000000     0.144764372 -0.083579742  0.000000000
     3.453888000  5.982310000  0.000000000     0.000000000  0.167159509 -0.000000000
     0.000000000  0.000000000 23.444588000    -0.000000000  0.000000000  0.042653767

  length of vectors
     6.907777000  6.907776433 23.444588000     0.167159495  0.167159509  0.042653767



 k-points in units of 2pi/SCALE and weight: Kpoints from vasprun.xml                
   0.00000000  0.00000000  0.00000000       0.040
   0.02895287 -0.01671595  0.00000000       0.240
   0.05790575 -0.03343190  0.00000000       0.240
   0.05790575  0.00000000  0.00000000       0.240
  -0.05790575  0.06686380  0.00000000       0.240

 k-points in reciprocal lattice and weights: Kpoints from vasprun.xml                
   0.00000000  0.00000000  0.00000000       0.040
   0.20000000  0.00000000  0.00000000       0.240
   0.40000000  0.00000000  0.00000000       0.240
   0.40000000  0.20000000  0.00000000       0.240
  -0.40000000  0.20000000  0.00000000       0.240

 position of ions in fractional coordinates (direct lattice) 
   0.33333300  0.33333300  0.49992500
   0.66666700  0.66666700  0.50007500
   0.00000000  0.00000000  0.44821600
   0.00000000  0.00000000  0.55178400
   0.62635700  0.00042000  0.57375200
   0.00042000  0.37322400  0.57375200
   0.37322400  0.62635700  0.57375200
   0.37364300  0.99958000  0.42624800
   0.99958000  0.62677600  0.42624800
   0.62677600  0.37364300  0.42624800

 position of ions in cartesian coordinates  (Angst):
   3.45388488  1.99410134 11.72053566
   6.90778012  3.98820866 11.72405234
   0.00000000  0.00000000 10.50823946
   0.00000000  0.00000000 12.93634854
   4.32818511  0.00251257 13.45137925
   1.29197516  2.23274167 13.45137925
   4.74151509  3.74706174 13.45137925
   6.03347989  5.97979743  9.99320875
   9.06968984  3.74956833  9.99320875
   5.62014991  2.23524826  9.99320875



--------------------------------------------------------------------------------------------------------


 k-point  1 :   0.0000 0.0000 0.0000  plane waves:   26073
 k-point  2 :   0.2000 0.0000 0.0000  plane waves:   26070
 k-point  3 :   0.4000 0.0000 0.0000  plane waves:   26086
 k-point  4 :   0.4000 0.2000 0.0000  plane waves:   26085
 k-point  5 :  -0.4000 0.2000 0.0000  plane waves:   26115

 maximum and minimum number of plane-waves per node :     26115    26070

 maximum number of plane-waves:     26115
 maximum index in each direction: 
   IXMAX=   13   IYMAX=   12   IZMAX=   43
   IXMIN=  -13   IYMIN=  -13   IZMIN=  -43


 serial   3D FFT for wavefunctions
 parallel 3D FFT for charge:
    minimum data exchange during FFTs selected (reduces bandwidth)


 total amount of memory used by VASP MPI-rank0   128521. kBytes
=======================================================================

   base      :      30000. kBytes
   nonlr-proj:       6036. kBytes
   fftplans  :      11247. kBytes
   grid      :      68332. kBytes
   one-center:        311. kBytes
   wavefun   :      12595. kBytes

     INWAV:  cpu time    0.0000: real time    0.0014
 Broyden mixing: mesh for mixing (old mesh)
   NGX = 25   NGY = 25   NGZ = 87
  (NGX  =108   NGY  =108   NGZ  =360)
  gives a total of  54375 points

 initial charge density was supplied:
 charge density of overlapping atoms calculated
 number of electron      65.0000000 magnetization       7.3200000
 keeping initial charge density in first step


--------------------------------------------------------------------------------------------------------


 Maximum index for non-local projection operator         7247
 Maximum index for augmentation-charges         2133 (set IRDMAX)


--------------------------------------------------------------------------------------------------------


 First call to EWALD:  gamma=   0.179
 Maximum number of real-space cells 4x 4x 1
 Maximum number of reciprocal cells 2x 2x 6

    FEWALD:  cpu time    0.0040: real time    0.0015


--------------------------------------- Iteration      1(   1)  ---------------------------------------


vdW kernel read from vdw_kernel.bindat
  0.0000  0.2424  0.5071  0.7962  1.1119  1.4567  1.8333  2.2446  2.6937  3.1842
  3.7199  4.3049  4.9438  5.6415  6.4036  7.2358  8.1446  9.1372 10.2212 11.4050
 12.6979 14.1099 15.6519 17.3360 19.1751 21.1837 23.3773 25.7729 28.3892 31.2465
 34.3669 37.7748 41.4965 45.5611 50.0000

    POTLOK:  cpu time   51.6160: real time   53.1306
    SETDIJ:  cpu time    0.0440: real time    0.0444
     EDDAV:  cpu time   22.6040: real time   22.6965
 BZINTS: Fermi energy:  4.606657; 65.000000 electrons
         Band energy: -46.133641;  BLOECHL correction: -0.022127
       DOS:  cpu time    0.0080: real time    0.0047
    --------------------------------------------
      LOOP:  cpu time   74.2720: real time   75.8763

 eigenvalue-minimisations  :   960
 total energy-change (2. order) : 0.4257715E+03  (-0.2004917E+04)
 number of electron      65.0000000 magnetization       7.3200000
 augmentation part       65.0000000 magnetization       7.3200000

 Free energy of the ion-electron system (eV)
  ---------------------------------------------------
  alpha Z        PSCENC =        28.20599243
  Ewald energy   TEWEN  =      8338.88239735
  -Hartree energ DENC   =    -12043.57747392
  -exchange      EXHF   =         0.00000000
  -V(xc)+E(xc)   XCENC  =       122.07439166
  PAW double counting   =      2424.84790082    -2511.98109786
  entropy T*S    EENTRO =         0.00000000
  eigenvalues    EBANDS =       -46.13364089
  atomic energy  EATOM  =      4113.45303949
  Solvation  Ediel_sol  =         0.00000000
  ---------------------------------------------------
  free energy    TOTEN  =       425.77150908 eV

  energy without entropy =      425.77150908  energy(sigma->0) =      425.77150908


--------------------------------------------------------------------------------------------------------




--------------------------------------- Iteration      1(   2)  ---------------------------------------


     EDDAV:  cpu time   32.6520: real time   33.1889
 BZINTS: Fermi energy: -2.265815; 65.000000 electrons
         Band energy:-436.826396;  BLOECHL correction: -0.015260
       DOS:  cpu time    0.0080: real time    0.0045
    --------------------------------------------
      LOOP:  cpu time   32.6600: real time   33.1934

 eigenvalue-minimisations  :  1472
 total energy-change (2. order) :-0.3906928E+03  (-0.3704701E+03)
 number of electron      65.0000000 magnetization       7.3200000
 augmentation part       65.0000000 magnetization       7.3200000

 Free energy of the ion-electron system (eV)
  ---------------------------------------------------
  alpha Z        PSCENC =        28.20599243
  Ewald energy   TEWEN  =      8338.88239735
  -Hartree energ DENC   =    -12043.57747392
  -exchange      EXHF   =         0.00000000
  -V(xc)+E(xc)   XCENC  =       122.07439166
  PAW double counting   =      2424.84790082    -2511.98109786
  entropy T*S    EENTRO =         0.00000000
  eigenvalues    EBANDS =      -436.82639563
  atomic energy  EATOM  =      4113.45303949
  Solvation  Ediel_sol  =         0.00000000
  ---------------------------------------------------
  free energy    TOTEN  =        35.07875434 eV

  energy without entropy =       35.07875434  energy(sigma->0) =       35.07875434


--------------------------------------------------------------------------------------------------------




--------------------------------------- Iteration      1(   3)  ---------------------------------------


     EDDAV:  cpu time   28.2840: real time   28.4419
 BZINTS: Fermi energy: -2.873491; 65.000000 electrons
         Band energy:-511.843394;  BLOECHL correction: -0.007242
       DOS:  cpu time    0.0080: real time    0.0047
    --------------------------------------------
      LOOP:  cpu time   28.2920: real time   28.4466

 eigenvalue-minimisations  :  1232
 total energy-change (2. order) :-0.7501700E+02  (-0.7151768E+02)
 number of electron      65.0000000 magnetization       7.3200000
 augmentation part       65.0000000 magnetization       7.3200000

 Free energy of the ion-electron system (eV)
  ---------------------------------------------------
  alpha Z        PSCENC =        28.20599243
  Ewald energy   TEWEN  =      8338.88239735
  -Hartree energ DENC   =    -12043.57747392
  -exchange      EXHF   =         0.00000000
  -V(xc)+E(xc)   XCENC  =       122.07439166
  PAW double counting   =      2424.84790082    -2511.98109786
  entropy T*S    EENTRO =         0.00000000
  eigenvalues    EBANDS =      -511.84339381
  atomic energy  EATOM  =      4113.45303949
  Solvation  Ediel_sol  =         0.00000000
  ---------------------------------------------------
  free energy    TOTEN  =       -39.93824384 eV

  energy without entropy =      -39.93824384  energy(sigma->0) =      -39.93824384


--------------------------------------------------------------------------------------------------------




--------------------------------------- Iteration      1(   4)  ---------------------------------------


     EDDAV:  cpu time   26.8160: real time   26.9703
 BZINTS: Fermi energy: -2.889224; 65.000000 electrons
         Band energy:-514.816449;  BLOECHL correction: -0.006947
       DOS:  cpu time    0.0080: real time    0.0051
    --------------------------------------------
      LOOP:  cpu time   26.8240: real time   26.9754

 eigenvalue-minimisations  :  1168
 total energy-change (2. order) :-0.2973055E+01  (-0.2952820E+01)
 number of electron      65.0000000 magnetization       7.3200000
 augmentation part       65.0000000 magnetization       7.3200000

 Free energy of the ion-electron system (eV)
  ---------------------------------------------------
  alpha Z        PSCENC =        28.20599243
  Ewald energy   TEWEN  =      8338.88239735
  -Hartree energ DENC   =    -12043.57747392
  -exchange      EXHF   =         0.00000000
  -V(xc)+E(xc)   XCENC  =       122.07439166
  PAW double counting   =      2424.84790082    -2511.98109786
  entropy T*S    EENTRO =         0.00000000
  eigenvalues    EBANDS =      -514.81644881
  atomic energy  EATOM  =      4113.45303949
  Solvation  Ediel_sol  =         0.00000000
  ---------------------------------------------------
  free energy    TOTEN  =       -42.91129883 eV

  energy without entropy =      -42.91129883  energy(sigma->0) =      -42.91129883


--------------------------------------------------------------------------------------------------------




--------------------------------------- Iteration      1(   5)  ---------------------------------------


     EDDAV:  cpu time   30.9160: real time   31.1492
 BZINTS: Fermi energy: -2.890094; 65.000000 electrons
         Band energy:-514.905202;  BLOECHL correction: -0.006896
       DOS:  cpu time    0.0080: real time    0.0059
    CHARGE:  cpu time    2.0920: real time    2.1042
    MIXING:  cpu time    0.0440: real time    0.0410
    --------------------------------------------
      LOOP:  cpu time   33.0600: real time   33.3003

 eigenvalue-minimisations  :  1376
 total energy-change (2. order) :-0.8875367E-01  (-0.8876056E-01)
 number of electron      64.9999993 magnetization       7.5001275
 augmentation part        1.4368074 magnetization       4.3148111

 Broyden mixing:
  rms(total) = 0.45971E+01    rms(broyden)= 0.45971E+01
  rms(prec ) = 0.48731E+01
  weight for this iteration     100.00

 Free energy of the ion-electron system (eV)
  ---------------------------------------------------
  alpha Z        PSCENC =        28.20599243
  Ewald energy   TEWEN  =      8338.88239735
  -Hartree energ DENC   =    -12043.57747392
  -exchange      EXHF   =         0.00000000
  -V(xc)+E(xc)   XCENC  =       122.07439166
  PAW double counting   =      2424.84790082    -2511.98109786
  entropy T*S    EENTRO =         0.00000000
  eigenvalues    EBANDS =      -514.90520247
  atomic energy  EATOM  =      4113.45303949
  Solvation  Ediel_sol  =         0.00000000
  ---------------------------------------------------
  free energy    TOTEN  =       -43.00005250 eV

  energy without entropy =      -43.00005250  energy(sigma->0) =      -43.00005250


--------------------------------------------------------------------------------------------------------




--------------------------------------- Iteration      1(   6)  ---------------------------------------


    POTLOK:  cpu time   51.7600: real time   52.0666
    SETDIJ:  cpu time    0.0480: real time    0.0461
     EDDAV:  cpu time   29.2800: real time   29.6282
 BZINTS: Fermi energy: -4.311931; 65.000000 electrons
         Band energy:-822.626103;  BLOECHL correction: -0.022438
       DOS:  cpu time    0.0040: real time    0.0070
    CHARGE:  cpu time    2.1680: real time    2.1779
    MIXING:  cpu time    0.0480: real time    0.0502
    --------------------------------------------
      LOOP:  cpu time   83.3080: real time   83.9759

 eigenvalue-minimisations  :  1296
 total energy-change (2. order) :-0.6159630E+02  (-0.7861993E+02)
 number of electron      64.9999992 magnetization       7.1462274
 augmentation part       10.6061414 magnetization       7.8603371

 Broyden mixing:
  rms(total) = 0.67457E+01    rms(broyden)= 0.67456E+01
  rms(prec ) = 0.69936E+01
  weight for this iteration     100.00

 eigenvalues of (default mixing * dielectric matrix)
  average eigenvalue GAMMA=   0.3776
  0.3776

 Free energy of the ion-electron system (eV)
  ---------------------------------------------------
  alpha Z        PSCENC =        28.20599243
  Ewald energy   TEWEN  =      8338.88239735
  -Hartree energ DENC   =    -11836.02976151
  -exchange      EXHF   =         0.00000000
  -V(xc)+E(xc)   XCENC  =       124.44543528
  PAW double counting   =      2065.94295133    -2116.87030454
  entropy T*S    EENTRO =         0.00000000
  eigenvalues    EBANDS =      -822.62610258
  atomic energy  EATOM  =      4113.45303949
  Solvation  Ediel_sol  =         0.00000000
  ---------------------------------------------------
  free energy    TOTEN  =      -104.59635275 eV

  energy without entropy =     -104.59635275  energy(sigma->0) =     -104.59635275


--------------------------------------------------------------------------------------------------------




--------------------------------------- Iteration      1(   7)  ---------------------------------------


    POTLOK:  cpu time   51.6320: real time   52.0395
    SETDIJ:  cpu time    0.0440: real time    0.0428
     EDDAV:  cpu time   25.9400: real time   26.1732
 BZINTS: Fermi energy: -4.710084; 65.000000 electrons
         Band energy:-643.359348;  BLOECHL correction: -0.020020
       DOS:  cpu time    0.0080: real time    0.0071
    CHARGE:  cpu time    2.1080: real time    2.1251
    MIXING:  cpu time    0.0600: real time    0.0597
    --------------------------------------------
      LOOP:  cpu time   79.7920: real time   80.4475

 eigenvalue-minimisations  :  1136
 total energy-change (2. order) : 0.5163256E+02  (-0.7429748E+01)
 number of electron      64.9999992 magnetization       6.9786408
 augmentation part        9.7043402 magnetization       5.4297959

 Broyden mixing:
  rms(total) = 0.35413E+01    rms(broyden)= 0.35413E+01
  rms(prec ) = 0.37497E+01
  weight for this iteration     100.00

 eigenvalues of (default mixing * dielectric matrix)
  average eigenvalue GAMMA=   0.4563
  0.4563  0.4563

 Free energy of the ion-electron system (eV)
  ---------------------------------------------------
  alpha Z        PSCENC =        28.20599243
  Ewald energy   TEWEN  =      8338.88239735
  -Hartree energ DENC   =    -11930.84794509
  -exchange      EXHF   =         0.00000000
  -V(xc)+E(xc)   XCENC  =       120.45402606
  PAW double counting   =      2241.35337194    -2321.10532590
  entropy T*S    EENTRO =         0.00000000
  eigenvalues    EBANDS =      -643.35934829
  atomic energy  EATOM  =      4113.45303949
  Solvation  Ediel_sol  =         0.00000000
  ---------------------------------------------------
  free energy    TOTEN  =       -52.96379201 eV

  energy without entropy =      -52.96379201  energy(sigma->0) =      -52.96379201


--------------------------------------------------------------------------------------------------------




--------------------------------------- Iteration      1(   8)  ---------------------------------------


    POTLOK:  cpu time   51.4200: real time   51.8069
    SETDIJ:  cpu time    0.0440: real time    0.0434
     EDDAV:  cpu time   27.7880: real time   28.0287
 BZINTS: Fermi energy: -4.762762; 65.000000 electrons
         Band energy:-577.274637;  BLOECHL correction: -0.014640
       DOS:  cpu time    0.0080: real time    0.0068
    CHARGE:  cpu time    2.1560: real time    2.1733
    MIXING:  cpu time    0.0480: real time    0.0457
    --------------------------------------------
      LOOP:  cpu time   81.4640: real time   82.1048

 eigenvalue-minimisations  :  1216
 total energy-change (2. order) : 0.1427583E+02  (-0.1639905E+01)
 number of electron      64.9999991 magnetization       6.8446330
 augmentation part        8.6600831 magnetization       4.2601912

 Broyden mixing:
  rms(total) = 0.23696E+01    rms(broyden)= 0.23695E+01
  rms(prec ) = 0.25026E+01
  weight for this iteration     100.00

 eigenvalues of (default mixing * dielectric matrix)
  average eigenvalue GAMMA=   0.4993
  0.5487  0.5487  0.4007

 Free energy of the ion-electron system (eV)
  ---------------------------------------------------
  alpha Z        PSCENC =        28.20599243
  Ewald energy   TEWEN  =      8338.88239735
  -Hartree energ DENC   =    -11975.16580968
  -exchange      EXHF   =         0.00000000
  -V(xc)+E(xc)   XCENC  =       121.20178023
  PAW double counting   =      2316.25566468    -2404.24638640
  entropy T*S    EENTRO =         0.00000000
  eigenvalues    EBANDS =      -577.27463741
  atomic energy  EATOM  =      4113.45303949
  Solvation  Ediel_sol  =         0.00000000
  ---------------------------------------------------
  free energy    TOTEN  =       -38.68795929 eV

  energy without entropy =      -38.68795929  energy(sigma->0) =      -38.68795929


--------------------------------------------------------------------------------------------------------




--------------------------------------- Iteration      1(   9)  ---------------------------------------


    POTLOK:  cpu time   51.6160: real time   51.8462
    SETDIJ:  cpu time    0.0400: real time    0.0416
     EDDAV:  cpu time   31.0120: real time   31.1650
 BZINTS: Fermi energy: -4.643323; 65.000000 electrons
         Band energy:-544.187680;  BLOECHL correction: -0.011183
       DOS:  cpu time    0.0040: real time    0.0063
    CHARGE:  cpu time    2.1560: real time    2.1798
    MIXING:  cpu time    0.0480: real time    0.0457
    --------------------------------------------
      LOOP:  cpu time   84.8760: real time   85.2847

 eigenvalue-minimisations  :  1376
 total energy-change (2. order) : 0.3893578E+01  (-0.5022786E+00)
 number of electron      64.9999991 magnetization       6.8137960
 augmentation part        7.0274441 magnetization       5.1010357

 Broyden mixing:
  rms(total) = 0.87475E+00    rms(broyden)= 0.87425E+00
  rms(prec ) = 0.91297E+00
  weight for this iteration     100.00

 eigenvalues of (default mixing * dielectric matrix)
  average eigenvalue GAMMA=   0.4194
  0.5547  0.5547  0.3481  0.2201

 Free energy of the ion-electron system (eV)
  ---------------------------------------------------
  alpha Z        PSCENC =        28.20599243
  Ewald energy   TEWEN  =      8338.88239735
  -Hartree energ DENC   =    -12003.40439449
  -exchange      EXHF   =         0.00000000
  -V(xc)+E(xc)   XCENC  =       121.70661578
  PAW double counting   =      2367.35217070    -2456.80252240
  entropy T*S    EENTRO =         0.00000000
  eigenvalues    EBANDS =      -544.18768020
  atomic energy  EATOM  =      4113.45303949
  Solvation  Ediel_sol  =         0.00000000
  ---------------------------------------------------
  free energy    TOTEN  =       -34.79438134 eV

  energy without entropy =      -34.79438134  energy(sigma->0) =      -34.79438134


--------------------------------------------------------------------------------------------------------




--------------------------------------- Iteration      1(  10)  ---------------------------------------


    POTLOK:  cpu time   51.4040: real time   51.6779
    SETDIJ:  cpu time    0.0440: real time    0.0416
     EDDAV:  cpu time   27.5720: real time   27.7502
 BZINTS: Fermi energy: -4.656260; 65.000000 electrons
         Band energy:-543.048283;  BLOECHL correction: -0.011310
       DOS:  cpu time    0.0040: real time    0.0069
    CHARGE:  cpu time    2.0520: real time    2.1316
    MIXING:  cpu time    0.0440: real time    0.0425
    --------------------------------------------
      LOOP:  cpu time   81.1200: real time   81.6505

 eigenvalue-minimisations  :  1216
 total energy-change (2. order) :-0.1922096E-01  (-0.1502820E+00)
 number of electron      64.9999991 magnetization       6.7581001
 augmentation part        6.8960444 magnetization       5.1171104

 Broyden mixing:
  rms(total) = 0.77146E+00    rms(broyden)= 0.77142E+00
  rms(prec ) = 0.80337E+00
  weight for this iteration     100.00

 eigenvalues of (default mixing * dielectric matrix)
  average eigenvalue GAMMA=   0.4828
  0.4197  0.5122  0.5122  0.4848  0.4848

 Free energy of the ion-electron system (eV)
  ---------------------------------------------------
  alpha Z        PSCENC =        28.20599243
  Ewald energy   TEWEN  =      8338.88239735
  -Hartree energ DENC   =    -12004.55379060
  -exchange      EXHF   =         0.00000000
  -V(xc)+E(xc)   XCENC  =       121.72246716
  PAW double counting   =      2369.59823832    -2459.07366372
  entropy T*S    EENTRO =         0.00000000
  eigenvalues    EBANDS =      -543.04828273
  atomic energy  EATOM  =      4113.45303949
  Solvation  Ediel_sol  =         0.00000000
  ---------------------------------------------------
  free energy    TOTEN  =       -34.81360229 eV

  energy without entropy =      -34.81360229  energy(sigma->0) =      -34.81360229


--------------------------------------------------------------------------------------------------------




--------------------------------------- Iteration      1(  11)  ---------------------------------------


    POTLOK:  cpu time   50.6080: real time   51.0410
    SETDIJ:  cpu time    0.0600: real time    0.0598
     EDDAV:  cpu time   29.9280: real time   30.7075
 BZINTS: Fermi energy: -4.639697; 65.000000 electrons
         Band energy:-542.779896;  BLOECHL correction: -0.011415
       DOS:  cpu time    0.0040: real time    0.0060
    CHARGE:  cpu time    2.1440: real time    2.1462
    MIXING:  cpu time    0.0480: real time    0.0465
    --------------------------------------------
      LOOP:  cpu time   82.7920: real time   84.0071

 eigenvalue-minimisations  :  1360
 total energy-change (2. order) :-0.1776020E-01  (-0.4210487E-02)
 number of electron      64.9999991 magnetization       6.1867716
 augmentation part        6.9392909 magnetization       4.5279263

 Broyden mixing:
  rms(total) = 0.77834E+00    rms(broyden)= 0.77834E+00
  rms(prec ) = 0.81313E+00
  weight for this iteration     100.00

 eigenvalues of (default mixing * dielectric matrix)
  average eigenvalue GAMMA=   0.6929
  0.9819  0.9819  0.6445  0.6445  0.4523  0.4523

 Free energy of the ion-electron system (eV)
  ---------------------------------------------------
  alpha Z        PSCENC =        28.20599243
  Ewald energy   TEWEN  =      8338.88239735
  -Hartree energ DENC   =    -12004.82998775
  -exchange      EXHF   =         0.00000000
  -V(xc)+E(xc)   XCENC  =       121.71954089
  PAW double counting   =      2369.33650312    -2458.81895233
  entropy T*S    EENTRO =         0.00000000
  eigenvalues    EBANDS =      -542.77989569
  atomic energy  EATOM  =      4113.45303949
  Solvation  Ediel_sol  =         0.00000000
  ---------------------------------------------------
  free energy    TOTEN  =       -34.83136250 eV

  energy without entropy =      -34.83136250  energy(sigma->0) =      -34.83136250


--------------------------------------------------------------------------------------------------------




--------------------------------------- Iteration      1(  12)  ---------------------------------------


    POTLOK:  cpu time   50.8080: real time   51.0397
    SETDIJ:  cpu time    0.0400: real time    0.0418
     EDDAV:  cpu time   31.9280: real time   32.1761
 BZINTS: Fermi energy: -4.498965; 65.000000 electrons
         Band energy:-538.560162;  BLOECHL correction: -0.011481
       DOS:  cpu time    0.0040: real time    0.0069
    CHARGE:  cpu time    2.1280: real time    2.1366
    MIXING:  cpu time    0.0480: real time    0.0474
    --------------------------------------------
      LOOP:  cpu time   84.9560: real time   85.4484

 eigenvalue-minimisations  :  1440
 total energy-change (2. order) :-0.1889365E+00  (-0.3398124E-01)
 number of electron      64.9999991 magnetization       5.9109411
 augmentation part        7.0791656 magnetization       4.2044172

 Broyden mixing:
  rms(total) = 0.79630E+00    rms(broyden)= 0.79629E+00
  rms(prec ) = 0.83930E+00
  weight for this iteration     100.00

 eigenvalues of (default mixing * dielectric matrix)
  average eigenvalue GAMMA=   0.6967
  1.1811  1.1811  0.6199  0.6199  0.4593  0.4593  0.3559

 Free energy of the ion-electron system (eV)
  ---------------------------------------------------
  alpha Z        PSCENC =        28.20599243
  Ewald energy   TEWEN  =      8338.88239735
  -Hartree energ DENC   =    -12010.02099665
  -exchange      EXHF   =         0.00000000
  -V(xc)+E(xc)   XCENC  =       121.77486731
  PAW double counting   =      2372.96817569    -2461.72361296
  entropy T*S    EENTRO =         0.00000000
  eigenvalues    EBANDS =      -538.56016162
  atomic energy  EATOM  =      4113.45303949
  Solvation  Ediel_sol  =         0.00000000
  ---------------------------------------------------
  free energy    TOTEN  =       -35.02029895 eV

  energy without entropy =      -35.02029895  energy(sigma->0) =      -35.02029895


--------------------------------------------------------------------------------------------------------




--------------------------------------- Iteration      1(  13)  ---------------------------------------


    POTLOK:  cpu time   50.8960: real time   51.1243
    SETDIJ:  cpu time    0.0400: real time    0.0401
     EDDAV:  cpu time   29.6080: real time   29.8883
 BZINTS: Fermi energy: -4.450038; 65.000000 electrons
         Band energy:-536.125855;  BLOECHL correction: -0.010668
       DOS:  cpu time    0.0040: real time    0.0068
    CHARGE:  cpu time    2.1880: real time    2.2135
    MIXING:  cpu time    0.0440: real time    0.0455
    --------------------------------------------
      LOOP:  cpu time   82.7800: real time   83.3185

 eigenvalue-minimisations  :  1312
 total energy-change (2. order) : 0.9847453E-02  (-0.3551886E-01)
 number of electron      64.9999991 magnetization       5.5165877
 augmentation part        7.0022261 magnetization       3.8673723

 Broyden mixing:
  rms(total) = 0.70220E+00    rms(broyden)= 0.70217E+00
  rms(prec ) = 0.74087E+00
  weight for this iteration     100.00

 eigenvalues of (default mixing * dielectric matrix)
  average eigenvalue GAMMA=   0.7540
  1.4951  1.4951  0.6350  0.6350  0.5679  0.5679  0.4540  0.1815

 Free energy of the ion-electron system (eV)
  ---------------------------------------------------
  alpha Z        PSCENC =        28.20599243
  Ewald energy   TEWEN  =      8338.88239735
  -Hartree energ DENC   =    -12012.83628367
  -exchange      EXHF   =         0.00000000
  -V(xc)+E(xc)   XCENC  =       121.79668941
  PAW double counting   =      2375.97639205    -2464.36282333
  entropy T*S    EENTRO =         0.00000000
  eigenvalues    EBANDS =      -536.12585523
  atomic energy  EATOM  =      4113.45303949
  Solvation  Ediel_sol  =         0.00000000
  ---------------------------------------------------
  free energy    TOTEN  =       -35.01045150 eV

  energy without entropy =      -35.01045150  energy(sigma->0) =      -35.01045150


--------------------------------------------------------------------------------------------------------




--------------------------------------- Iteration      1(  14)  ---------------------------------------


    POTLOK:  cpu time   52.2320: real time   52.3755
    SETDIJ:  cpu time    0.0440: real time    0.0426
     EDDAV:  cpu time   31.2280: real time   31.3088
 BZINTS: Fermi energy: -4.402519; 65.000000 electrons
         Band energy:-532.127810;  BLOECHL correction: -0.010322
       DOS:  cpu time    0.0080: real time    0.0072
    CHARGE:  cpu time    2.1600: real time    2.1616
    MIXING:  cpu time    0.0640: real time    0.0651
    --------------------------------------------
      LOOP:  cpu time   85.7360: real time   85.9608

 eigenvalue-minimisations  :  1376
 total energy-change (2. order) : 0.1037809E+00  (-0.2022031E-01)
 number of electron      64.9999991 magnetization       4.9123467
 augmentation part        6.7479219 magnetization       3.4160687

 Broyden mixing:
  rms(total) = 0.43072E+00    rms(broyden)= 0.43067E+00
  rms(prec ) = 0.45401E+00
  weight for this iteration     100.00

 eigenvalues of (default mixing * dielectric matrix)
  average eigenvalue GAMMA=   0.7900
  2.0469  0.6432  0.6432  1.0252  0.7922  0.7922  0.5786  0.4110  0.1778

 Free energy of the ion-electron system (eV)
  ---------------------------------------------------
  alpha Z        PSCENC =        28.20599243
  Ewald energy   TEWEN  =      8338.88239735
  -Hartree energ DENC   =    -12017.16472796
  -exchange      EXHF   =         0.00000000
  -V(xc)+E(xc)   XCENC  =       121.83050988
  PAW double counting   =      2381.29545790    -2469.28152947
  entropy T*S    EENTRO =         0.00000000
  eigenvalues    EBANDS =      -532.12781018
  atomic energy  EATOM  =      4113.45303949
  Solvation  Ediel_sol  =         0.00000000
  ---------------------------------------------------
  free energy    TOTEN  =       -34.90667055 eV

  energy without entropy =      -34.90667055  energy(sigma->0) =      -34.90667055


--------------------------------------------------------------------------------------------------------




--------------------------------------- Iteration      1(  15)  ---------------------------------------


    POTLOK:  cpu time   52.4200: real time   52.4718
    SETDIJ:  cpu time    0.0400: real time    0.0415
     EDDAV:  cpu time   31.4560: real time   32.1627
 BZINTS: Fermi energy: -4.346598; 65.000000 electrons
         Band energy:-527.025425;  BLOECHL correction: -0.003325
       DOS:  cpu time    0.0040: real time    0.0067
    CHARGE:  cpu time    2.1680: real time    2.1697
    MIXING:  cpu time    0.0480: real time    0.0477
    --------------------------------------------
      LOOP:  cpu time   86.1360: real time   86.9001

 eigenvalue-minimisations  :  1424
 total energy-change (2. order) :-0.6229848E-02  (-0.3847356E-01)
 number of electron      64.9999990 magnetization       4.6232681
 augmentation part        6.1355889 magnetization       3.3857998

 Broyden mixing:
  rms(total) = 0.24532E+00    rms(broyden)= 0.24509E+00
  rms(prec ) = 0.26435E+00
  weight for this iteration     100.00

 eigenvalues of (default mixing * dielectric matrix)
  average eigenvalue GAMMA=   0.8309
  2.4564  1.1689  1.1689  0.6450  0.6450  0.6119  0.6119  0.4137  0.4137  0.1741

 Free energy of the ion-electron system (eV)
  ---------------------------------------------------
  alpha Z        PSCENC =        28.20599243
  Ewald energy   TEWEN  =      8338.88239735
  -Hartree energ DENC   =    -12022.24830175
  -exchange      EXHF   =         0.00000000
  -V(xc)+E(xc)   XCENC  =       121.86043622
  PAW double counting   =      2388.08430676    -2476.12534544
  entropy T*S    EENTRO =         0.00000000
  eigenvalues    EBANDS =      -527.02542546
  atomic energy  EATOM  =      4113.45303949
  Solvation  Ediel_sol  =         0.00000000
  ---------------------------------------------------
  free energy    TOTEN  =       -34.91290040 eV

  energy without entropy =      -34.91290040  energy(sigma->0) =      -34.91290040


--------------------------------------------------------------------------------------------------------




--------------------------------------- Iteration      1(  16)  ---------------------------------------


    POTLOK:  cpu time   51.9200: real time   52.0726
    SETDIJ:  cpu time    0.0440: real time    0.0415
     EDDAV:  cpu time   26.4080: real time   26.7370
 BZINTS: Fermi energy: -4.400871; 65.000000 electrons
         Band energy:-530.952474;  BLOECHL correction: -0.004989
       DOS:  cpu time    0.0040: real time    0.0071
    CHARGE:  cpu time    2.1480: real time    2.1783
    MIXING:  cpu time    0.0480: real time    0.0475
    --------------------------------------------
      LOOP:  cpu time   80.5720: real time   81.0840

 eigenvalue-minimisations  :  1184
 total energy-change (2. order) : 0.1390356E-02  (-0.1912082E-01)
 number of electron      64.9999990 magnetization       4.0605120
 augmentation part        6.2588670 magnetization       2.7513162

 Broyden mixing:
  rms(total) = 0.13599E+00    rms(broyden)= 0.13597E+00
  rms(prec ) = 0.14378E+00
  weight for this iteration     100.00

 eigenvalues of (default mixing * dielectric matrix)
  average eigenvalue GAMMA=   0.9188
  2.9072  1.9142  1.0404  0.6452  0.6452  0.7528  0.6173  0.6173  0.4480  0.3462
  0.1732

 Free energy of the ion-electron system (eV)
  ---------------------------------------------------
  alpha Z        PSCENC =        28.20599243
  Ewald energy   TEWEN  =      8338.88239735
  -Hartree energ DENC   =    -12017.98662652
  -exchange      EXHF   =         0.00000000
  -V(xc)+E(xc)   XCENC  =       121.70419570
  PAW double counting   =      2380.96001085    -2469.17804576
  entropy T*S    EENTRO =         0.00000000
  eigenvalues    EBANDS =      -530.95247358
  atomic energy  EATOM  =      4113.45303949
  Solvation  Ediel_sol  =         0.00000000
  ---------------------------------------------------
  free energy    TOTEN  =       -34.91151005 eV

  energy without entropy =      -34.91151005  energy(sigma->0) =      -34.91151005


--------------------------------------------------------------------------------------------------------




--------------------------------------- Iteration      1(  17)  ---------------------------------------


    POTLOK:  cpu time   50.9800: real time   51.0168
    SETDIJ:  cpu time    0.0400: real time    0.0416
     EDDAV:  cpu time   30.9280: real time   30.9900
 BZINTS: Fermi energy: -4.496508; 65.000000 electrons
         Band energy:-539.179541;  BLOECHL correction: -0.007551
       DOS:  cpu time    0.0040: real time    0.0066
    CHARGE:  cpu time    2.1680: real time    2.1709
    MIXING:  cpu time    0.0680: real time    0.0663
    --------------------------------------------
      LOOP:  cpu time   84.1880: real time   84.2921

 eigenvalue-minimisations  :  1392
 total energy-change (2. order) :-0.7801246E-01  (-0.2078393E-01)
 number of electron      64.9999990 magnetization       3.9122824
 augmentation part        6.5516863 magnetization       2.4439633

 Broyden mixing:
  rms(total) = 0.20440E+00    rms(broyden)= 0.20434E+00
  rms(prec ) = 0.22220E+00
  weight for this iteration     100.00

 eigenvalues of (default mixing * dielectric matrix)
  average eigenvalue GAMMA=   0.9348
  3.4804  1.7933  0.9924  0.9924  0.6420  0.6420  0.6208  0.5622  0.5622  0.4061
  0.3509  0.1729

 Free energy of the ion-electron system (eV)
  ---------------------------------------------------
  alpha Z        PSCENC =        28.20599243
  Ewald energy   TEWEN  =      8338.88239735
  -Hartree energ DENC   =    -12009.69019740
  -exchange      EXHF   =         0.00000000
  -V(xc)+E(xc)   XCENC  =       121.47353193
  PAW double counting   =      2370.12468695    -2458.25943249
  entropy T*S    EENTRO =         0.00000000
  eigenvalues    EBANDS =      -539.17954077
  atomic energy  EATOM  =      4113.45303949
  Solvation  Ediel_sol  =         0.00000000
  ---------------------------------------------------
  free energy    TOTEN  =       -34.98952251 eV

  energy without entropy =      -34.98952251  energy(sigma->0) =      -34.98952251


--------------------------------------------------------------------------------------------------------




--------------------------------------- Iteration      1(  18)  ---------------------------------------


    POTLOK:  cpu time   50.7200: real time   50.8644
    SETDIJ:  cpu time    0.0400: real time    0.0417
     EDDAV:  cpu time   28.9880: real time   29.0925
 BZINTS: Fermi energy: -4.476959; 65.000000 electrons
         Band energy:-537.005171;  BLOECHL correction: -0.005590
       DOS:  cpu time    0.0080: real time    0.0071
    CHARGE:  cpu time    2.1240: real time    2.1337
    MIXING:  cpu time    0.0680: real time    0.0695
    --------------------------------------------
      LOOP:  cpu time   81.9480: real time   82.2089

 eigenvalue-minimisations  :  1296
 total energy-change (2. order) : 0.1444361E-01  (-0.7360271E-02)
 number of electron      64.9999990 magnetization       3.5517326
 augmentation part        6.3368619 magnetization       2.1917456

 Broyden mixing:
  rms(total) = 0.60019E-01    rms(broyden)= 0.59937E-01
  rms(prec ) = 0.61545E-01
  weight for this iteration     100.00

 eigenvalues of (default mixing * dielectric matrix)
  average eigenvalue GAMMA=   1.0448
  4.1289  2.4840  1.1454  1.1454  0.6425  0.6425  0.7024  0.7024  0.5343  0.5343
  0.4031  0.3444  0.1729

 Free energy of the ion-electron system (eV)
  ---------------------------------------------------
  alpha Z        PSCENC =        28.20599243
  Ewald energy   TEWEN  =      8338.88239735
  -Hartree energ DENC   =    -12012.16705808
  -exchange      EXHF   =         0.00000000
  -V(xc)+E(xc)   XCENC  =       121.56731135
  PAW double counting   =      2376.98174403    -2464.89333469
  entropy T*S    EENTRO =         0.00000000
  eigenvalues    EBANDS =      -537.00517078
  atomic energy  EATOM  =      4113.45303949
  Solvation  Ediel_sol  =         0.00000000
  ---------------------------------------------------
  free energy    TOTEN  =       -34.97507890 eV

  energy without entropy =      -34.97507890  energy(sigma->0) =      -34.97507890


--------------------------------------------------------------------------------------------------------




--------------------------------------- Iteration      1(  19)  ---------------------------------------


    POTLOK:  cpu time   50.9480: real time   50.9947
    SETDIJ:  cpu time    0.0400: real time    0.0418
     EDDAV:  cpu time   29.0800: real time   29.1364
 BZINTS: Fermi energy: -4.470667; 65.000000 electrons
         Band energy:-536.221529;  BLOECHL correction: -0.003785
       DOS:  cpu time    0.0040: real time    0.0065
    CHARGE:  cpu time    2.1360: real time    2.1397
    MIXING:  cpu time    0.0520: real time    0.0520
    --------------------------------------------
      LOOP:  cpu time   82.2600: real time   82.3711

 eigenvalue-minimisations  :  1296
 total energy-change (2. order) :-0.3357406E-01  (-0.5623707E-02)
 number of electron      64.9999990 magnetization       3.2212950
 augmentation part        6.1636608 magnetization       1.9342822

 Broyden mixing:
  rms(total) = 0.13942E+00    rms(broyden)= 0.13939E+00
  rms(prec ) = 0.14932E+00
  weight for this iteration     100.00

 eigenvalues of (default mixing * dielectric matrix)
  average eigenvalue GAMMA=   1.1874
  5.9249  2.4763  1.3397  1.3397  0.6421  0.6421  0.8006  0.8006  0.5746  0.5746
  0.5722  0.4162  0.3476  0.1729

 Free energy of the ion-electron system (eV)
  ---------------------------------------------------
  alpha Z        PSCENC =        28.20599243
  Ewald energy   TEWEN  =      8338.88239735
  -Hartree energ DENC   =    -12013.03304505
  -exchange      EXHF   =         0.00000000
  -V(xc)+E(xc)   XCENC  =       121.61550668
  PAW double counting   =      2383.78460470    -2471.69561996
  entropy T*S    EENTRO =         0.00000000
  eigenvalues    EBANDS =      -536.22152858
  atomic energy  EATOM  =      4113.45303949
  Solvation  Ediel_sol  =         0.00000000
  ---------------------------------------------------
  free energy    TOTEN  =       -35.00865295 eV

  energy without entropy =      -35.00865295  energy(sigma->0) =      -35.00865295


--------------------------------------------------------------------------------------------------------




--------------------------------------- Iteration      1(  20)  ---------------------------------------


    POTLOK:  cpu time   50.8480: real time   50.8800
    SETDIJ:  cpu time    0.0440: real time    0.0422
     EDDAV:  cpu time   28.5960: real time   28.7779
 BZINTS: Fermi energy: -4.481475; 65.000000 electrons
         Band energy:-537.930651;  BLOECHL correction: -0.005107
       DOS:  cpu time    0.0080: real time    0.0069
    CHARGE:  cpu time    2.1640: real time    2.1645
    MIXING:  cpu time    0.0520: real time    0.0534
    --------------------------------------------
      LOOP:  cpu time   81.7120: real time   81.9250

 eigenvalue-minimisations  :  1280
 total energy-change (2. order) : 0.1934837E-02  (-0.2916633E-02)
 number of electron      64.9999990 magnetization       3.0863639
 augmentation part        6.2932690 magnetization       1.7529829

 Broyden mixing:
  rms(total) = 0.49643E-01    rms(broyden)= 0.49619E-01
  rms(prec ) = 0.52045E-01
  weight for this iteration     100.00

 eigenvalues of (default mixing * dielectric matrix)
  average eigenvalue GAMMA=   1.2702
  7.1348  2.1476  2.1476  1.1146  1.1146  0.6420  0.6420  0.7318  0.7318  0.5778
  0.5778  0.5590  0.4097  0.3497  0.1729

 Free energy of the ion-electron system (eV)
  ---------------------------------------------------
  alpha Z        PSCENC =        28.20599243
  Ewald energy   TEWEN  =      8338.88239735
  -Hartree energ DENC   =    -12011.26189582
  -exchange      EXHF   =         0.00000000
  -V(xc)+E(xc)   XCENC  =       121.56535011
  PAW double counting   =      2383.30499049    -2471.22594111
  entropy T*S    EENTRO =         0.00000000
  eigenvalues    EBANDS =      -537.93065105
  atomic energy  EATOM  =      4113.45303949
  Solvation  Ediel_sol  =         0.00000000
  ---------------------------------------------------
  free energy    TOTEN  =       -35.00671811 eV

  energy without entropy =      -35.00671811  energy(sigma->0) =      -35.00671811


--------------------------------------------------------------------------------------------------------




--------------------------------------- Iteration      1(  21)  ---------------------------------------


    POTLOK:  cpu time   50.4920: real time   50.8426
    SETDIJ:  cpu time    0.0440: real time    0.0419
     EDDAV:  cpu time   27.6760: real time   27.7208
 BZINTS: Fermi energy: -4.472161; 65.000000 electrons
         Band energy:-537.828271;  BLOECHL correction: -0.005299
       DOS:  cpu time    0.0080: real time    0.0066
    CHARGE:  cpu time    2.1600: real time    2.1623
    MIXING:  cpu time    0.0560: real time    0.0554
    --------------------------------------------
      LOOP:  cpu time   80.4360: real time   80.8297

 eigenvalue-minimisations  :  1232
 total energy-change (2. order) : 0.1492534E-03  (-0.1370272E-02)
 number of electron      64.9999990 magnetization       3.0709938
 augmentation part        6.3151376 magnetization       1.7459662

 Broyden mixing:
  rms(total) = 0.30309E-01    rms(broyden)= 0.30306E-01
  rms(prec ) = 0.31237E-01
  weight for this iteration     100.00

 eigenvalues of (default mixing * dielectric matrix)
  average eigenvalue GAMMA=   1.3338
  8.0085  2.5313  1.7193  1.7193  0.6420  0.6420  0.9345  0.9345  0.7246  0.7246
  0.6818  0.5728  0.5728  0.4105  0.3489  0.1729

 Free energy of the ion-electron system (eV)
  ---------------------------------------------------
  alpha Z        PSCENC =        28.20599243
  Ewald energy   TEWEN  =      8338.88239735
  -Hartree energ DENC   =    -12011.50200592
  -exchange      EXHF   =         0.00000000
  -V(xc)+E(xc)   XCENC  =       121.57103022
  PAW double counting   =      2384.05871023    -2471.84746200
  entropy T*S    EENTRO =         0.00000000
  eigenvalues    EBANDS =      -537.82827066
  atomic energy  EATOM  =      4113.45303949
  Solvation  Ediel_sol  =         0.00000000
  ---------------------------------------------------
  free energy    TOTEN  =       -35.00656886 eV

  energy without entropy =      -35.00656886  energy(sigma->0) =      -35.00656886


--------------------------------------------------------------------------------------------------------




--------------------------------------- Iteration      1(  22)  ---------------------------------------


    POTLOK:  cpu time   50.4760: real time   50.8334
    SETDIJ:  cpu time    0.0400: real time    0.0410
     EDDAV:  cpu time   30.4840: real time   30.5616
 BZINTS: Fermi energy: -4.468774; 65.000000 electrons
         Band energy:-537.279405;  BLOECHL correction: -0.005042
       DOS:  cpu time    0.0080: real time    0.0067
    CHARGE:  cpu time    2.1440: real time    2.1596
    MIXING:  cpu time    0.0560: real time    0.0550
    --------------------------------------------
      LOOP:  cpu time   83.2080: real time   83.6574

 eigenvalue-minimisations  :  1360
 total energy-change (2. order) :-0.3575369E-02  (-0.4913892E-03)
 number of electron      64.9999990 magnetization       3.0452286
 augmentation part        6.2686789 magnetization       1.7447867

 Broyden mixing:
  rms(total) = 0.50840E-01    rms(broyden)= 0.50835E-01
  rms(prec ) = 0.54389E-01
  weight for this iteration     100.00

 eigenvalues of (default mixing * dielectric matrix)
  average eigenvalue GAMMA=   1.3661
  8.2670  2.8255  1.8735  1.8735  1.1294  1.1294  0.6420  0.6420  0.7581  0.7581
  0.6262  0.6262  0.5697  0.5697  0.4106  0.3492  0.1729

 Free energy of the ion-electron system (eV)
  ---------------------------------------------------
  alpha Z        PSCENC =        28.20599243
  Ewald energy   TEWEN  =      8338.88239735
  -Hartree energ DENC   =    -12012.03413847
  -exchange      EXHF   =         0.00000000
  -V(xc)+E(xc)   XCENC  =       121.58624649
  PAW double counting   =      2384.93626590    -2472.76054221
  entropy T*S    EENTRO =         0.00000000
  eigenvalues    EBANDS =      -537.27940522
  atomic energy  EATOM  =      4113.45303949
  Solvation  Ediel_sol  =         0.00000000
[...]
     34      -2.4327      0.00000
     35      -2.1710      0.00000
     36      -0.9302      0.00000
     37      -0.4070      0.00000
     38       0.7584      0.00000
     39       0.8901      0.00000
     40       1.0387      0.00000
     41       1.6064      0.00000
     42       1.8767      0.00000
     43       2.1131      0.00000
     44       2.3562      0.00000
     45       2.5745      0.00000
     46       2.9874      0.00000
     47       3.2756      0.00000
     48       3.4855      0.00000

 k-point     5 :      -0.4000    0.2000    0.0000
  band No.  band energies     occupation 
      1     -18.2136      1.00000
      2     -16.6155      1.00000
      3     -16.3662      1.00000
      4     -16.2015      1.00000
      5     -15.9315      1.00000
      6     -15.7052      1.00000
      7     -12.1506      1.00000
      8     -10.7733      1.00000
      9      -8.9162      1.00000
     10      -8.4904      1.00000
     11      -8.2101      1.00000
     12      -7.7177      1.00000
     13      -7.5362      1.00000
     14      -7.0108      1.00000
     15      -6.8035      1.00000
     16      -6.5581      1.00000
     17      -6.4262      1.00000
     18      -6.3669      1.00000
     19      -6.1094      1.00000
     20      -5.9446      1.00000
     21      -5.7981      1.00000
     22      -5.1957      1.00000
     23      -5.0744      1.00000
     24      -4.9514      1.00000
     25      -4.7604      1.00000
     26      -4.5839      1.00000
     27      -4.4877      1.00000
     28      -4.3782      1.00000
     29      -4.1538      1.00000
     30      -4.1191      1.00000
     31      -4.0196      1.00000
     32      -3.1007      1.00000
     33      -2.9329      0.99869
     34      -2.3903      0.00000
     35      -2.1423      0.00000
     36      -1.3345      0.00000
     37      -0.5552      0.00000
     38       0.3595      0.00000
     39       0.6945      0.00000
     40       1.0408      0.00000
     41       1.3113      0.00000
     42       1.4241      0.00000
     43       2.6350      0.00000
     44       2.7412      0.00000
     45       2.8417      0.00000
     46       3.0894      0.00000
     47       3.1039      0.00000
     48       3.6088      0.00000


--------------------------------------------------------------------------------------------------------


 soft charge-density along one line, spin component           1
         0         1         2         3         4         5         6         7         8         9
 total charge-density along one line

 soft charge-density along one line, spin component           2
         0         1         2         3         4         5         6         7         8         9
 total charge-density along one line

 pseudopotential strength for first ion, spin component:           1
-10.474   0.053  -0.000  -0.006  -0.000   1.345  -0.019   0.000
  0.053 -10.440   0.000  -0.000  -0.006  -0.019   1.333  -0.000
 -0.000   0.000 -10.528   0.000   0.000   0.000  -0.000   1.365
 -0.006  -0.000   0.000 -10.440  -0.053   0.002   0.000  -0.000
 -0.000  -0.006   0.000  -0.053 -10.474   0.000   0.002  -0.000
  1.345  -0.019   0.000   0.002   0.000   0.759   0.006  -0.000
 -0.019   1.333  -0.000   0.000   0.002   0.006   0.763   0.000
  0.000  -0.000   1.365  -0.000  -0.000  -0.000   0.000   0.753
  0.002   0.000  -0.000   1.333   0.019  -0.001  -0.000   0.000
  0.000   0.002  -0.000   0.019   1.345  -0.000  -0.001   0.000
  0.000  -0.000   0.001  -0.000   0.000   0.000  -0.000  -0.000
 -0.000   0.000  -0.000   0.000  -0.000   0.000  -0.000   0.000
  0.000   0.001   0.000  -0.000   0.000  -0.000  -0.001  -0.000
 -0.000  -0.000   0.001  -0.000  -0.000  -0.000   0.000  -0.001
  0.000  -0.000   0.000   0.001  -0.000   0.000  -0.000  -0.000
  0.000  -0.001  -0.000   0.000  -0.001  -0.000   0.001   0.000
  0.000   0.000  -0.002   0.000   0.000  -0.000  -0.000   0.001
 -0.001   0.000  -0.000  -0.001  -0.000   0.000  -0.000   0.000
 pseudopotential strength for first ion, spin component:           2
-11.022  -0.162  -0.000   0.026  -0.000   1.580   0.067   0.000
 -0.162 -11.203   0.000  -0.000   0.026   0.067   1.655  -0.000
 -0.000   0.000 -10.928   0.000   0.000   0.000  -0.000   1.540
  0.026  -0.000   0.000 -11.203   0.162  -0.011   0.000  -0.000
 -0.000   0.026   0.000   0.162 -11.022   0.000  -0.011  -0.000
  1.580   0.067   0.000  -0.011   0.000   0.658  -0.028  -0.000
  0.067   1.655  -0.000   0.000  -0.011  -0.028   0.627   0.000
  0.000  -0.000   1.540  -0.000  -0.000  -0.000   0.000   0.675
 -0.011   0.000  -0.000   1.655  -0.067   0.005  -0.000   0.000
  0.000  -0.011  -0.000  -0.067   1.580  -0.000   0.005   0.000
  0.000  -0.000   0.007  -0.000   0.000   0.000  -0.000  -0.002
 -0.000   0.000  -0.000   0.000  -0.000   0.000  -0.000   0.000
 -0.001  -0.002   0.000  -0.000   0.001   0.001   0.000  -0.000
 -0.000  -0.000   0.000  -0.000   0.000  -0.000   0.000  -0.001
  0.001  -0.000   0.000  -0.002   0.001   0.000  -0.000  -0.000
  0.000  -0.001  -0.000   0.000  -0.001  -0.000   0.000   0.000
  0.000   0.000  -0.002   0.000  -0.000  -0.000  -0.000   0.001
 -0.001   0.000  -0.000  -0.001  -0.000   0.000  -0.000   0.000
 total augmentation occupancy for first ion, spin component:           1
  1.801  -0.187   0.000   0.032  -0.000   0.004   0.088  -0.000  -0.018  -0.000  -0.000  -0.000  -0.012  -0.000   0.007   0.001
 -0.187   1.624  -0.000  -0.000   0.032   0.087   0.093   0.000  -0.000  -0.018   0.000   0.000  -0.022   0.000   0.003   0.004
  0.000  -0.000   1.943  -0.000  -0.000  -0.000   0.000  -0.074   0.000   0.000  -0.014  -0.009  -0.000  -0.000  -0.000   0.000
  0.032  -0.000  -0.000   1.624   0.187  -0.018   0.000   0.000   0.093  -0.087  -0.000  -0.000  -0.003  -0.000  -0.022   0.000
 -0.000   0.032  -0.000   0.187   1.801   0.000  -0.018   0.000  -0.088   0.004   0.000   0.000   0.007   0.000   0.012  -0.001
  0.004   0.087  -0.000  -0.018   0.000   0.098   0.075   0.000  -0.014  -0.000   0.000  -0.000  -0.005  -0.000   0.010   0.000
  0.088   0.093   0.000   0.000  -0.018   0.075   0.180   0.000  -0.000  -0.014  -0.000   0.000  -0.021   0.000  -0.002   0.002
 -0.000   0.000  -0.074   0.000   0.000   0.000   0.000   0.073   0.000  -0.000   0.030  -0.015  -0.000  -0.011   0.000   0.000
 -0.018  -0.000   0.000   0.093  -0.088  -0.014  -0.000   0.000   0.180  -0.075   0.000  -0.000   0.002  -0.000  -0.021  -0.000
 -0.000  -0.018   0.000  -0.087   0.004  -0.000  -0.014  -0.000  -0.075   0.098  -0.000   0.000   0.010   0.000   0.005  -0.002
 -0.000   0.000  -0.014  -0.000   0.000   0.000  -0.000   0.030   0.000  -0.000   0.983  -0.303   0.000  -0.040  -0.000  -0.000
 -0.000   0.000  -0.009  -0.000   0.000  -0.000   0.000  -0.015  -0.000   0.000  -0.303   0.160  -0.000   0.015   0.000   0.000
 -0.012  -0.022  -0.000  -0.003   0.007  -0.005  -0.021  -0.000   0.002   0.010   0.000  -0.000   0.188  -0.000  -0.000  -0.015
 -0.000  -0.000  -0.000  -0.000   0.000  -0.000   0.000  -0.011  -0.000   0.000  -0.040   0.015  -0.000   0.199   0.000   0.000
  0.007   0.003  -0.000  -0.022   0.012   0.010  -0.002   0.000  -0.021   0.005  -0.000   0.000  -0.000   0.000   0.188   0.000
  0.001   0.004   0.000   0.000  -0.001   0.000   0.002   0.000  -0.000  -0.002  -0.000   0.000  -0.015   0.000   0.000   0.002
  0.000  -0.000   0.002   0.000  -0.000   0.000  -0.000   0.001   0.000  -0.000   0.005  -0.003   0.000  -0.018  -0.000  -0.000
 -0.001  -0.000  -0.000   0.004  -0.001  -0.002   0.000  -0.000   0.002  -0.000   0.000  -0.000  -0.000  -0.000  -0.015  -0.000
 total augmentation occupancy for first ion, spin component:           2
 -0.072  -0.121  -0.000   0.018   0.000   0.068   0.060   0.000  -0.009  -0.000   0.000  -0.000  -0.007   0.000   0.002  -0.000
 -0.121  -0.193  -0.000   0.000   0.018   0.059   0.130   0.000  -0.000  -0.009  -0.000   0.000  -0.011   0.000   0.002  -0.000
 -0.000  -0.000   0.010  -0.000   0.000   0.000   0.000   0.027   0.000  -0.000   0.001  -0.001  -0.000   0.000  -0.000  -0.000
  0.018   0.000  -0.000  -0.193   0.121  -0.009   0.000   0.000   0.130  -0.059   0.000   0.000  -0.002   0.000  -0.011   0.000
  0.000   0.018   0.000   0.121  -0.072   0.000  -0.009  -0.000  -0.060   0.068  -0.000   0.000   0.002  -0.000   0.007  -0.000
  0.068   0.059   0.000  -0.009   0.000  -0.018  -0.025  -0.000   0.003   0.000  -0.000  -0.000   0.003  -0.000  -0.000   0.000
  0.060   0.130   0.000   0.000  -0.009  -0.025  -0.044  -0.000   0.000   0.003  -0.000   0.000   0.004   0.000  -0.000   0.000
  0.000   0.000   0.027   0.000  -0.000  -0.000  -0.000  -0.003  -0.000   0.000  -0.002  -0.001   0.000  -0.000   0.000   0.000
 -0.009  -0.000   0.000   0.130  -0.060   0.003   0.000  -0.000  -0.044   0.025   0.000   0.000   0.000  -0.000   0.004  -0.000
 -0.000  -0.009  -0.000  -0.059   0.068   0.000   0.003   0.000   0.025  -0.018   0.000   0.000  -0.000   0.000  -0.003  -0.000
  0.000   0.000   0.001   0.000  -0.000  -0.000   0.000  -0.002   0.000   0.000  -0.010  -0.024   0.000   0.000   0.000   0.000
 -0.000   0.000  -0.001  -0.000   0.000  -0.000   0.000  -0.001   0.000   0.000  -0.024   0.014   0.000   0.001  -0.000   0.000
 -0.007  -0.011  -0.000  -0.002   0.002   0.003   0.004   0.000   0.000  -0.000   0.000  -0.000  -0.001  -0.000   0.000  -0.001
  0.000   0.000   0.000   0.000  -0.000  -0.000   0.000  -0.000  -0.000   0.000   0.000   0.001  -0.000  -0.000   0.000   0.000
  0.002   0.002  -0.000  -0.011   0.007  -0.000  -0.000   0.000   0.004  -0.003  -0.000   0.000   0.000   0.000  -0.001   0.000
 -0.000  -0.000  -0.000   0.000  -0.000   0.000   0.000   0.000  -0.000  -0.000   0.000   0.000  -0.001   0.000   0.000   0.000
 -0.000   0.000  -0.000  -0.000   0.000   0.000  -0.000   0.000   0.000  -0.000   0.000  -0.000   0.000  -0.001  -0.000  -0.000
 -0.000  -0.000  -0.000  -0.000   0.000  -0.000   0.000   0.000   0.000  -0.000   0.000   0.000  -0.000  -0.000  -0.001  -0.000


------------------------ aborting loop because EDIFF is reached ----------------------------------------





 total charge     

# of ion       s       p       d       tot
------------------------------------------
    1        0.385   0.443   8.324   9.152
    2        0.385   0.445   8.320   9.150
    3        1.122   1.179   0.139   2.440
    4        1.008   1.424   0.000   2.433
    5        1.380   2.298   0.000   3.677
    6        1.366   2.316   0.000   3.682
    7        1.375   2.311   0.000   3.686
    8        1.384   2.263   0.000   3.647
    9        1.378   2.309   0.000   3.688
   10        1.381   2.277   0.000   3.658
--------------------------------------------------
tot         11.165  17.265  16.783  45.212



 magnetization (x)

# of ion       s       p       d       tot
------------------------------------------
    1       -0.000   0.001  -0.708  -0.707
    2        0.000  -0.001   0.693   0.692
    3        0.000  -0.000  -0.000  -0.000
    4       -0.000  -0.000   0.000  -0.000
    5        0.000  -0.009   0.000  -0.009
    6       -0.000  -0.007   0.000  -0.007
    7       -0.000   0.013   0.000   0.013
    8       -0.001   0.007   0.000   0.006
    9        0.000   0.007   0.000   0.007
   10        0.001  -0.019   0.000  -0.018
--------------------------------------------------
tot         -0.000  -0.008  -0.015  -0.023

    CHARGE:  cpu time    2.2880: real time    2.2912
    FORLOC:  cpu time    0.0640: real time    0.0632
    FORNL :  cpu time    6.6800: real time    6.7039
    STRESS:  cpu time   20.1600: real time   20.2117
    FORCOR:  cpu time   51.6320: real time   51.6969
    FORHAR:  cpu time    0.3440: real time    0.3522
    MIXING:  cpu time    0.0440: real time    0.0414
    OFIELD:  cpu time    0.0000: real time    0.0000

  FORCE on cell =-STRESS in cart. coord.  units (eV):
  Direction    XX          YY          ZZ          XY          YZ          ZX
  --------------------------------------------------------------------------------------
  Alpha Z    40.20990    40.20990    40.20990
  Ewald   14779.50028 14779.49734-17133.09594    -0.00228    -0.00064    -0.00115
  Hartree 15526.71441 15526.71541-14918.43898    -0.00048     0.00006     0.00010
  E(xc)    -272.35236  -272.35249  -272.05813     0.00013     0.00000     0.00001
  Local  -31217.93225-31217.93181 31096.45466     0.00232     0.00038     0.00070
  n-local   444.41994   445.74506   448.44171     0.58806     0.34585     0.27345
  augment    -7.75590    -7.75572   -12.50511     0.00000    -0.00025     0.00020
  Kinetic   711.04020   701.32176   750.70169    -4.99726    -1.38531    -1.71746
  Fock        0.00000     0.00000     0.00000     0.00000     0.00000     0.00000
  -------------------------------------------------------------------------------------
  Total      -0.35316    -0.35316    -0.29020    -0.00000     0.00000    -0.00000
  in kB      -0.83258    -0.83258    -0.68415    -0.00000     0.00000    -0.00000
  external pressure =       -0.78 kB  Pullay stress =        0.00 kB


 VOLUME and BASIS-vectors are now :
 -----------------------------------------------------------------------------
  energy-cutoff  :      520.00
  volume of cell :      679.61
      direct lattice vectors                 reciprocal lattice vectors
     5.881119428  0.000000501  0.000000000     0.170035664 -0.098170112 -0.000000000
     2.940559008  5.093198878  0.000000000    -0.000000017  0.196340271  0.000000000
     0.000000000 -0.000000000 22.688593569    -0.000000000  0.000000000  0.044075011

  length of vectors
     5.881119428  5.881119119 22.688593569     0.196340261  0.196340271  0.044075011


 FORCES acting on ions
    electron-ion (+dipol)            ewald-force                    non-local-force                 convergence-correction
 -----------------------------------------------------------------------------------------------
   -.917E-04 -.115E-03 -.212E+02   0.927E-03 0.548E-03 0.206E+02   0.144E-16 0.120E-16 0.530E+00   -.304E-07 -.276E-06 0.204E-02
   0.133E-03 0.597E-04 -.192E+02   -.885E-03 -.524E-03 0.186E+02   -.134E-16 -.189E-17 0.547E+00   -.132E-06 -.335E-06 0.373E-02
   -.573E-05 -.851E-04 0.329E+03   -.221E-03 -.124E-03 -.327E+03   0.525E-17 0.270E-16 -.179E+01   -.227E-07 -.127E-07 -.167E-01
   0.599E-04 -.208E-04 -.307E+03   0.266E-03 0.149E-03 0.301E+03   0.128E-16 -.770E-16 0.621E+01   -.404E-07 -.195E-07 0.156E-01
   -.481E+01 -.115E-01 -.602E+03   0.159E+01 0.381E-01 0.606E+03   0.322E+01 0.585E-03 -.395E+01   -.959E-02 -.290E-01 0.236E-01
   0.239E+01 0.417E+01 -.602E+03   -.765E+00 -.140E+01 0.606E+03   -.161E+01 -.279E+01 -.395E+01   -.203E-01 0.228E-01 0.236E-01
   0.241E+01 -.416E+01 -.602E+03   -.830E+00 0.136E+01 0.606E+03   -.161E+01 0.279E+01 -.395E+01   0.299E-01 0.620E-02 0.236E-01
   0.326E+02 -.186E+00 0.607E+03   -.289E+02 0.243E+00 -.611E+03   -.367E+01 -.255E-01 0.358E+01   0.455E-02 -.342E-01 -.166E-01
   -.164E+02 -.281E+02 0.607E+03   0.147E+02 0.249E+02 -.611E+03   0.181E+01 0.319E+01 0.358E+01   -.319E-01 0.132E-01 -.166E-01
   -.161E+02 0.283E+02 0.607E+03   0.143E+02 -.252E+02 -.611E+03   0.186E+01 -.316E+01 0.358E+01   0.273E-01 0.210E-01 -.166E-01
 -----------------------------------------------------------------------------------------------
   0.189E-03 -.122E-03 -.442E+01   0.178E-14 0.107E-13 0.000E+00   -.444E-15 0.000E+00 0.440E+01   -.334E-06 -.718E-06 0.255E-01


 POSITION                                       TOTAL-FORCE (eV/Angst)
 -----------------------------------------------------------------------------------
      2.94056      1.69773     11.47002         0.000000      0.000000     -0.026413
      5.88112      3.39547     11.46697         0.000000      0.000000     -0.015356
      0.00000     -0.00000     10.16939         0.000000      0.000000     -0.067475
      0.00000     -0.00000     12.50332         0.000000      0.000000     -0.104903
      3.85601     -0.00148     12.97436        -0.006889     -0.000956      0.019101
      1.01127      1.75454     12.97436         0.002616      0.006444      0.019101
      3.95440      3.34014     12.97436         0.004273     -0.005488      0.019101
      2.26161      0.00012      9.98399        -0.025185     -0.002830      0.052282
      1.80985      3.13452      9.98399         0.010142      0.023225      0.052282
      4.75020      1.95856      9.98399         0.015043     -0.020396      0.052282
 -----------------------------------------------------------------------------------
    total drift:                                0.000189     -0.000123      0.001275


--------------------------------------------------------------------------------------------------------



  FREE ENERGIE OF THE ION-ELECTRON SYSTEM (eV)
  ---------------------------------------------------
  free  energy   TOTEN  =       -42.76308775 eV

  energy  without entropy=      -42.76308775  energy(sigma->0) =      -42.76308775

 d Force =-0.7619939E-04[-0.735E-04,-0.789E-04]  d Energy = 0.1039752E-03-0.180E-03
 d Force = 0.7830802E+00[ 0.783E+00, 0.783E+00]  d Ewald  = 0.6263979E+01-0.548E+01


--------------------------------------------------------------------------------------------------------


    POTLOK:  cpu time   51.4920: real time   51.8151


--------------------------------------------------------------------------------------------------------




--------------------------------------------------------------------------------------------------------


  
 reached required accuracy - stopping structural energy minimisation
     LOOP+:  cpu time  516.9480: real time  519.3744
    4ORBIT:  cpu time    0.0000: real time    0.0000



 total charge     

# of ion       s       p       d       tot
------------------------------------------
    1        0.385   0.443   8.324   9.152
    2        0.385   0.445   8.320   9.150
    3        1.122   1.179   0.139   2.440
    4        1.008   1.424   0.000   2.433
    5        1.380   2.298   0.000   3.677
    6        1.366   2.316   0.000   3.682
    7        1.375   2.311   0.000   3.686
    8        1.384   2.263   0.000   3.647
    9        1.378   2.309   0.000   3.688
   10        1.381   2.277   0.000   3.658
--------------------------------------------------
tot         11.165  17.265  16.783  45.212



 magnetization (x)

# of ion       s       p       d       tot
------------------------------------------
    1       -0.000   0.001  -0.708  -0.707
    2        0.000  -0.001   0.693   0.692
    3        0.000  -0.000  -0.000  -0.000
    4       -0.000  -0.000   0.000  -0.000
    5        0.000  -0.009   0.000  -0.009
    6       -0.000  -0.007   0.000  -0.007
    7       -0.000   0.013   0.000   0.013
    8       -0.001   0.007   0.000   0.006
    9        0.000   0.007   0.000   0.007
   10        0.001  -0.019   0.000  -0.018
--------------------------------------------------
tot         -0.000  -0.008  -0.015  -0.023

 BZINTS: Fermi energy: -2.832658; 65.000000 electrons
         Band energy:-528.824304;  BLOECHL correction: -0.023730

 total amount of memory used by VASP MPI-rank0   131320. kBytes
=======================================================================

   base      :      30000. kBytes
   nonlr-proj:       8835. kBytes
   fftplans  :      11247. kBytes
   grid      :      68332. kBytes
   one-center:        311. kBytes
   wavefun   :      12595. kBytes

  
  
 General timing and accounting informations for this job:
 ========================================================
  
                  Total CPU time used (sec):    23958.225
                            User time (sec):    23415.092
                          System time (sec):      543.132
                         Elapsed time (sec):    24100.659
  
                   Maximum memory used (kb):      389984.
                   Average memory used (kb):           0.
  
                          Minor page faults:     21495779
                          Major page faults:            6
                 Voluntary context switches:         1066
