 vasp.5.4.4.18Apr17-6-g9f103f2a35 (build May  1 2020 15:48:39) complex           
 executed on             LinuxGNU date 2020.07.01  13:47:52
 running on    8 total cores
 distrk:  each k-point on    8 cores,    1 groups
 distr:  one band on NCORES_PER_BAND=   1 cores,    8 groups


--------------------------------------------------------------------------------------------------------


 INCAR:
 POTCAR:   PAW_PBE Cr 06Sep2000                   
 POTCAR:   PAW_PBE Si 05Jan2001                   
 POTCAR:   PAW_PBE Se 06Sep2000                   

 ----------------------------------------------------------------------------- 
|                                                                             |
|           W    W    AA    RRRRR   N    N  II  N    N   GGGG   !!!           |
|           W    W   A  A   R    R  NN   N  II  NN   N  G    G  !!!           |
|           W    W  A    A  R    R  N N  N  II  N N  N  G       !!!           |
|           W WW W  AAAAAA  RRRRR   N  N N  II  N  N N  G  GGG   !            |
|           WW  WW  A    A  R   R   N   NN  II  N   NN  G    G                |
|           W    W  A    A  R    R  N    N  II  N    N   GGGG   !!!           |
|                                                                             |
|      For optimal performance we recommend to set                            |
|        NCORE= 4 - approx SQRT( number of cores)                             |
|      NCORE specifies how many cores store one orbital (NPAR=cpu/NCORE).     |
|      This setting can  greatly improve the performance of VASP for DFT.     |
|      The default,   NCORE=1            might be grossly inefficient         |
|      on modern multi-core architectures or massively parallel machines.     |
|      Do your own testing !!!!                                               |
|      Unfortunately you need to use the default for GW and RPA calculations. |
|      (for HF NCORE is supported but not extensively tested yet)             |
|                                                                             |
 ----------------------------------------------------------------------------- 


 ----------------------------------------------------------------------------- 
|                                                                             |
|  ADVICE TO THIS USER RUNNING 'VASP/VAMP'   (HEAR YOUR MASTER'S VOICE ...):  |
|                                                                             |
|      You have switched on vdW-DFT.                                          |
|      This routine was written and supplied by Jiri Klimes.                  |
|      We recommed that you carefully read and cite the following             |
|      publication                                                            |
|      J. Klimes, D.R. Bowler, A. Michelides                                  |
|        J. Phys.: Cond Matt. 22 022201 (2010)                                |
|      J. Klimes, D.R. Bowler, A. Michelides                                  |
|        Phys. Rev. B. 83, 195131 (2011)                                      |
|      and references therein.                                                |
|                                                                             |
 ----------------------------------------------------------------------------- 

 POTCAR:   PAW_PBE Cr 06Sep2000                   
   VRHFIN =Cr : d5 s1                                                           
   LEXCH  = PE                                                                  
   EATOM  =   276.9744 eV,   20.3570 Ry                                         
                                                                                
   TITEL  = PAW_PBE Cr 06Sep2000                                                
   LULTRA =        F    use ultrasoft PP ?                                      
   IUNSCR =        1    unscreen: 0-lin 1-nonlin 2-no                           
   RPACOR =    2.080    partial core radius                                     
   POMASS =   51.996; ZVAL   =    6.000    mass and valenz                      
   RCORE  =    2.500    outmost cutoff radius                                   
   RWIGS  =    2.500; RWIGS  =    1.323    wigner-seitz radius (au A)           
   ENMAX  =  227.082; ENMIN  =  170.311 eV                                      
   RCLOC  =    1.721    cutoff for local pot                                    
   LCOR   =        T    correct aug charges                                     
   LPAW   =        T    paw PP                                                  
   EAUG   =  402.108                                                            
   DEXC   =    -.035                                                            
   RMAX   =    3.060    core radius for proj-oper                               
   RAUG   =    1.300    factor for augmentation sphere                          
   RDEP   =    2.609    radius for radial grids                                 
   QCUT   =   -4.085; QGAM   =    8.171    optimization parameters              
                                                                                
   Description                                                                  
     l     E      TYP  RCUT    TYP  RCUT                                        
     2   .000     23  2.500                                                     
     2   .000     23  2.500                                                     
     0   .000     23  2.500                                                     
     0   .000     23  2.500                                                     
     1  -.400     23  2.500                                                     
     1  2.000     23  2.500                                                     
     3   .000      7   .000                                                     
  local pseudopotential read in
  partial core-charges read in
  atomic valenz-charges read in
  non local Contribution for L=           2  read in
    real space projection operators read in
  non local Contribution for L=           2  read in
    real space projection operators read in
  non local Contribution for L=           0  read in
    real space projection operators read in
  non local Contribution for L=           0  read in
    real space projection operators read in
  non local Contribution for L=           1  read in
    real space projection operators read in
  non local Contribution for L=           1  read in
    real space projection operators read in
    PAW grid and wavefunctions read in

   number of l-projection  operators is LMAX  =           6
   number of lm-projection operators is LMMAX =          18

 POTCAR:   PAW_PBE Si 05Jan2001                   
   VRHFIN =Si: s2p2                                                             
   LEXCH  = PE                                                                  
   EATOM  =   103.0669 eV,    7.5752 Ry                                         
                                                                                
   TITEL  = PAW_PBE Si 05Jan2001                                                
   LULTRA =        F    use ultrasoft PP ?                                      
   IUNSCR =        1    unscreen: 0-lin 1-nonlin 2-no                           
   RPACOR =    1.500    partial core radius                                     
   POMASS =   28.085; ZVAL   =    4.000    mass and valenz                      
   RCORE  =    1.900    outmost cutoff radius                                   
   RWIGS  =    2.480; RWIGS  =    1.312    wigner-seitz radius (au A)           
   ENMAX  =  245.345; ENMIN  =  184.009 eV                                      
   ICORE  =        2    local potential                                         
   LCOR   =        T    correct aug charges                                     
   LPAW   =        T    paw PP                                                  
   EAUG   =  322.069                                                            
   DEXC   =    -.007                                                            
   RMAX   =    2.944    core radius for proj-oper                               
   RAUG   =    1.300    factor for augmentation sphere                          
   RDEP   =    1.993    radius for radial grids                                 
   QCUT   =   -4.246; QGAM   =    8.493    optimization parameters              
                                                                                
   Description                                                                  
     l     E      TYP  RCUT    TYP  RCUT                                        
     0   .000     23  1.900                                                     
     0   .000     23  1.900                                                     
     1   .000     23  1.900                                                     
     1   .000     23  1.900                                                     
     2   .000      7  1.900                                                     
  local pseudopotential read in
  partial core-charges read in
  atomic valenz-charges read in
  non local Contribution for L=           0  read in
    real space projection operators read in
  non local Contribution for L=           0  read in
    real space projection operators read in
  non local Contribution for L=           1  read in
    real space projection operators read in
  non local Contribution for L=           1  read in
    real space projection operators read in
    PAW grid and wavefunctions read in

   number of l-projection  operators is LMAX  =           4
   number of lm-projection operators is LMMAX =           8

 POTCAR:   PAW_PBE Se 06Sep2000                   
   VRHFIN =Se: s2p4                                                             
   LEXCH  = PE                                                                  
   EATOM  =   256.9644 eV,   18.8864 Ry                                         
                                                                                
   TITEL  = PAW_PBE Se 06Sep2000                                                
   LULTRA =        F    use ultrasoft PP ?                                      
   IUNSCR =        1    unscreen: 0-lin 1-nonlin 2-no                           
   RPACOR =    1.900    partial core radius                                     
   POMASS =   78.960; ZVAL   =    6.000    mass and valenz                      
   RCORE  =    2.100    outmost cutoff radius                                   
   RWIGS  =    2.200; RWIGS  =    1.164    wigner-seitz radius (au A)           
   ENMAX  =  211.534; ENMIN  =  158.651 eV                                      
   ICORE  =        3    local potential                                         
   LCOR   =        T    correct aug charges                                     
   LPAW   =        T    paw PP                                                  
   EAUG   =  446.842                                                            
   DEXC   =    -.031                                                            
   RMAX   =    3.170    core radius for proj-oper                               
   RAUG   =    1.300    factor for augmentation sphere                          
   RDEP   =    2.177    radius for radial grids                                 
   QCUT   =   -3.943; QGAM   =    7.886    optimization parameters              
                                                                                
   Description                                                                  
     l     E      TYP  RCUT    TYP  RCUT                                        
     0   .000     23  2.100                                                     
     0   .000     23  2.100                                                     
     1   .000     23  2.100                                                     
     1   .000     23  2.100                                                     
     2   .000     23  2.100                                                     
     3  -.100      7  2.100                                                     
  local pseudopotential read in
  partial core-charges read in
  atomic valenz-charges read in
  non local Contribution for L=           0  read in
    real space projection operators read in
  non local Contribution for L=           0  read in
    real space projection operators read in
  non local Contribution for L=           1  read in
    real space projection operators read in
  non local Contribution for L=           1  read in
    real space projection operators read in
  non local Contribution for L=           2  read in
    real space projection operators read in
    PAW grid and wavefunctions read in

   number of l-projection  operators is LMAX  =           5
   number of lm-projection operators is LMMAX =          13

 Optimization of the real space projectors (new method)

 maximal supplied QI-value         = 15.12
 optimisation between [QCUT,QGAM] = [ 11.64, 23.28] = [ 37.95,151.78] Ry 
 Optimized for a Real-space Cutoff    1.49 Angstroem

   l    n(q)    QCUT    max X(q) W(low)/X(q) W(high)/X(q)  e(spline) 
   2      9    11.641     4.777    0.25E-04    0.21E-05    0.63E-07
   2      9    11.641    31.132    0.13E-03    0.22E-03    0.64E-06
   0     10    11.641    20.416    0.11E-04    0.74E-05    0.19E-07
   0     10    11.641    45.408    0.10E-03    0.85E-04    0.30E-06
   1     10    11.641     7.848    0.22E-04    0.23E-04    0.56E-07
   1     10    11.641     9.895    0.85E-04    0.54E-04    0.16E-06
 Optimization of the real space projectors (new method)

 maximal supplied QI-value         = 19.84
 optimisation between [QCUT,QGAM] = [ 11.51, 23.22] = [ 37.09,150.92] Ry 
 Optimized for a Real-space Cutoff    1.21 Angstroem

   l    n(q)    QCUT    max X(q) W(low)/X(q) W(high)/X(q)  e(spline) 
   0      8    11.508     8.708    0.18E-04    0.44E-05    0.47E-08
   0      8    11.508   106.241    0.70E-04    0.15E-03    0.51E-07
   1      8    11.508     5.901    0.63E-05    0.23E-04    0.21E-07
   1      8    11.508    73.241    0.15E-03    0.36E-04    0.79E-07
 Optimization of the real space projectors (new method)

 maximal supplied QI-value         = 17.95
 optimisation between [QCUT,QGAM] = [ 11.67, 23.34] = [ 38.13,152.52] Ry 
 Optimized for a Real-space Cutoff    1.25 Angstroem

   l    n(q)    QCUT    max X(q) W(low)/X(q) W(high)/X(q)  e(spline) 
   0      9    11.669     6.499    0.13E-04    0.81E-05    0.11E-07
   0      9    11.669    52.623    0.18E-03    0.46E-04    0.72E-07
   1      8    11.669     4.229    0.40E-04    0.45E-04    0.31E-07
   1      8    11.669    29.991    0.22E-03    0.36E-03    0.10E-06
   2      8    11.669     3.719    0.19E-03    0.46E-04    0.50E-07

 ----------------------------------------------------------------------------- 
|                                                                             |
|  ADVICE TO THIS USER RUNNING 'VASP/VAMP'   (HEAR YOUR MASTER'S VOICE ...):  |
|                                                                             |
|      You enforced a specific xc-type in the INCAR file,                     |
|      a different type was found on the POTCAR file                          |
|          I HOPE YOU KNOW, WHAT YOU ARE  DOING                               |
|                                                                             |
 ----------------------------------------------------------------------------- 

 PAW_PBE Cr 06Sep2000                   :
 energy of atom  1       EATOM= -276.9744
 kinetic energy error for atom=    0.0010 (will be added to EATOM!!)
 PAW_PBE Si 05Jan2001                   :
 energy of atom  2       EATOM= -103.0669
 kinetic energy error for atom=    0.0005 (will be added to EATOM!!)
 PAW_PBE Se 06Sep2000                   :
 energy of atom  3       EATOM= -256.9644
 kinetic energy error for atom=    0.0007 (will be added to EATOM!!)


 POSCAR: Cr2 Si2 Se6                             
  positions in direct lattice
  velocities in cartesian coordinates
  No initial velocities read in
 exchange correlation table for  LEXCH =       42
   RHO(1)=    0.500       N(1)  =     2000
   RHO(2)=  100.500       N(2)  =     4000



--------------------------------------------------------------------------------------------------------


 ion  position               nearest neighbor table
   1  0.333  0.333  0.500-   6 2.78   5 2.78   7 2.78   8 2.78  10 2.78   9 2.78
   2  0.667  0.667  0.500-   9 2.78   8 2.78  10 2.78   5 2.78   7 2.78   6 2.78
   3  0.000  0.000  0.448-   4 2.43   8 2.63  10 2.63   9 2.63
   4  0.000  0.000  0.552-   3 2.43   5 2.63   7 2.63   6 2.63
   5  0.626  0.000  0.574-   4 2.63   1 2.78   2 2.78
   6  0.000  0.373  0.574-   4 2.63   1 2.78   2 2.78
   7  0.373  0.626  0.574-   4 2.63   1 2.78   2 2.78
   8  0.374  1.000  0.426-   3 2.63   2 2.78   1 2.78
   9  1.000  0.627  0.426-   3 2.63   2 2.78   1 2.78
  10  0.627  0.374  0.426-   3 2.63   2 2.78   1 2.78

  LATTYP: Found a hexagonal cell.
 ALAT       =     6.9077769333
 C/A-ratio  =     3.3939410937
  
  Lattice vectors:
  
 A1 = (   3.4538890000,  -5.9823100000,   0.0000000000)
 A2 = (  -6.9077770000,   0.0000000000,   0.0000000000)
 A3 = (   0.0000000000,   0.0000000000, -23.4445880000)


Analysis of symmetry for initial positions (statically):
=====================================================================
 Subroutine PRICEL returns:
 Original cell was already a primitive cell.
 

 Routine SETGRP: Setting up the symmetry group for a 
 hexagonal supercell.


 Subroutine GETGRP returns: Found  6 space group operations
 (whereof  6 operations were pure point group operations)
 out of a pool of 24 trial point group operations.


The static configuration has the point symmetry S_6 .


Analysis of symmetry for dynamics (positions and initial velocities):
=====================================================================
 Subroutine PRICEL returns:
 Original cell was already a primitive cell.
 

 Routine SETGRP: Setting up the symmetry group for a 
 hexagonal supercell.


 Subroutine GETGRP returns: Found  6 space group operations
 (whereof  6 operations were pure point group operations)
 out of a pool of 24 trial point group operations.


The dynamic configuration has the point symmetry S_6 .


Analysis of constrained symmetry for selective dynamics:
=====================================================================
 Subroutine PRICEL returns:
 Original cell was already a primitive cell.
 

 Routine SETGRP: Setting up the symmetry group for a 
 hexagonal supercell.


 Subroutine GETGRP returns: Found  6 space group operations
 (whereof  6 operations were pure point group operations)
 out of a pool of 24 trial point group operations.


The constrained configuration has the point symmetry S_6 .


Analysis of structural, dynamic, and magnetic symmetry:
=====================================================================
 Subroutine PRICEL returns:
 Original cell was already a primitive cell.
 

 Routine SETGRP: Setting up the symmetry group for a 
 hexagonal supercell.


 Subroutine GETGRP returns: Found  6 space group operations
 (whereof  6 operations were pure point group operations)
 out of a pool of 24 trial point group operations.


The magnetic configuration has the point symmetry S_6 .


 Subroutine INISYM returns: Found  6 space group operations
 (whereof  6 operations are pure point group operations),
 and found     1 'primitive' translations



 KPOINTS: Kpoints from vasprun.xml                

Automatic generation of k-mesh.
Space group operators:
 irot       det(A)        alpha          n_x          n_y          n_z        tau_x        tau_y        tau_z
    1     1.000000     0.000000     1.000000     0.000000     0.000000     0.000000     0.000000     0.000000
    2    -1.000000     0.000000     1.000000     0.000000     0.000000     0.000000     0.000000     0.000000
    3     1.000000   120.000000     0.000000     0.000000     1.000000     0.000000     0.000000     0.000000
    4    -1.000000   120.000000     0.000000     0.000000     1.000000     0.000000     0.000000     0.000000
    5     1.000000   120.000000     0.000000     0.000000    -1.000000     0.000000     0.000000     0.000000
    6    -1.000000   120.000000     0.000000     0.000000    -1.000000     0.000000     0.000000     0.000000
 
 Subroutine IBZKPT returns following result:
 ===========================================
 
 Found      5 irreducible k-points:
 
 Following reciprocal coordinates:
            Coordinates               Weight
  0.000000  0.000000  0.000000      1.000000
  0.200000  0.000000  0.000000      6.000000
  0.400000  0.000000  0.000000      6.000000
  0.400000  0.200000  0.000000      6.000000
 -0.400000  0.200000  0.000000      6.000000
 
 Following cartesian coordinates:
            Coordinates               Weight
  0.000000  0.000000  0.000000      1.000000
  0.028953 -0.016716  0.000000      6.000000
  0.057906 -0.033432  0.000000      6.000000
  0.057906  0.000000  0.000000      6.000000
 -0.057906  0.066864  0.000000      6.000000
 
 TETIRR: Found     15 inequivalent tetrahedra from      150


--------------------------------------------------------------------------------------------------------




 Dimension of arrays:
   k-points           NKPTS =      5   k-points in BZ     NKDIM =      5   number of bands    NBANDS=     40
   number of dos      NEDOS =    301   number of ions     NIONS =     10
   non local maximal  LDIM  =      6   non local SUM 2l+1 LMDIM =     18
   total plane-waves  NPLWV = 524880
   max r-space proj   IRMAX =   7543   max aug-charges    IRDMAX=  27873
   dimension x,y,z NGX =    54 NGY =   54 NGZ =  180
   dimension x,y,z NGXF=   108 NGYF=  108 NGZF=  360
   support grid    NGXF=   108 NGYF=  108 NGZF=  360
   ions per type =               2   2   6
   NGX,Y,Z   is equivalent  to a cutoff of  13.00, 13.00, 12.76 a.u.
   NGXF,Y,Z  is equivalent  to a cutoff of  25.99, 25.99, 25.53 a.u.

 SYSTEM =  unknown system                          
 POSCAR =  Cr2 Si2 Se6                             

 Startparameter for this run:
   NWRITE =      2    write-flag & timer
   PREC   = accura    normal or accurate (medium, high low for compatibility)
   ISTART =      0    job   : 0-new  1-cont  2-samecut
   ICHARG =      2    charge: 1-file 2-atom 10-const
   ISPIN  =      2    spin polarized calculation?
   LNONCOLLINEAR =      F non collinear calculations
   LSORBIT =      F    spin-orbit coupling
   INIWAV =      1    electr: 0-lowe 1-rand  2-diag
   LASPH  =      F    aspherical Exc in radial PAW
   METAGGA=      F    non-selfconsistent MetaGGA calc.

 Electronic Relaxation 1
   ENCUT  =  520.0 eV  38.22 Ry    6.18 a.u.  12.84 12.84 43.59*2*pi/ulx,y,z
   ENINI  =  520.0     initial cutoff
   ENAUG  =  446.8 eV  augmentation charge cutoff
   NELM   =    400;   NELMIN=  2; NELMDL=  0     # of ELM steps 
   EDIFF  = 0.1E-03   stopping-criterion for ELM
   LREAL  =      T    real-space projection
   NLSPLINE    = F    spline interpolate recip. space projectors
   LCOMPAT=      F    compatible to vasp.4.4
   GGA_COMPAT  = T    GGA compatible to vasp.4.4-vasp.4.6
   LMAXPAW     = -100 max onsite density
   LMAXMIX     =    2 max onsite mixed and CHGCAR
   VOSKOWN=      0    Vosko Wilk Nusair interpolation
   ROPT   =   -0.00025  -0.00025  -0.00025
 Ionic relaxation
   EDIFFG = 0.1E-02   stopping-criterion for IOM
   NSW    =     99    number of steps for IOM
   NBLOCK =      1;   KBLOCK =     99    inner block; outer block 
   IBRION =      2    ionic relax: 0-MD 1-quasi-New 2-CG
   NFREE  =      1    steps in history (QN), initial steepest desc. (CG)
   ISIF   =      3    stress and relaxation
   IWAVPR =     11    prediction:  0-non 1-charg 2-wave 3-comb
   ISYM   =      2    0-nonsym 1-usesym 2-fastsym
   LCORR  =      T    Harris-Foulkes like correction to forces

   POTIM  = 0.5000    time-step for ionic-motion
   TEIN   =    0.0    initial temperature
   TEBEG  =    0.0;   TEEND  =   0.0 temperature during run
   SMASS  =  -3.00    Nose mass-parameter (am)
   estimated Nose-frequenzy (Omega)   =  0.10E-29 period in steps =****** mass=  -0.109E-26a.u.
   SCALEE = 1.0000    scale energy and forces
   NPACO  =    256;   APACO  = 16.0  distance and # of slots for P.C.
   PSTRESS=    0.0 pullay stress

  Mass of Ions in am
   POMASS =  52.00 28.09 78.96
  Ionic Valenz
   ZVAL   =   6.00  4.00  6.00
  Atomic Wigner-Seitz radii
   RWIGS  =  -1.00 -1.00 -1.00
  virtual crystal weights 
   VCA    =   1.00  1.00  1.00
   NELECT =      56.0000    total number of electrons
   NUPDOWN=      -1.0000    fix difference up-down

 DOS related values:
   EMIN   =  10.00;   EMAX   =-10.00  energy-range for DOS
   EFERMI =   0.00
   ISMEAR =    -5;   SIGMA  =   0.05  broadening in eV -4-tet -1-fermi 0-gaus

 Electronic relaxation 2 (details)
   IALGO  =     38    algorithm
   LDIAG  =      T    sub-space diagonalisation (order eigenvalues)
   LSUBROT=      F    optimize rotation matrix (better conditioning)
   TURBO    =      0    0=normal 1=particle mesh
   IRESTART =      0    0=no restart 2=restart with 2 vectors
   NREBOOT  =      0    no. of reboots
   NMIN     =      0    reboot dimension
   EREF     =   0.00    reference energy to select bands
   IMIX   =      4    mixing-type and parameters
     AMIX     =   0.40;   BMIX     =  1.00
     AMIX_MAG =   1.60;   BMIX_MAG =  1.00
     AMIN     =   0.01
     WC   =   100.;   INIMIX=   1;  MIXPRE=   1;  MAXMIX= -45

 Intra band minimization:
   WEIMIN = 0.0010     energy-eigenvalue tresh-hold
   EBREAK =  0.63E-06  absolut break condition
   DEPER  =   0.30     relativ break condition  

   TIME   =   0.40     timestep for ELM

  volume/ion in A,a.u.               =      96.88       653.80
  Fermi-wavevector in a.u.,A,eV,Ry     =   0.632976  1.196152  5.451299  0.400659
  Thomas-Fermi vector in A             =   1.696476

 Write flags
   LWAVE        =      F    write WAVECAR
   LDOWNSAMPLE  =      F    k-point downsampling of WAVECAR
   LCHARG       =      T    write CHGCAR
   LVTOT        =      F    write LOCPOT, total local potential
   LVHAR        =      F    write LOCPOT, Hartree potential only
   LELF         =      F    write electronic localiz. function (ELF)
   LORBIT       =     11    0 simple, 1 ext, 2 COOP (PROOUT), +10 PAW based schemes


 Dipole corrections
   LMONO  =      F    monopole corrections only (constant potential shift)
   LDIPOL =      F    correct potential (dipole corrections)
   IDIPOL =      0    1-x, 2-y, 3-z, 4-all directions 
   EPSILON=  1.0000000 bulk dielectric constant

 Exchange correlation treatment:
   GGA     =    BO    GGA type
   LEXCH   =    42    internal setting for exchange type
   VOSKOWN=      0    Vosko Wilk Nusair interpolation
   LHFCALC =     F    Hartree Fock is set to
   LHFONE  =     F    Hartree Fock one center treatment
   AEXX    =    0.0000 exact exchange contribution

 vdW DFT:
   LUSE_VDW   =     T    switch on vdW DFT
   Zab_VDW    =-.8491    correlation parameter
   PARAM1     =0.1833
   PARAM2     =0.2200
   PARAM3     =0.0000
   -- rVV10 --
   BPARAM     = 6.3000
   CPARAM     = 0.0093

 Linear response parameters
   LEPSILON=     F    determine dielectric tensor
   LRPA    =     F    only Hartree local field effects (RPA)
   LNABLA  =     F    use nabla operator in PAW spheres
   LVEL    =     F    velocity operator in full k-point grid
   LINTERFAST=   F  fast interpolation
   KINTER  =     0    interpolate to denser k-point grid
   CSHIFT  =0.1000    complex shift for real part using Kramers Kronig
   OMEGAMAX=  -1.0    maximum frequency
   DEG_THRESHOLD= 0.2000000E-02 threshold for treating states as degnerate
   RTIME   =   -0.100 relaxation time in fs
  (WPLASMAI=    0.000 imaginary part of plasma frequency in eV, 0.658/RTIME)
   DFIELD  = 0.0000000 0.0000000 0.0000000 field for delta impulse in time

 Orbital magnetization related:
   ORBITALMAG=     F  switch on orbital magnetization
   LCHIMAG   =     F  perturbation theory with respect to B field
   DQ        =  0.001000  dq finite difference perturbation B field
   LLRAUG    =     F  two centre corrections for induced B field



--------------------------------------------------------------------------------------------------------


 conjugate gradient relaxation of ions
   using selective dynamics as specified on POSCAR
 charge density and potential will be updated during run
 spin polarized calculation
 Variant of blocked Davidson
 Davidson routine will perform the subspace rotation
 perform sub-space diagonalisation
    after iterative eigenvector-optimisation
 modified Broyden-mixing scheme, WC =      100.0
 initial mixing is a Kerker type mixing with AMIX =  0.4000 and BMIX =      1.0000
 Hartree-type preconditioning will be used
 using additional bands           12
 real space projection scheme for non local part
 use partial core corrections
 calculate Harris-corrections to forces   (improved forces if not selfconsistent)
 use gradient corrections 
 use of overlap-Matrix (Vanderbilt PP)
 Fermi weights with tetrahedron method with Bloechl corrections


--------------------------------------------------------------------------------------------------------


  energy-cutoff  :      520.00
  volume of cell :      968.84
      direct lattice vectors                 reciprocal lattice vectors
     6.907777000 -0.000000000  0.000000000     0.144764372 -0.083579742  0.000000000
     3.453888000  5.982310000  0.000000000     0.000000000  0.167159509 -0.000000000
     0.000000000  0.000000000 23.444588000    -0.000000000  0.000000000  0.042653767

  length of vectors
     6.907777000  6.907776433 23.444588000     0.167159495  0.167159509  0.042653767



 k-points in units of 2pi/SCALE and weight: Kpoints from vasprun.xml                
   0.00000000  0.00000000  0.00000000       0.040
   0.02895287 -0.01671595  0.00000000       0.240
   0.05790575 -0.03343190  0.00000000       0.240
   0.05790575  0.00000000  0.00000000       0.240
  -0.05790575  0.06686380  0.00000000       0.240

 k-points in reciprocal lattice and weights: Kpoints from vasprun.xml                
   0.00000000  0.00000000  0.00000000       0.040
   0.20000000  0.00000000  0.00000000       0.240
   0.40000000  0.00000000  0.00000000       0.240
   0.40000000  0.20000000  0.00000000       0.240
  -0.40000000  0.20000000  0.00000000       0.240

 position of ions in fractional coordinates (direct lattice) 
   0.33333300  0.33333300  0.49992500
   0.66666700  0.66666700  0.50007500
   0.00000000  0.00000000  0.44821600
   0.00000000  0.00000000  0.55178400
   0.62635700  0.00042000  0.57375200
   0.00042000  0.37322400  0.57375200
   0.37322400  0.62635700  0.57375200
   0.37364300  0.99958000  0.42624800
   0.99958000  0.62677600  0.42624800
   0.62677600  0.37364300  0.42624800

 position of ions in cartesian coordinates  (Angst):
   3.45388488  1.99410134 11.72053566
   6.90778012  3.98820866 11.72405234
   0.00000000  0.00000000 10.50823946
   0.00000000  0.00000000 12.93634854
   4.32818511  0.00251257 13.45137925
   1.29197516  2.23274167 13.45137925
   4.74151509  3.74706174 13.45137925
   6.03347989  5.97979743  9.99320875
   9.06968984  3.74956833  9.99320875
   5.62014991  2.23524826  9.99320875



--------------------------------------------------------------------------------------------------------


 k-point  1 :   0.0000 0.0000 0.0000  plane waves:   26073
 k-point  2 :   0.2000 0.0000 0.0000  plane waves:   26070
 k-point  3 :   0.4000 0.0000 0.0000  plane waves:   26086
 k-point  4 :   0.4000 0.2000 0.0000  plane waves:   26085
 k-point  5 :  -0.4000 0.2000 0.0000  plane waves:   26115

 maximum and minimum number of plane-waves per node :     26115    26070

 maximum number of plane-waves:     26115
 maximum index in each direction: 
   IXMAX=   13   IYMAX=   12   IZMAX=   43
   IXMIN=  -13   IYMIN=  -13   IZMIN=  -43


 serial   3D FFT for wavefunctions
 parallel 3D FFT for charge:
    minimum data exchange during FFTs selected (reduces bandwidth)


 total amount of memory used by VASP MPI-rank0   168852. kBytes
=======================================================================

   base      :      30000. kBytes
   nonlr-proj:       7052. kBytes
   fftplans  :      20284. kBytes
   grid      :      90201. kBytes
   one-center:        311. kBytes
   wavefun   :      21004. kBytes

     INWAV:  cpu time    0.0000: real time    0.0006
 Broyden mixing: mesh for mixing (old mesh)
   NGX = 25   NGY = 25   NGZ = 87
  (NGX  =108   NGY  =108   NGZ  =360)
  gives a total of  54375 points

 initial charge density was supplied:
 charge density of overlapping atoms calculated
 number of electron      56.0000000 magnetization       6.0000000
 keeping initial charge density in first step


--------------------------------------------------------------------------------------------------------


 Maximum index for non-local projection operator         7247
 Maximum index for augmentation-charges         3407 (set IRDMAX)


--------------------------------------------------------------------------------------------------------


 First call to EWALD:  gamma=   0.179
 Maximum number of real-space cells 4x 4x 1
 Maximum number of reciprocal cells 2x 2x 6

    FEWALD:  cpu time    0.0040: real time    0.0014


--------------------------------------- Iteration      1(   1)  ---------------------------------------


vdW kernel read from vdw_kernel.bindat
  0.0000  0.2424  0.5071  0.7962  1.1119  1.4567  1.8333  2.2446  2.6937  3.1842
  3.7199  4.3049  4.9438  5.6415  6.4036  7.2358  8.1446  9.1372 10.2212 11.4050
 12.6979 14.1099 15.6519 17.3360 19.1751 21.1837 23.3773 25.7729 28.3892 31.2465
 34.3669 37.7748 41.4965 45.5611 50.0000

    POTLOK:  cpu time  104.3720: real time  104.7627
    SETDIJ:  cpu time    0.0560: real time    0.0574
     EDDAV:  cpu time   20.3560: real time   20.5639
 BZINTS: Fermi energy:  6.085053; 56.000000 electrons
         Band energy:  13.755911;  BLOECHL correction: -0.068358
       DOS:  cpu time    0.0040: real time    0.0041
    --------------------------------------------
      LOOP:  cpu time  124.7880: real time  125.3881

 eigenvalue-minimisations  :   800
 total energy-change (2. order) : 0.4226104E+03  (-0.1583183E+04)
 number of electron      56.0000000 magnetization       6.0000000
 augmentation part       56.0000000 magnetization       6.0000000

 Free energy of the ion-electron system (eV)
  ---------------------------------------------------
  alpha Z        PSCENC =        29.07756033
  Ewald energy   TEWEN  =      5985.89955237
  -Hartree energ DENC   =     -8014.76401249
  -exchange      EXHF   =         0.00000000
  -V(xc)+E(xc)   XCENC  =       -70.67586014
  PAW double counting   =      1153.96875667     -987.94149309
  entropy T*S    EENTRO =         0.00000000
  eigenvalues    EBANDS =        13.75591104
  atomic energy  EATOM  =      2313.29000814
  Solvation  Ediel_sol  =         0.00000000
  ---------------------------------------------------
  free energy    TOTEN  =       422.61042284 eV

  energy without entropy =      422.61042284  energy(sigma->0) =      422.61042284


--------------------------------------------------------------------------------------------------------




--------------------------------------- Iteration      1(   2)  ---------------------------------------


     EDDAV:  cpu time   25.6200: real time   25.8094
 BZINTS: Fermi energy: -0.302966; 56.000000 electrons
         Band energy:-369.247343;  BLOECHL correction: -0.059374
       DOS:  cpu time    0.0040: real time    0.0040
    --------------------------------------------
      LOOP:  cpu time   25.6240: real time   25.8134

 eigenvalue-minimisations  :  1064
 total energy-change (2. order) :-0.3830033E+03  (-0.3658370E+03)
 number of electron      56.0000000 magnetization       6.0000000
 augmentation part       56.0000000 magnetization       6.0000000

 Free energy of the ion-electron system (eV)
  ---------------------------------------------------
  alpha Z        PSCENC =        29.07756033
  Ewald energy   TEWEN  =      5985.89955237
  -Hartree energ DENC   =     -8014.76401249
  -exchange      EXHF   =         0.00000000
  -V(xc)+E(xc)   XCENC  =       -70.67586014
  PAW double counting   =      1153.96875667     -987.94149309
  entropy T*S    EENTRO =         0.00000000
  eigenvalues    EBANDS =      -369.24734312
  atomic energy  EATOM  =      2313.29000814
  Solvation  Ediel_sol  =         0.00000000
  ---------------------------------------------------
  free energy    TOTEN  =        39.60716868 eV

  energy without entropy =       39.60716868  energy(sigma->0) =       39.60716868


--------------------------------------------------------------------------------------------------------




--------------------------------------- Iteration      1(   3)  ---------------------------------------


     EDDAV:  cpu time   27.0960: real time   27.5480
 BZINTS: Fermi energy: -2.174643; 56.000000 electrons
         Band energy:-454.923847;  BLOECHL correction: -0.050802
       DOS:  cpu time    0.0000: real time    0.0039
    --------------------------------------------
      LOOP:  cpu time   27.0960: real time   27.5519

 eigenvalue-minimisations  :  1152
 total energy-change (2. order) :-0.8567650E+02  (-0.8379376E+02)
 number of electron      56.0000000 magnetization       6.0000000
 augmentation part       56.0000000 magnetization       6.0000000

 Free energy of the ion-electron system (eV)
  ---------------------------------------------------
  alpha Z        PSCENC =        29.07756033
  Ewald energy   TEWEN  =      5985.89955237
  -Hartree energ DENC   =     -8014.76401249
  -exchange      EXHF   =         0.00000000
  -V(xc)+E(xc)   XCENC  =       -70.67586014
  PAW double counting   =      1153.96875667     -987.94149309
  entropy T*S    EENTRO =         0.00000000
  eigenvalues    EBANDS =      -454.92384732
  atomic energy  EATOM  =      2313.29000814
  Solvation  Ediel_sol  =         0.00000000
  ---------------------------------------------------
  free energy    TOTEN  =       -46.06933552 eV

  energy without entropy =      -46.06933552  energy(sigma->0) =      -46.06933552


--------------------------------------------------------------------------------------------------------




--------------------------------------- Iteration      1(   4)  ---------------------------------------


     EDDAV:  cpu time   27.8040: real time   28.1101
 BZINTS: Fermi energy: -2.321661; 56.000000 electrons
         Band energy:-461.210094;  BLOECHL correction: -0.011916
       DOS:  cpu time    0.0040: real time    0.0040
    --------------------------------------------
      LOOP:  cpu time   27.8080: real time   28.1142

 eigenvalue-minimisations  :  1184
 total energy-change (2. order) :-0.6286247E+01  (-0.5669985E+01)
 number of electron      56.0000000 magnetization       6.0000000
 augmentation part       56.0000000 magnetization       6.0000000

 Free energy of the ion-electron system (eV)
  ---------------------------------------------------
  alpha Z        PSCENC =        29.07756033
  Ewald energy   TEWEN  =      5985.89955237
  -Hartree energ DENC   =     -8014.76401249
  -exchange      EXHF   =         0.00000000
  -V(xc)+E(xc)   XCENC  =       -70.67586014
  PAW double counting   =      1153.96875667     -987.94149309
  entropy T*S    EENTRO =         0.00000000
  eigenvalues    EBANDS =      -461.21009392
  atomic energy  EATOM  =      2313.29000814
  Solvation  Ediel_sol  =         0.00000000
  ---------------------------------------------------
  free energy    TOTEN  =       -52.35558212 eV

  energy without entropy =      -52.35558212  energy(sigma->0) =      -52.35558212


--------------------------------------------------------------------------------------------------------




--------------------------------------- Iteration      1(   5)  ---------------------------------------


     EDDAV:  cpu time   40.6920: real time   41.4728
 BZINTS: Fermi energy: -2.329155; 56.000000 electrons
         Band energy:-461.472750;  BLOECHL correction: -0.010429
       DOS:  cpu time    0.0080: real time    0.0083
    CHARGE:  cpu time    3.2560: real time    3.2666
    MIXING:  cpu time    0.0680: real time    0.0691
    --------------------------------------------
      LOOP:  cpu time   44.0240: real time   44.8169

 eigenvalue-minimisations  :  1128
 total energy-change (2. order) :-0.2626559E+00  (-0.2577744E+00)
 number of electron      55.9999997 magnetization       5.5884605
 augmentation part       -5.9768409 magnetization       4.9868030

 Broyden mixing:
  rms(total) = 0.24959E+01    rms(broyden)= 0.24959E+01
  rms(prec ) = 0.27973E+01
  weight for this iteration     100.00

 Free energy of the ion-electron system (eV)
  ---------------------------------------------------
  alpha Z        PSCENC =        29.07756033
  Ewald energy   TEWEN  =      5985.89955237
  -Hartree energ DENC   =     -8014.76401249
  -exchange      EXHF   =         0.00000000
  -V(xc)+E(xc)   XCENC  =       -70.67586014
  PAW double counting   =      1153.96875667     -987.94149309
  entropy T*S    EENTRO =         0.00000000
  eigenvalues    EBANDS =      -461.47274978
  atomic energy  EATOM  =      2313.29000814
  Solvation  Ediel_sol  =         0.00000000
  ---------------------------------------------------
  free energy    TOTEN  =       -52.61823798 eV

  energy without entropy =      -52.61823798  energy(sigma->0) =      -52.61823798


--------------------------------------------------------------------------------------------------------




--------------------------------------- Iteration      1(   6)  ---------------------------------------


    POTLOK:  cpu time  100.0400: real time  101.1230
    SETDIJ:  cpu time    0.0680: real time    0.0667
     EDDAV:  cpu time   38.5960: real time   38.7912
 BZINTS: Fermi energy: -4.946904; 56.000000 electrons
         Band energy:-598.709210;  BLOECHL correction: -0.044097
       DOS:  cpu time    0.0080: real time    0.0061
    CHARGE:  cpu time    3.3040: real time    3.3351
    MIXING:  cpu time    0.1000: real time    0.1009
    --------------------------------------------
      LOOP:  cpu time  142.1160: real time  143.4230

 eigenvalue-minimisations  :  1128
 total energy-change (2. order) :-0.7924629E+02  (-0.5343704E+02)
 number of electron      55.9999994 magnetization       5.4576883
 augmentation part        8.3819252 magnetization       4.2200483

 Broyden mixing:
  rms(total) = 0.62453E+01    rms(broyden)= 0.62453E+01
  rms(prec ) = 0.70437E+01
  weight for this iteration     100.00

 eigenvalues of (default mixing * dielectric matrix)
  average eigenvalue GAMMA=   0.2801
  0.2801

 Free energy of the ion-electron system (eV)
  ---------------------------------------------------
  alpha Z        PSCENC =        29.07756033
  Ewald energy   TEWEN  =      5985.89955237
  -Hartree energ DENC   =     -7965.85430638
  -exchange      EXHF   =         0.00000000
  -V(xc)+E(xc)   XCENC  =       -71.19358003
  PAW double counting   =      1082.62393747     -906.99849218
  entropy T*S    EENTRO =         0.00000000
  eigenvalues    EBANDS =      -598.70920957
  atomic energy  EATOM  =      2313.29000814
  Solvation  Ediel_sol  =         0.00000000
  ---------------------------------------------------
  free energy    TOTEN  =      -131.86452986 eV

  energy without entropy =     -131.86452986  energy(sigma->0) =     -131.86452986


--------------------------------------------------------------------------------------------------------




--------------------------------------- Iteration      1(   7)  ---------------------------------------


    POTLOK:  cpu time  100.0040: real time  100.7253
    SETDIJ:  cpu time    0.0600: real time    0.0595
     EDDAV:  cpu time   36.3120: real time   36.7564
 BZINTS: Fermi energy: -3.955509; 56.000000 electrons
         Band energy:-462.076375;  BLOECHL correction:  0.000000
       DOS:  cpu time    0.0000: real time    0.0026
    CHARGE:  cpu time    3.1680: real time    3.2338
    MIXING:  cpu time    0.0600: real time    0.0621
    --------------------------------------------
      LOOP:  cpu time  139.6040: real time  140.8396

 eigenvalue-minimisations  :  1080
 total energy-change (2. order) : 0.8799949E+02  (-0.1155323E+02)
 number of electron      55.9999996 magnetization       5.4778911
 augmentation part       -1.6622316 magnetization       3.1247306

 Broyden mixing:
  rms(total) = 0.18107E+01    rms(broyden)= 0.18106E+01
  rms(prec ) = 0.18216E+01
  weight for this iteration     100.00

 eigenvalues of (default mixing * dielectric matrix)
  average eigenvalue GAMMA=   0.2847
  0.2847  0.2847

 Free energy of the ion-electron system (eV)
  ---------------------------------------------------
  alpha Z        PSCENC =        29.07756033
  Ewald energy   TEWEN  =      5985.89955237
  -Hartree energ DENC   =     -8004.51105893
  -exchange      EXHF   =         0.00000000
  -V(xc)+E(xc)   XCENC  =       -71.50560370
  PAW double counting   =      1155.34684779     -989.38597311
  entropy T*S    EENTRO =         0.00000000
  eigenvalues    EBANDS =      -462.07637488
  atomic energy  EATOM  =      2313.29000814
  Solvation  Ediel_sol  =         0.00000000
  ---------------------------------------------------
  free energy    TOTEN  =       -43.86504198 eV

  energy without entropy =      -43.86504198  energy(sigma->0) =      -43.86504198


--------------------------------------------------------------------------------------------------------




--------------------------------------- Iteration      1(   8)  ---------------------------------------


    POTLOK:  cpu time  104.1320: real time  104.9837
    SETDIJ:  cpu time    0.0600: real time    0.0593
     EDDAV:  cpu time   22.8960: real time   23.0650
 BZINTS: Fermi energy: -4.129517; 56.000000 electrons
         Band energy:-464.515811;  BLOECHL correction:  0.000000
       DOS:  cpu time    0.0000: real time    0.0019
    CHARGE:  cpu time    2.0720: real time    2.0708
    MIXING:  cpu time    0.0480: real time    0.0493
    --------------------------------------------
      LOOP:  cpu time  129.2080: real time  130.2301

 eigenvalue-minimisations  :   936
 total energy-change (2. order) :-0.2141139E+01  (-0.7780356E+00)
 number of electron      55.9999996 magnetization       5.5198972
 augmentation part       -1.8390123 magnetization       3.3327653

 Broyden mixing:
  rms(total) = 0.11486E+01    rms(broyden)= 0.11486E+01
  rms(prec ) = 0.11605E+01
  weight for this iteration     100.00

 eigenvalues of (default mixing * dielectric matrix)
  average eigenvalue GAMMA=   0.4884
  0.5921  0.5921  0.2811

 Free energy of the ion-electron system (eV)
  ---------------------------------------------------
  alpha Z        PSCENC =        29.07756033
  Ewald energy   TEWEN  =      5985.89955237
  -Hartree energ DENC   =     -8004.81442863
  -exchange      EXHF   =         0.00000000
  -V(xc)+E(xc)   XCENC  =       -70.99801626
  PAW double counting   =      1157.07103672     -991.01608221
  entropy T*S    EENTRO =         0.00000000
  eigenvalues    EBANDS =      -464.51581131
  atomic energy  EATOM  =      2313.29000814
  Solvation  Ediel_sol  =         0.00000000
  ---------------------------------------------------
  free energy    TOTEN  =       -46.00618086 eV

  energy without entropy =      -46.00618086  energy(sigma->0) =      -46.00618086


--------------------------------------------------------------------------------------------------------




--------------------------------------- Iteration      1(   9)  ---------------------------------------


    POTLOK:  cpu time   96.7640: real time   97.1150
    SETDIJ:  cpu time    0.0520: real time    0.0538
     EDDAV:  cpu time   34.7280: real time   34.9968
 BZINTS: Fermi energy: -4.166306; 56.000000 electrons
         Band energy:-461.597686;  BLOECHL correction:  0.000000
       DOS:  cpu time    0.0000: real time    0.0018
    CHARGE:  cpu time    2.0000: real time    2.0091
    MIXING:  cpu time    0.0560: real time    0.0861
    --------------------------------------------
      LOOP:  cpu time  133.6000: real time  134.2625

 eigenvalue-minimisations  :  1248
 total energy-change (2. order) :-0.7127552E+00  (-0.6818964E-01)
 number of electron      55.9999996 magnetization       5.5914886
 augmentation part       -1.9163609 magnetization       3.7272906

 Broyden mixing:
  rms(total) = 0.72853E+00    rms(broyden)= 0.72853E+00
  rms(prec ) = 0.73467E+00
  weight for this iteration     100.00

 eigenvalues of (default mixing * dielectric matrix)
  average eigenvalue GAMMA=   0.6833
  0.9667  0.9667  0.2811  0.5188

 Free energy of the ion-electron system (eV)
  ---------------------------------------------------
  alpha Z        PSCENC =        29.07756033
  Ewald energy   TEWEN  =      5985.89955237
  -Hartree energ DENC   =     -8009.48446754
  -exchange      EXHF   =         0.00000000
  -V(xc)+E(xc)   XCENC  =       -69.77936445
  PAW double counting   =      1168.45963260    -1002.58417145
  entropy T*S    EENTRO =         0.00000000
  eigenvalues    EBANDS =      -461.59768601
  atomic energy  EATOM  =      2313.29000814
  Solvation  Ediel_sol  =         0.00000000
  ---------------------------------------------------
  free energy    TOTEN  =       -46.71893601 eV

  energy without entropy =      -46.71893601  energy(sigma->0) =      -46.71893601


--------------------------------------------------------------------------------------------------------




--------------------------------------- Iteration      1(  10)  ---------------------------------------


    POTLOK:  cpu time  100.4600: real time  100.7218
    SETDIJ:  cpu time    0.0880: real time    0.0896
     EDDAV:  cpu time   37.7560: real time   38.1718
 BZINTS: Fermi energy: -4.126703; 56.000000 electrons
         Band energy:-459.620436;  BLOECHL correction:  0.000000
       DOS:  cpu time    0.0040: real time    0.0017
    CHARGE:  cpu time    1.9760: real time    1.9942
    MIXING:  cpu time    0.0600: real time    0.0577
    --------------------------------------------
      LOOP:  cpu time  140.3440: real time  141.0368

 eigenvalue-minimisations  :  1232
 total energy-change (2. order) :-0.2655296E+00  (-0.3134513E-01)
 number of electron      55.9999996 magnetization       5.6588716
 augmentation part       -1.8833298 magnetization       4.1025021

 Broyden mixing:
  rms(total) = 0.27149E+00    rms(broyden)= 0.27149E+00
  rms(prec ) = 0.27588E+00
  weight for this iteration     100.00

 eigenvalues of (default mixing * dielectric matrix)
  average eigenvalue GAMMA=   0.8490
  1.3171  1.3171  0.2809  0.6650  0.6650

 Free energy of the ion-electron system (eV)
  ---------------------------------------------------
  alpha Z        PSCENC =        29.07756033
  Ewald energy   TEWEN  =      5985.89955237
  -Hartree energ DENC   =     -8013.00458990
  -exchange      EXHF   =         0.00000000
  -V(xc)+E(xc)   XCENC  =       -68.00542125
  PAW double counting   =      1174.16612438    -1008.78726369
  entropy T*S    EENTRO =         0.00000000
  eigenvalues    EBANDS =      -459.62043595
  atomic energy  EATOM  =      2313.29000814
  Solvation  Ediel_sol  =         0.00000000
  ---------------------------------------------------
  free energy    TOTEN  =       -46.98446558 eV

  energy without entropy =      -46.98446558  energy(sigma->0) =      -46.98446558


--------------------------------------------------------------------------------------------------------




--------------------------------------- Iteration      1(  11)  ---------------------------------------


    POTLOK:  cpu time  101.0600: real time  101.8516
    SETDIJ:  cpu time    0.0840: real time    0.1122
     EDDAV:  cpu time   38.9880: real time   39.2355
 BZINTS: Fermi energy: -4.087065; 56.000000 electrons
         Band energy:-459.028326;  BLOECHL correction:  0.000000
       DOS:  cpu time    0.0000: real time    0.0017
    CHARGE:  cpu time    1.9640: real time    1.9802
    MIXING:  cpu time    0.0680: real time    0.0662
    --------------------------------------------
      LOOP:  cpu time  142.1640: real time  143.2474

 eigenvalue-minimisations  :  1240
 total energy-change (2. order) :-0.7106014E-01  (-0.1063397E-01)
 number of electron      55.9999996 magnetization       5.7223386
 augmentation part       -1.9347290 magnetization       4.3072117

 Broyden mixing:
  rms(total) = 0.74056E-01    rms(broyden)= 0.74054E-01
  rms(prec ) = 0.76183E-01
  weight for this iteration     100.00

 eigenvalues of (default mixing * dielectric matrix)
  average eigenvalue GAMMA=   0.9662
  1.6735  1.5517  0.2809  0.9381  0.6766  0.6766

 Free energy of the ion-electron system (eV)
  ---------------------------------------------------
  alpha Z        PSCENC =        29.07756033
  Ewald energy   TEWEN  =      5985.89955237
  -Hartree energ DENC   =     -8014.57304131
  -exchange      EXHF   =         0.00000000
  -V(xc)+E(xc)   XCENC  =       -66.89259238
  PAW double counting   =      1176.30598275    -1011.13467012
  entropy T*S    EENTRO =         0.00000000
  eigenvalues    EBANDS =      -459.02832551
  atomic energy  EATOM  =      2313.29000814
  Solvation  Ediel_sol  =         0.00000000
  ---------------------------------------------------
  free energy    TOTEN  =       -47.05552573 eV

  energy without entropy =      -47.05552573  energy(sigma->0) =      -47.05552573


--------------------------------------------------------------------------------------------------------




--------------------------------------- Iteration      1(  12)  ---------------------------------------


    POTLOK:  cpu time  101.0400: real time  101.3947
    SETDIJ:  cpu time    0.0840: real time    0.0810
     EDDAV:  cpu time   37.0320: real time   37.3774
 BZINTS: Fermi energy: -4.070265; 56.000000 electrons
         Band energy:-458.777364;  BLOECHL correction:  0.000000
       DOS:  cpu time    0.0000: real time    0.0020
    CHARGE:  cpu time    1.9760: real time    1.9911
    MIXING:  cpu time    0.0680: real time    0.0696
    --------------------------------------------
      LOOP:  cpu time  140.2000: real time  140.9157

 eigenvalue-minimisations  :  1072
 total energy-change (2. order) :-0.1636598E-02  (-0.2022998E-02)
 number of electron      55.9999996 magnetization       5.7724943
 augmentation part       -1.9694014 magnetization       4.3591144

 Broyden mixing:
  rms(total) = 0.30613E-01    rms(broyden)= 0.30612E-01
  rms(prec ) = 0.31936E-01
  weight for this iteration     100.00

 eigenvalues of (default mixing * dielectric matrix)
  average eigenvalue GAMMA=   1.0651
  2.5061  1.3143  1.3143  0.2809  0.7175  0.7175  0.6048

 Free energy of the ion-electron system (eV)
  ---------------------------------------------------
  alpha Z        PSCENC =        29.07756033
  Ewald energy   TEWEN  =      5985.89955237
  -Hartree energ DENC   =     -8014.86224783
  -exchange      EXHF   =         0.00000000
  -V(xc)+E(xc)   XCENC  =       -66.68241907
  PAW double counting   =      1175.35421594    -1010.35646773
  entropy T*S    EENTRO =         0.00000000
  eigenvalues    EBANDS =      -458.77736448
  atomic energy  EATOM  =      2313.29000814
  Solvation  Ediel_sol  =         0.00000000
  ---------------------------------------------------
  free energy    TOTEN  =       -47.05716232 eV

  energy without entropy =      -47.05716232  energy(sigma->0) =      -47.05716232


--------------------------------------------------------------------------------------------------------




--------------------------------------- Iteration      1(  13)  ---------------------------------------


    POTLOK:  cpu time   99.9720: real time  100.7440
    SETDIJ:  cpu time    0.1040: real time    0.1030
     EDDAV:  cpu time   38.4600: real time   38.7871
 BZINTS: Fermi energy: -4.060325; 56.000000 electrons
         Band energy:-458.429695;  BLOECHL correction:  0.000000
       DOS:  cpu time    0.0040: real time    0.0018
    CHARGE:  cpu time    2.0040: real time    2.0120
    MIXING:  cpu time    0.0560: real time    0.0588
    --------------------------------------------
      LOOP:  cpu time  140.6000: real time  141.7067

 eigenvalue-minimisations  :   992
 total energy-change (2. order) :-0.8833134E-03  (-0.4804660E-03)
 number of electron      55.9999996 magnetization       5.8052831
 augmentation part       -1.9688264 magnetization       4.3971554

 Broyden mixing:
  rms(total) = 0.22690E-01    rms(broyden)= 0.22690E-01
  rms(prec ) = 0.23418E-01
  weight for this iteration     100.00

 eigenvalues of (default mixing * dielectric matrix)
  average eigenvalue GAMMA=   1.0836
  2.4707  1.6905  0.2809  1.0971  1.0971  0.7136  0.7136  0.6055

 Free energy of the ion-electron system (eV)
  ---------------------------------------------------
  alpha Z        PSCENC =        29.07756033
  Ewald energy   TEWEN  =      5985.89955237
  -Hartree energ DENC   =     -8015.25764127
  -exchange      EXHF   =         0.00000000
  -V(xc)+E(xc)   XCENC  =       -66.65414430
  PAW double counting   =      1175.50552366    -1010.48920939
  entropy T*S    EENTRO =         0.00000000
  eigenvalues    EBANDS =      -458.42969517
  atomic energy  EATOM  =      2313.29000814
  Solvation  Ediel_sol  =         0.00000000
  ---------------------------------------------------
  free energy    TOTEN  =       -47.05804564 eV

  energy without entropy =      -47.05804564  energy(sigma->0) =      -47.05804564


--------------------------------------------------------------------------------------------------------




--------------------------------------- Iteration      1(  14)  ---------------------------------------


    POTLOK:  cpu time   98.3120: real time   98.7016
    SETDIJ:  cpu time    0.1160: real time    0.1144
     EDDAV:  cpu time   42.2480: real time   42.8431
 BZINTS: Fermi energy: -4.051202; 56.000000 electrons
         Band energy:-458.187855;  BLOECHL correction:  0.000000
       DOS:  cpu time    0.0000: real time    0.0019
    CHARGE:  cpu time    3.2920: real time    3.2960
    MIXING:  cpu time    0.0960: real time    0.1006
    --------------------------------------------
      LOOP:  cpu time  144.0640: real time  145.0578

 eigenvalue-minimisations  :  1072
 total energy-change (2. order) :-0.2925658E-02  (-0.1456453E-03)
 number of electron      55.9999996 magnetization       5.8489499
 augmentation part       -1.9546876 magnetization       4.4383113

 Broyden mixing:
  rms(total) = 0.33045E-01    rms(broyden)= 0.33045E-01
  rms(prec ) = 0.33530E-01
  weight for this iteration     100.00

 eigenvalues of (default mixing * dielectric matrix)
  average eigenvalue GAMMA=   1.1608
  2.4381  2.4381  1.2560  1.2560  0.2809  0.7702  0.7702  0.6190  0.6190

 Free energy of the ion-electron system (eV)
  ---------------------------------------------------
  alpha Z        PSCENC =        29.07756033
  Ewald energy   TEWEN  =      5985.89955237
  -Hartree energ DENC   =     -8015.44773620
  -exchange      EXHF   =         0.00000000
  -V(xc)+E(xc)   XCENC  =       -66.71831413
  PAW double counting   =      1175.06034747    -1010.03453475
  entropy T*S    EENTRO =         0.00000000
  eigenvalues    EBANDS =      -458.18785453
  atomic energy  EATOM  =      2313.29000814
  Solvation  Ediel_sol  =         0.00000000
  ---------------------------------------------------
  free energy    TOTEN  =       -47.06097130 eV

  energy without entropy =      -47.06097130  energy(sigma->0) =      -47.06097130


--------------------------------------------------------------------------------------------------------




--------------------------------------- Iteration      1(  15)  ---------------------------------------


    POTLOK:  cpu time   98.4560: real time  100.6896
    SETDIJ:  cpu time    0.1120: real time    0.1090
     EDDAV:  cpu time   41.8760: real time   42.4093
 BZINTS: Fermi energy: -4.046733; 56.000000 electrons
         Band energy:-457.737985;  BLOECHL correction:  0.000000
       DOS:  cpu time    0.0000: real time    0.0021
    CHARGE:  cpu time    3.3520: real time    3.3842
    MIXING:  cpu time    0.0840: real time    0.0834
    --------------------------------------------
      LOOP:  cpu time  143.8800: real time  146.6775

 eigenvalue-minimisations  :  1000
 total energy-change (2. order) :-0.2978567E-02  (-0.8936665E-04)
 number of electron      55.9999996 magnetization       5.9184229
 augmentation part       -1.9446693 magnetization       4.5186361

 Broyden mixing:
  rms(total) = 0.25956E-01    rms(broyden)= 0.25956E-01
  rms(prec ) = 0.26802E-01
  weight for this iteration     100.00

 eigenvalues of (default mixing * dielectric matrix)
  average eigenvalue GAMMA=   1.2838
  3.0271  3.0271  1.4101  1.4101  0.2809  0.8613  0.8613  0.6760  0.6760  0.6083

 Free energy of the ion-electron system (eV)
  ---------------------------------------------------
  alpha Z        PSCENC =        29.07756033
  Ewald energy   TEWEN  =      5985.89955237
  -Hartree energ DENC   =     -8015.95297791
  -exchange      EXHF   =         0.00000000
  -V(xc)+E(xc)   XCENC  =       -66.67451451
  PAW double counting   =      1175.00360262    -1009.96919610
  entropy T*S    EENTRO =         0.00000000
  eigenvalues    EBANDS =      -457.73798481
  atomic energy  EATOM  =      2313.29000814
  Solvation  Ediel_sol  =         0.00000000
  ---------------------------------------------------
  free energy    TOTEN  =       -47.06394986 eV

  energy without entropy =      -47.06394986  energy(sigma->0) =      -47.06394986


--------------------------------------------------------------------------------------------------------




--------------------------------------- Iteration      1(  16)  ---------------------------------------


    POTLOK:  cpu time  100.8840: real time  101.6537
    SETDIJ:  cpu time    0.0640: real time    0.0621
     EDDAV:  cpu time   27.6240: real time   27.8582
 BZINTS: Fermi energy: -4.048067; 56.000000 electrons
         Band energy:-457.016930;  BLOECHL correction:  0.000000
       DOS:  cpu time    0.0000: real time    0.0022
    CHARGE:  cpu time    2.0400: real time    2.0373
    MIXING:  cpu time    0.0560: real time    0.0577
    --------------------------------------------
      LOOP:  cpu time  130.6680: real time  131.6710

 eigenvalue-minimisations  :   968
 total energy-change (2. order) : 0.9300411E-02  (-0.7353530E-04)
 number of electron      55.9999996 magnetization       5.9576344
 augmentation part       -1.9478720 magnetization       4.5622253

 Broyden mixing:
  rms(total) = 0.11033E-01    rms(broyden)= 0.11033E-01
  rms(prec ) = 0.11963E-01
  weight for this iteration     100.00

 eigenvalues of (default mixing * dielectric matrix)
  average eigenvalue GAMMA=   1.3901
  4.7021  2.7120  1.4657  1.4657  0.2809  0.9750  0.9750  0.7294  0.7294  0.6220
  0.6336

 Free energy of the ion-electron system (eV)
  ---------------------------------------------------
  alpha Z        PSCENC =        29.07756033
  Ewald energy   TEWEN  =      5985.89955237
  -Hartree energ DENC   =     -8016.73571845
  -exchange      EXHF   =         0.00000000
  -V(xc)+E(xc)   XCENC  =       -66.58546296
  PAW double counting   =      1174.96944801    -1009.95310689
  entropy T*S    EENTRO =         0.00000000
  eigenvalues    EBANDS =      -457.01693001
  atomic energy  EATOM  =      2313.29000814
  Solvation  Ediel_sol  =         0.00000000
  ---------------------------------------------------
  free energy    TOTEN  =       -47.05464945 eV

  energy without entropy =      -47.05464945  energy(sigma->0) =      -47.05464945


--------------------------------------------------------------------------------------------------------




--------------------------------------- Iteration      1(  17)  ---------------------------------------


    POTLOK:  cpu time   97.7800: real time   98.3294
    SETDIJ:  cpu time    0.0760: real time    0.0771
     EDDAV:  cpu time   22.7840: real time   22.8887
 BZINTS: Fermi energy: -4.063166; 56.000000 electrons
         Band energy:-456.600708;  BLOECHL correction:  0.000000
       DOS:  cpu time    0.0040: real time    0.0016
    CHARGE:  cpu time    2.0040: real time    2.0113
    MIXING:  cpu time    0.0640: real time    0.0626
    --------------------------------------------
      LOOP:  cpu time  122.7120: real time  123.3708

 eigenvalue-minimisations  :   920
 total energy-change (2. order) :-0.1231292E-02  (-0.5595930E-04)
 number of electron      55.9999996 magnetization       5.9908783
 augmentation part       -1.9544211 magnetization       4.5946884

 Broyden mixing:
  rms(total) = 0.52733E-02    rms(broyden)= 0.52733E-02
  rms(prec ) = 0.59755E-02
  weight for this iteration     100.00

 eigenvalues of (default mixing * dielectric matrix)
  average eigenvalue GAMMA=   1.5484
  6.7608  2.6202  1.4721  1.4721  0.2809  1.1694  1.1694  0.8175  0.8175  0.6129
  0.6940  0.6940

 Free energy of the ion-electron system (eV)
  ---------------------------------------------------
  alpha Z        PSCENC =        29.07756033
  Ewald energy   TEWEN  =      5985.89955237
  -Hartree energ DENC   =     -8017.17187423
  -exchange      EXHF   =         0.00000000
  -V(xc)+E(xc)   XCENC  =       -66.56591994
  PAW double counting   =      1175.02610218    -1010.01060201
  entropy T*S    EENTRO =         0.00000000
  eigenvalues    EBANDS =      -456.60070758
  atomic energy  EATOM  =      2313.29000814
  Solvation  Ediel_sol  =         0.00000000
  ---------------------------------------------------
  free energy    TOTEN  =       -47.05588074 eV

  energy without entropy =      -47.05588074  energy(sigma->0) =      -47.05588074


--------------------------------------------------------------------------------------------------------




--------------------------------------- Iteration      1(  18)  ---------------------------------------


    POTLOK:  cpu time  102.7440: real time  103.3043
    SETDIJ:  cpu time    0.0680: real time    0.0657
     EDDAV:  cpu time   20.7760: real time   20.9734
 BZINTS: Fermi energy: -4.026060; 56.000000 electrons
         Band energy:-456.203589;  BLOECHL correction:  0.000000
       DOS:  cpu time    0.0000: real time    0.0024
    CHARGE:  cpu time    2.0560: real time    2.0828
    MIXING:  cpu time    0.0600: real time    0.0606
    --------------------------------------------
      LOOP:  cpu time  125.7040: real time  126.4891

 eigenvalue-minimisations  :   824
 total energy-change (2. order) :-0.4241963E-02  (-0.4928819E-04)
 number of electron      55.9999996 magnetization       6.0025473
 augmentation part       -1.9568239 magnetization       4.6067863

 Broyden mixing:
  rms(total) = 0.17629E-02    rms(broyden)= 0.17629E-02
  rms(prec ) = 0.28661E-02
  weight for this iteration     100.00

 eigenvalues of (default mixing * dielectric matrix)
  average eigenvalue GAMMA=   1.7258
  8.8266  2.6933  2.1714  1.4685  1.4685  0.2809  1.0080  1.0080  0.7750  0.7750
  0.6113  0.6746  0.6746

 Free energy of the ion-electron system (eV)
  ---------------------------------------------------
  alpha Z        PSCENC =        29.07756033
  Ewald energy   TEWEN  =      5985.89955237
  -Hartree energ DENC   =     -8017.58725065
  -exchange      EXHF   =         0.00000000
  -V(xc)+E(xc)   XCENC  =       -66.55215009
  PAW double counting   =      1175.10013138    -1010.08438565
  entropy T*S    EENTRO =         0.00000000
  eigenvalues    EBANDS =      -456.20358853
  atomic energy  EATOM  =      2313.29000814
  Solvation  Ediel_sol  =         0.00000000
  ---------------------------------------------------
  free energy    TOTEN  =       -47.06012271 eV

  energy without entropy =      -47.06012271  energy(sigma->0) =      -47.06012271


--------------------------------------------------------------------------------------------------------




--------------------------------------- Iteration      1(  19)  ---------------------------------------


    POTLOK:  cpu time  103.2320: real time  103.8299
    SETDIJ:  cpu time    0.1080: real time    0.1055
     EDDAV:  cpu time   23.2080: real time   23.4254
 BZINTS: Fermi energy: -4.046077; 56.000000 electrons
         Band energy:-455.990783;  BLOECHL correction:  0.000000
       DOS:  cpu time    0.0000: real time    0.0017
    CHARGE:  cpu time    1.9720: real time    1.9760
    MIXING:  cpu time    0.0880: real time    0.0880
    --------------------------------------------
      LOOP:  cpu time  128.6080: real time  129.4266

 eigenvalue-minimisations  :   752
 total energy-change (2. order) :-0.1767597E-02  (-0.1392830E-04)
 number of electron      55.9999996 magnetization       6.0035722
 augmentation part       -1.9558049 magnetization       4.6089501

 Broyden mixing:
  rms(total) = 0.12675E-02    rms(broyden)= 0.12674E-02
  rms(prec ) = 0.24198E-02
  weight for this iteration     100.00

 eigenvalues of (default mixing * dielectric matrix)
  average eigenvalue GAMMA=   1.7216
  9.2594  2.7575  2.3631  1.4923  1.4923  0.2809  1.0812  1.0812  0.8295  0.8295
  0.6981  0.6981  0.6120  0.6268

 Free energy of the ion-electron system (eV)
  ---------------------------------------------------
  alpha Z        PSCENC =        29.07756033
  Ewald energy   TEWEN  =      5985.89955237
  -Hartree energ DENC   =     -8017.80748680
  -exchange      EXHF   =         0.00000000
  -V(xc)+E(xc)   XCENC  =       -66.54685215
  PAW double counting   =      1175.17635854    -1010.16024817
  entropy T*S    EENTRO =         0.00000000
  eigenvalues    EBANDS =      -455.99078257
  atomic energy  EATOM  =      2313.29000814
  Solvation  Ediel_sol  =         0.00000000
  ---------------------------------------------------
  free energy    TOTEN  =       -47.06189030 eV

  energy without entropy =      -47.06189030  energy(sigma->0) =      -47.06189030


--------------------------------------------------------------------------------------------------------




--------------------------------------- Iteration      1(  20)  ---------------------------------------


    POTLOK:  cpu time  100.9760: real time  102.3069
    SETDIJ:  cpu time    0.0960: real time    0.0926
     EDDAV:  cpu time   28.4200: real time   28.8010
 BZINTS: Fermi energy: -4.050329; 56.000000 electrons
         Band energy:-455.886871;  BLOECHL correction:  0.000000
       DOS:  cpu time    0.0000: real time    0.0010
    --------------------------------------------
      LOOP:  cpu time  129.4920: real time  131.2015

 eigenvalue-minimisations  :   640
 total energy-change (2. order) :-0.8640660E-04  (-0.2789896E-05)
 number of electron      55.9999996 magnetization       6.0035722
 augmentation part       -1.9558049 magnetization       4.6089501

 Free energy of the ion-electron system (eV)
  ---------------------------------------------------
  alpha Z        PSCENC =        29.07756033
  Ewald energy   TEWEN  =      5985.89955237
  -Hartree energ DENC   =     -8017.91044073
  -exchange      EXHF   =         0.00000000
  -V(xc)+E(xc)   XCENC  =       -66.54689110
  PAW double counting   =      1175.20716088    -1010.19205591
  entropy T*S    EENTRO =         0.00000000
  eigenvalues    EBANDS =      -455.88687070
  atomic energy  EATOM  =      2313.29000814
  Solvation  Ediel_sol  =         0.00000000
  ---------------------------------------------------
  free energy    TOTEN  =       -47.06197671 eV

  energy without entropy =      -47.06197671  energy(sigma->0) =      -47.06197671


--------------------------------------------------------------------------------------------------------




 average (electrostatic) potential at core
  the test charge radii are     1.1394  0.9892  1.0808
  (the norm of the test charge is              1.0000)
       1 -52.1591       2 -52.1591       3 -93.9563       4 -93.9563       5 -61.6884
       6 -61.6884       7 -61.6884       8 -61.6884       9 -61.6884      10 -61.6884



 E-fermi :  -4.0503     XC(G=0):  -3.3150     alpha+bet : -2.2181


 spin component 1

 k-point     1 :       0.0000    0.0000    0.0000
  band No.  band energies     occupation 
      1     -16.3804      1.00000
      2     -15.9215      1.00000
      3     -15.4472      1.00000
      4     -15.4472      1.00000
      5     -15.4007      1.00000
      6     -15.4007      1.00000
      7     -11.5435      1.00000
      8      -9.3919      1.00000
      9      -7.4133      1.00000
     10      -7.4133      1.00000
     11      -7.3131      1.00000
     12      -7.2618      1.00000
     13      -6.9813      1.00000
     14      -6.9813      1.00000
     15      -6.1601      1.00000
     16      -5.7906      1.00000
     17      -5.7906      1.00000
     18      -5.5642      1.00000
     19      -5.5642      1.00000
     20      -5.3239      1.00000
     21      -4.9591      1.00000
     22      -4.9591      1.00000
     23      -4.7632      1.00000
     24      -4.6066      1.00000
     25      -4.6066      1.00000
     26      -4.5897      1.00000
     27      -4.5879      1.00000
     28      -4.5879      1.00000
     29      -4.2653      1.00000
     30      -4.0559      1.00000
     31      -4.0559      1.00000
     32      -2.7895      0.00000
     33      -2.7895      0.00000
     34      -2.6371      0.00000
     35      -2.4515      0.00000
     36      -2.4494      0.00000
     37      -2.4494      0.00000
     38      -0.6326      0.00000
     39      -0.6326      0.00000
     40       0.7536      0.00000

 k-point     2 :       0.2000    0.0000    0.0000
  band No.  band energies     occupation 
      1     -16.2975      1.00000
      2     -15.8667      1.00000
      3     -15.5327      1.00000
      4     -15.4859      1.00000
      5     -15.4389      1.00000
      6     -15.4278      1.00000
      7     -11.5309      1.00000
      8      -9.4591      1.00000
      9      -7.4591      1.00000
     10      -7.3773      1.00000
     11      -7.2823      1.00000
     12      -7.0365      1.00000
     13      -6.6870      1.00000
     14      -6.5309      1.00000
     15      -6.0999      1.00000
     16      -5.8809      1.00000
     17      -5.8588      1.00000
     18      -5.7675      1.00000
     19      -5.3958      1.00000
     20      -5.2837      1.00000
     21      -5.2304      1.00000
     22      -5.2217      1.00000
     23      -4.8006      1.00000
     24      -4.7442      1.00000
     25      -4.6563      1.00000
     26      -4.6339      1.00000
     27      -4.5749      1.00000
     28      -4.5156      1.00000
     29      -4.4513      1.00000
     30      -4.1511      1.00000
     31      -4.1418      1.00000
     32      -3.1453      0.00000
     33      -2.7644      0.00000
     34      -2.7417      0.00000
     35      -2.5647      0.00000
     36      -2.0261      0.00000
     37      -2.0241      0.00000
     38      -0.7118      0.00000
     39      -0.6393      0.00000
     40       0.6681      0.00000

 k-point     3 :       0.4000    0.0000    0.0000
  band No.  band energies     occupation 
      1     -16.0722      1.00000
      2     -15.7762      1.00000
      3     -15.7258      1.00000
      4     -15.5597      1.00000
      5     -15.5137      1.00000
      6     -15.4874      1.00000
      7     -11.5028      1.00000
      8      -9.5395      1.00000
      9      -7.4284      1.00000
     10      -7.2490      1.00000
     11      -6.9580      1.00000
     12      -6.5933      1.00000
     13      -6.2271      1.00000
     14      -6.2060      1.00000
     15      -6.1175      1.00000
     16      -6.0470      1.00000
     17      -5.9681      1.00000
     18      -5.9534      1.00000
     19      -5.6357      1.00000
     20      -5.5498      1.00000
     21      -5.4626      1.00000
     22      -5.0578      1.00000
     23      -4.9542      1.00000
     24      -4.9274      1.00000
     25      -4.7426      1.00000
     26      -4.6584      1.00000
     27      -4.6567      1.00000
     28      -4.4099      1.00000
     29      -4.3413      1.00000
     30      -4.3366      1.00000
     31      -4.2339      1.00000
     32      -3.1212      0.00000
     33      -2.8513      0.00000
     34      -2.7484      0.00000
     35      -2.7328      0.00000
     36      -2.2715      0.00000
     37      -1.8152      0.00000
     38      -0.7932      0.00000
     39      -0.5940      0.00000
     40       0.2287      0.00000

 k-point     4 :       0.4000    0.2000    0.0000
  band No.  band energies     occupation 
      1     -16.1434      1.00000
      2     -15.7691      1.00000
      3     -15.6239      1.00000
      4     -15.6171      1.00000
      5     -15.4964      1.00000
      6     -15.4699      1.00000
      7     -11.5049      1.00000
      8      -9.5219      1.00000
      9      -7.4903      1.00000
     10      -7.1786      1.00000
     11      -7.1208      1.00000
     12      -6.7483      1.00000
     13      -6.2690      1.00000
     14      -6.1449      1.00000
     15      -6.0810      1.00000
     16      -6.0584      1.00000
     17      -5.9774      1.00000
     18      -5.8405      1.00000
     19      -5.6811      1.00000
     20      -5.5380      1.00000
     21      -5.5151      1.00000
     22      -5.0716      1.00000
     23      -4.8646      1.00000
     24      -4.8147      1.00000
     25      -4.7311      1.00000
     26      -4.6291      1.00000
     27      -4.5753      1.00000
     28      -4.5015      1.00000
     29      -4.3706      1.00000
     30      -4.2652      1.00000
     31      -4.2188      1.00000
     32      -3.2790      0.00000
     33      -2.7925      0.00000
     34      -2.7388      0.00000
     35      -2.5364      0.00000
     36      -2.2463      0.00000
     37      -1.8461      0.00000
     38      -0.8226      0.00000
     39      -0.7177      0.00000
     40       0.1964      0.00000

 k-point     5 :      -0.4000    0.2000    0.0000
  band No.  band energies     occupation 
      1     -15.8951      1.00000
      2     -15.8731      1.00000
      3     -15.6678      1.00000
      4     -15.6283      1.00000
      5     -15.5937      1.00000
      6     -15.5070      1.00000
      7     -11.4826      1.00000
      8      -9.5482      1.00000
      9      -7.3586      1.00000
     10      -7.0436      1.00000
     11      -6.9991      1.00000
     12      -6.6964      1.00000
     13      -6.4097      1.00000
     14      -6.2452      1.00000
     15      -6.0932      1.00000
     16      -5.9069      1.00000
     17      -5.8326      1.00000
     18      -5.8200      1.00000
     19      -5.7685      1.00000
     20      -5.6865      1.00000
     21      -5.4728      1.00000
     22      -5.1146      1.00000
     23      -4.8601      1.00000
     24      -4.8180      1.00000
     25      -4.7379      1.00000
     26      -4.5971      1.00000
     27      -4.5669      1.00000
     28      -4.4409      1.00000
     29      -4.3827      1.00000
     30      -4.3395      1.00000
     31      -4.3014      1.00000
     32      -3.0381      0.00000
     33      -2.9013      0.00000
     34      -2.8648      0.00000
     35      -2.6050      0.00000
     36      -2.4883      0.00000
     37      -1.8263      0.00000
     38      -0.9547      0.00000
     39      -0.8311      0.00000
     40       0.0106      0.00000

 spin component 2

 k-point     1 :       0.0000    0.0000    0.0000
  band No.  band energies     occupation 
      1     -16.4760      1.00000
      2     -16.0536      1.00000
      3     -15.5918      1.00000
      4     -15.5918      1.00000
[...]
     18      -5.3136      1.00000
     19      -5.1990      1.00000
     20      -4.8445      1.00000
     21      -4.5768      1.00000
     22      -4.3348      1.00000
     23      -4.2583      1.00000
     24      -3.6338      1.00000
     25      -3.5962      1.00000
     26      -1.8117      0.00000
     27      -1.3838      0.00000
     28      -1.1578      0.00000
     29      -0.9118      0.00000
     30      -0.7896      0.00000
     31      -0.6967      0.00000
     32      -0.6400      0.00000
     33      -0.1254      0.00000
     34      -0.0815      0.00000
     35       0.0894      0.00000
     36       0.1171      0.00000
     37       0.7526      0.00000
     38       0.9641      0.00000
     39       1.0473      0.00000
     40       1.9012      0.00000

 k-point     5 :      -0.4000    0.2000    0.0000
  band No.  band energies     occupation 
      1     -16.1316      1.00000
      2     -16.0138      1.00000
      3     -15.6672      1.00000
      4     -15.6322      1.00000
      5     -15.5641      1.00000
      6     -15.3744      1.00000
      7     -10.8684      1.00000
      8      -9.2021      1.00000
      9      -7.5045      1.00000
     10      -7.1455      1.00000
     11      -6.9343      1.00000
     12      -6.6118      1.00000
     13      -6.4106      1.00000
     14      -6.1056      1.00000
     15      -5.6551      1.00000
     16      -5.3441      1.00000
     17      -5.2484      1.00000
     18      -5.1001      1.00000
     19      -4.9848      1.00000
     20      -4.9299      1.00000
     21      -4.5827      1.00000
     22      -4.2883      1.00000
     23      -4.1455      1.00000
     24      -3.8031      1.00000
     25      -3.6926      1.00000
     26      -2.2298      0.00000
     27      -1.4411      0.00000
     28      -1.4049      0.00000
     29      -0.8551      0.00000
     30      -0.7854      0.00000
     31      -0.6609      0.00000
     32      -0.6289      0.00000
     33      -0.3554      0.00000
     34      -0.3134      0.00000
     35       0.0873      0.00000
     36       0.1537      0.00000
     37       0.5712      0.00000
     38       0.9339      0.00000
     39       1.0248      0.00000
     40       1.8731      0.00000


--------------------------------------------------------------------------------------------------------


 soft charge-density along one line, spin component           1
         0         1         2         3         4         5         6         7         8         9
 total charge-density along one line

 soft charge-density along one line, spin component           2
         0         1         2         3         4         5         6         7         8         9
 total charge-density along one line

 pseudopotential strength for first ion, spin component:           1
 -8.850   0.099  -0.000  -0.000  -0.000   0.700  -0.027   0.000
  0.099  -8.772   0.000  -0.000  -0.000  -0.027   0.679  -0.000
 -0.000   0.000  -8.941   0.000   0.000   0.000  -0.000   0.725
 -0.000  -0.000   0.000  -8.772  -0.099   0.000   0.000  -0.000
 -0.000  -0.000   0.000  -0.099  -8.850   0.000   0.000  -0.000
  0.700  -0.027   0.000   0.000   0.000   0.359   0.007  -0.000
 -0.027   0.679  -0.000   0.000   0.000   0.007   0.364   0.000
  0.000  -0.000   0.725  -0.000  -0.000  -0.000   0.000   0.353
  0.000   0.000  -0.000   0.679   0.027  -0.000  -0.000   0.000
  0.000   0.000  -0.000   0.027   0.700  -0.000  -0.000   0.000
  0.000  -0.000   0.001  -0.000   0.000  -0.000   0.000  -0.000
 -0.000   0.000  -0.000   0.000  -0.000   0.000  -0.000   0.000
 -0.000   0.000   0.000  -0.000   0.002   0.000  -0.000  -0.000
 -0.000  -0.000   0.000  -0.000  -0.000   0.000   0.000  -0.000
  0.002  -0.000   0.000   0.000  -0.000  -0.000   0.000  -0.000
 -0.000  -0.000  -0.000   0.000  -0.001   0.000   0.000   0.000
  0.000   0.000  -0.000   0.000   0.000  -0.000  -0.000   0.000
 -0.001   0.000  -0.000  -0.000   0.000   0.000  -0.000   0.000
 pseudopotential strength for first ion, spin component:           2
 -7.204  -0.184  -0.000   0.000  -0.000   0.235   0.048   0.000
 -0.184  -7.415   0.000   0.000   0.000   0.048   0.291  -0.000
 -0.000   0.000  -7.105   0.000   0.000   0.000  -0.000   0.210
  0.000   0.000   0.000  -7.415   0.184  -0.000  -0.000  -0.000
 -0.000   0.000   0.000   0.184  -7.204   0.000  -0.000  -0.000
  0.235   0.048   0.000  -0.000   0.000   0.486  -0.012  -0.000
  0.048   0.291  -0.000  -0.000  -0.000  -0.012   0.472   0.000
  0.000  -0.000   0.210  -0.000  -0.000  -0.000   0.000   0.492
 -0.000  -0.000  -0.000   0.291  -0.048   0.000   0.000   0.000
  0.000  -0.000  -0.000  -0.048   0.235  -0.000   0.000   0.000
 -0.000  -0.000   0.011  -0.000   0.000  -0.000   0.000  -0.002
  0.000   0.000  -0.002   0.000  -0.000  -0.000  -0.000   0.000
  0.000   0.000   0.000  -0.000   0.000  -0.000  -0.000  -0.000
 -0.000  -0.000   0.000  -0.000   0.000   0.000   0.000  -0.000
  0.000  -0.000   0.000   0.000  -0.000   0.000   0.000  -0.000
 -0.000  -0.000  -0.000   0.000  -0.001   0.000   0.000   0.000
  0.000   0.000  -0.000   0.000  -0.000  -0.000  -0.000   0.000
 -0.001   0.000  -0.000  -0.000   0.000  -0.000  -0.000   0.000
 total augmentation occupancy for first ion, spin component:           1
  0.990  -0.052   0.000   0.000  -0.000   0.032   0.237  -0.000  -0.000  -0.000  -0.000  -0.000   0.000   0.000   0.008   0.000
 -0.052   0.924  -0.000  -0.000   0.000   0.234   0.293   0.000  -0.000  -0.000   0.000   0.000   0.000   0.000   0.001   0.000
  0.000  -0.000   1.047  -0.000  -0.000  -0.000   0.000  -0.113   0.000   0.000  -0.005  -0.021  -0.000   0.000   0.000   0.000
  0.000  -0.000  -0.000   0.924   0.052  -0.000   0.000   0.000   0.293  -0.234   0.000   0.000  -0.001   0.000   0.000  -0.000
 -0.000   0.000  -0.000   0.052   0.990   0.000  -0.000   0.000  -0.237   0.032   0.000   0.000   0.008  -0.000  -0.000  -0.000
  0.032   0.234  -0.000  -0.000   0.000   0.181   0.077   0.000  -0.000  -0.000   0.000  -0.000  -0.000   0.000   0.027   0.000
  0.237   0.293   0.000   0.000  -0.000   0.077   0.274   0.000  -0.000  -0.000  -0.000  -0.000   0.000  -0.000  -0.006  -0.000
 -0.000   0.000  -0.113   0.000   0.000   0.000   0.000   0.185   0.000  -0.000   0.076  -0.014  -0.000   0.001   0.000   0.000
 -0.000  -0.000   0.000   0.293  -0.237  -0.000  -0.000   0.000   0.274  -0.077   0.000  -0.000   0.006  -0.000   0.000  -0.000
 -0.000  -0.000   0.000  -0.234   0.032  -0.000  -0.000  -0.000  -0.077   0.181  -0.000   0.000   0.027  -0.000   0.000  -0.001
 -0.000   0.000  -0.005  -0.000   0.000   0.000  -0.000   0.076   0.000  -0.000   1.079  -0.174   0.000   0.001   0.000   0.000
 -0.000   0.000  -0.021   0.000   0.000  -0.000   0.000  -0.014   0.000   0.000  -0.174   0.070   0.000  -0.000  -0.000  -0.000
  0.000   0.000  -0.000  -0.001   0.008  -0.000   0.000  -0.000   0.006   0.027   0.000  -0.000   0.226   0.000  -0.000  -0.002
  0.000  -0.000   0.000   0.000  -0.000   0.000  -0.000   0.001  -0.000  -0.000   0.001  -0.000  -0.000   0.251  -0.000  -0.000
  0.008   0.001   0.000   0.000  -0.000   0.027  -0.006   0.000   0.000   0.000   0.000   0.000  -0.000   0.000   0.226  -0.000
  0.000   0.000   0.000  -0.000  -0.000   0.000  -0.000   0.000  -0.000  -0.001   0.000   0.000  -0.002   0.000  -0.000   0.000
  0.000   0.000   0.000   0.000  -0.000  -0.000   0.000  -0.000  -0.000   0.000  -0.000   0.000  -0.000  -0.004   0.000  -0.000
 -0.000   0.000  -0.000   0.000  -0.000  -0.001   0.000  -0.000  -0.000  -0.000   0.000   0.000   0.000  -0.000  -0.002  -0.000
 total augmentation occupancy for first ion, spin component:           2
  0.727  -0.307   0.000   0.000  -0.000  -0.168   0.064  -0.000  -0.000  -0.000  -0.000  -0.000   0.000  -0.000  -0.007  -0.000
 -0.307   0.403  -0.000  -0.000   0.000   0.059  -0.092   0.000  -0.000  -0.000   0.000   0.000  -0.000  -0.000   0.008   0.000
  0.000  -0.000   0.908  -0.000  -0.000  -0.000   0.000  -0.241   0.000   0.000  -0.044  -0.007   0.000  -0.000  -0.000  -0.000
  0.000  -0.000  -0.000   0.403   0.307  -0.000   0.000   0.000  -0.092  -0.059  -0.000  -0.000  -0.008   0.000  -0.000   0.000
 -0.000   0.000  -0.000   0.307   0.727   0.000  -0.000   0.000  -0.064  -0.168   0.000   0.000  -0.007   0.000  -0.000   0.001
 -0.168   0.059  -0.000  -0.000   0.000   0.009  -0.057   0.000   0.000  -0.000   0.000   0.000  -0.000   0.000  -0.001  -0.000
  0.064  -0.092   0.000   0.000  -0.000  -0.057  -0.052  -0.000   0.000   0.000  -0.000  -0.000  -0.000   0.000  -0.002   0.000
 -0.000   0.000  -0.241   0.000   0.000   0.000  -0.000   0.062  -0.000  -0.000   0.018   0.007   0.000   0.000  -0.000  -0.000
 -0.000  -0.000   0.000  -0.092  -0.064   0.000   0.000  -0.000  -0.052   0.057  -0.000   0.000   0.002  -0.000  -0.000  -0.000
 -0.000  -0.000   0.000  -0.059  -0.168  -0.000   0.000  -0.000   0.057   0.009  -0.000  -0.000  -0.001  -0.000   0.000   0.000
 -0.000   0.000  -0.044   0.000   0.000   0.000   0.000   0.018  -0.000  -0.000   0.159   0.066  -0.000   0.000  -0.000   0.000
 -0.000   0.000  -0.007   0.000   0.000   0.000   0.000   0.007   0.000  -0.000   0.066  -0.021  -0.000   0.000   0.000  -0.000
  0.000  -0.000   0.000  -0.008  -0.007  -0.000  -0.000   0.000   0.002  -0.001  -0.000   0.000   0.026  -0.000  -0.000   0.003
 -0.000   0.000  -0.000   0.000   0.000   0.000   0.000   0.000   0.000  -0.000   0.000   0.000  -0.000   0.022   0.000  -0.000
 -0.007   0.008  -0.000  -0.000  -0.000  -0.001  -0.002  -0.000  -0.000   0.000  -0.000   0.000  -0.000   0.000   0.026   0.000
 -0.000   0.000  -0.000   0.000   0.001  -0.000   0.000  -0.000  -0.000   0.000   0.000   0.000   0.003  -0.000   0.000  -0.000
  0.000  -0.000   0.000  -0.000  -0.000  -0.000  -0.000  -0.000  -0.000   0.000   0.000  -0.000  -0.000   0.003  -0.000   0.000
  0.001  -0.000   0.000   0.000   0.000   0.000   0.000   0.000   0.000   0.000  -0.000  -0.000  -0.000   0.000   0.003   0.000


------------------------ aborting loop because EDIFF is reached ----------------------------------------





 total charge     

# of ion       s       p       d       tot
------------------------------------------
    1        0.351   0.473   4.254   5.079
    2        0.351   0.473   4.254   5.079
    3        0.764   0.824   0.000   1.588
    4        0.764   0.824   0.000   1.588
    5        1.479   2.337   0.039   3.855
    6        1.475   2.343   0.039   3.857
    7        1.478   2.335   0.039   3.853
    8        1.479   2.337   0.039   3.855
    9        1.475   2.343   0.039   3.857
   10        1.478   2.335   0.039   3.853
--------------------------------------------------
tot         11.095  16.624   8.744  36.462



 magnetization (x)

# of ion       s       p       d       tot
------------------------------------------
    1        0.036   0.042   2.933   3.011
    2        0.036   0.042   2.933   3.011
    3        0.005   0.028   0.000   0.033
    4        0.005   0.028   0.000   0.033
    5       -0.000  -0.077   0.006  -0.071
    6       -0.002  -0.062   0.007  -0.057
    7       -0.001  -0.072   0.006  -0.066
    8       -0.000  -0.077   0.006  -0.071
    9       -0.002  -0.062   0.007  -0.057
   10       -0.001  -0.072   0.006  -0.066
--------------------------------------------------
tot          0.077  -0.280   5.904   5.700

    CHARGE:  cpu time    2.0800: real time    2.1042
    FORLOC:  cpu time    0.0960: real time    0.0977
    FORNL :  cpu time    6.0320: real time    6.0566
    STRESS:  cpu time   18.0720: real time   18.3200
    FORCOR:  cpu time   97.9920: real time   98.4729
    FORHAR:  cpu time    0.4240: real time    0.4219
    MIXING:  cpu time    0.0520: real time    0.0516
    OFIELD:  cpu time    0.0000: real time    0.0000

  FORCE on cell =-STRESS in cart. coord.  units (eV):
  Direction    XX          YY          ZZ          XY          YZ          ZX
  --------------------------------------------------------------------------------------
  Alpha Z    37.92313    37.92313    37.92313
  Ewald    8713.60048  8713.59844-10289.49532    -0.00112    -0.00039    -0.00070
  Hartree  9043.61210  9043.61248 -8884.42969    -0.00006     0.00004     0.00007
  E(xc)    -215.95055  -215.95054  -215.81368     0.00001     0.00000     0.00001
  Local  -18481.06678-18481.06629 18421.46647     0.00082     0.00017     0.00031
  n-local   307.96382   309.40429   313.99801     0.64110     0.43818     0.32593
  augment    22.95633    22.95637    19.76658     0.00007    -0.00004     0.00005
  Kinetic   573.11336   567.47270   596.76526    -4.10468     0.91431     0.86531
  Fock        0.00000     0.00000     0.00000     0.00000     0.00000     0.00000
  -------------------------------------------------------------------------------------
  Total       0.05124     0.05124     0.18075     0.00000     0.00000     0.00000
  in kB       0.11051     0.11051     0.38985     0.00000     0.00000     0.00000
  external pressure =        0.20 kB  Pullay stress =        0.00 kB


 VOLUME and BASIS-vectors are now :
 -----------------------------------------------------------------------------
  energy-cutoff  :      520.00
  volume of cell :      742.85
      direct lattice vectors                 reciprocal lattice vectors
     6.220565519  0.000000036 -0.000000000     0.160757089 -0.092813141  0.000000000
     3.110282377  5.387167527 -0.000000000    -0.000000001  0.185626305  0.000000000
    -0.000000000 -0.000000000 22.167323161     0.000000000  0.000000000  0.045111446

  length of vectors
     6.220565519  6.220565121 22.167323161     0.185626293  0.185626305  0.045111446


 FORCES acting on ions
    electron-ion (+dipol)            ewald-force                    non-local-force                 convergence-correction
 -----------------------------------------------------------------------------------------------
   -.133E-03 -.851E-04 0.718E+00   0.354E-03 0.210E-03 -.722E+00   0.694E-17 0.694E-17 -.137E-02   -.228E-06 -.131E-06 -.415E-04
   0.133E-03 0.851E-04 -.718E+00   -.354E-03 -.210E-03 0.722E+00   -.590E-22 -.147E-22 0.137E-02   0.228E-06 0.131E-06 0.415E-04
   -.391E-04 -.160E-04 0.199E+03   -.176E-03 -.980E-04 -.192E+03   0.315E-16 -.686E-17 -.694E+01   -.379E-07 0.104E-07 -.196E-01
   0.391E-04 0.160E-04 -.199E+03   0.176E-03 0.980E-04 0.192E+03   -.246E-16 0.686E-17 0.694E+01   0.379E-07 -.104E-07 0.196E-01
   -.513E+01 0.196E+00 -.424E+03   0.348E+01 -.197E+00 0.426E+03   0.234E+01 -.104E-01 -.209E+01   0.534E-02 -.261E-04 0.481E-01
   0.273E+01 0.434E+01 -.424E+03   -.191E+01 -.292E+01 0.426E+03   -.118E+01 -.202E+01 -.209E+01   -.269E-02 -.461E-02 0.481E-01
   0.239E+01 -.454E+01 -.424E+03   -.157E+01 0.311E+01 0.426E+03   -.116E+01 0.203E+01 -.209E+01   -.265E-02 0.464E-02 0.481E-01
   0.513E+01 -.196E+00 0.424E+03   -.348E+01 0.197E+00 -.426E+03   -.234E+01 0.104E-01 0.209E+01   -.534E-02 0.261E-04 -.481E-01
   -.273E+01 -.434E+01 0.424E+03   0.191E+01 0.292E+01 -.426E+03   0.118E+01 0.202E+01 0.209E+01   0.269E-02 0.461E-02 -.481E-01
   -.239E+01 0.454E+01 0.424E+03   0.157E+01 -.311E+01 -.426E+03   0.116E+01 -.203E+01 0.209E+01   0.265E-02 -.464E-02 -.481E-01
 -----------------------------------------------------------------------------------------------
   -.333E-10 -.218E-09 0.429E-10   -.124E-13 0.355E-14 0.000E+00   0.000E+00 0.444E-15 -.888E-15   0.166E-13 0.640E-14 0.174E-10


 POSITION                                       TOTAL-FORCE (eV/Angst)
 -----------------------------------------------------------------------------------
      3.11028      1.79572     11.08220        -0.000000     -0.000000     -0.005930
      6.22057      3.59145     11.08512        -0.000000     -0.000000      0.005930
     -0.00000     -0.00000      9.93575        -0.000000     -0.000000      0.284103
     -0.00000     -0.00000     12.23157        -0.000000      0.000000     -0.284103
      3.89760      0.00226     12.71855         0.697158     -0.010515      0.070869
      1.16344      2.01062     12.71855        -0.357685     -0.598499      0.070869
      4.26981      3.37429     12.71855        -0.339473      0.609014      0.070869
      5.43325      5.38490      9.44878        -0.697158      0.010515     -0.070869
      8.16740      3.37655      9.44878         0.357685      0.598499     -0.070869
      5.06104      2.01288      9.44878         0.339473     -0.609014     -0.070869
 -----------------------------------------------------------------------------------
    total drift:                               -0.000000     -0.000000      0.000000


--------------------------------------------------------------------------------------------------------



  FREE ENERGIE OF THE ION-ELECTRON SYSTEM (eV)
  ---------------------------------------------------
  free  energy   TOTEN  =       -50.15476003 eV

  energy  without entropy=      -50.15476003  energy(sigma->0) =      -50.15476003

 d Force = 0.2685925E-06[ 0.264E-06, 0.273E-06]  d Energy = 0.4920728E-01-0.492E-01
 d Force = 0.3234779E-04[ 0.321E-04, 0.325E-04]  d Ewald  = 0.1376436E+03-0.138E+03


--------------------------------------------------------------------------------------------------------


    POTLOK:  cpu time  103.3880: real time  103.9704


--------------------------------------------------------------------------------------------------------




--------------------------------------------------------------------------------------------------------


  
 reached required accuracy - stopping structural energy minimisation
     LOOP+:  cpu time 1151.6640: real time 1160.0317
    4ORBIT:  cpu time    0.0000: real time    0.0000



 total charge     

# of ion       s       p       d       tot
------------------------------------------
    1        0.351   0.473   4.254   5.079
    2        0.351   0.473   4.254   5.079
    3        0.764   0.824   0.000   1.588
    4        0.764   0.824   0.000   1.588
    5        1.479   2.337   0.039   3.855
    6        1.475   2.343   0.039   3.857
    7        1.478   2.335   0.039   3.853
    8        1.479   2.337   0.039   3.855
    9        1.475   2.343   0.039   3.857
   10        1.478   2.335   0.039   3.853
--------------------------------------------------
tot         11.095  16.624   8.744  36.462



 magnetization (x)

# of ion       s       p       d       tot
------------------------------------------
    1        0.036   0.042   2.933   3.011
    2        0.036   0.042   2.933   3.011
    3        0.005   0.028   0.000   0.033
    4        0.005   0.028   0.000   0.033
    5       -0.000  -0.077   0.006  -0.071
    6       -0.002  -0.062   0.007  -0.057
    7       -0.001  -0.072   0.006  -0.066
    8       -0.000  -0.077   0.006  -0.071
    9       -0.002  -0.062   0.007  -0.057
   10       -0.001  -0.072   0.006  -0.066
--------------------------------------------------
tot          0.077  -0.280   5.904   5.700

 BZINTS: Fermi energy: -2.940472; 56.000000 electrons
         Band energy:-440.282611;  BLOECHL correction:  0.000000

 total amount of memory used by VASP MPI-rank0   171280. kBytes
=======================================================================

   base      :      30000. kBytes
   nonlr-proj:       9480. kBytes
   fftplans  :      20284. kBytes
   grid      :      90201. kBytes
   one-center:        311. kBytes
   wavefun   :      21004. kBytes

  
  
 General timing and accounting informations for this job:
 ========================================================
  
                  Total CPU time used (sec):     6286.796
                            User time (sec):     6263.028
                          System time (sec):       23.768
                         Elapsed time (sec):     6335.269
  
                   Maximum memory used (kb):      588772.
                   Average memory used (kb):           0.
  
                          Minor page faults:      5736106
                          Major page faults:            7
                 Voluntary context switches:          802
