 vasp.5.4.4.18Apr17-6-g9f103f2a35 (build May  1 2020 15:48:39) complex           
 executed on             LinuxGNU date 2020.07.06  05:26:19
 running on   16 total cores
 distrk:  each k-point on   16 cores,    1 groups
 distr:  one band on NCORES_PER_BAND=   1 cores,   16 groups


--------------------------------------------------------------------------------------------------------


 INCAR:
 POTCAR:   PAW_PBE Fe 06Sep2000                   
 POTCAR:    PAW_PBE P 17Jan2003                   
 POTCAR:   PAW_PBE Se 06Sep2000                   

 ----------------------------------------------------------------------------- 
|                                                                             |
|           W    W    AA    RRRRR   N    N  II  N    N   GGGG   !!!           |
|           W    W   A  A   R    R  NN   N  II  NN   N  G    G  !!!           |
|           W    W  A    A  R    R  N N  N  II  N N  N  G       !!!           |
|           W WW W  AAAAAA  RRRRR   N  N N  II  N  N N  G  GGG   !            |
|           WW  WW  A    A  R   R   N   NN  II  N   NN  G    G                |
|           W    W  A    A  R    R  N    N  II  N    N   GGGG   !!!           |
|                                                                             |
|      For optimal performance we recommend to set                            |
|        NCORE= 4 - approx SQRT( number of cores)                             |
|      NCORE specifies how many cores store one orbital (NPAR=cpu/NCORE).     |
|      This setting can  greatly improve the performance of VASP for DFT.     |
|      The default,   NCORE=1            might be grossly inefficient         |
|      on modern multi-core architectures or massively parallel machines.     |
|      Do your own testing !!!!                                               |
|      Unfortunately you need to use the default for GW and RPA calculations. |
|      (for HF NCORE is supported but not extensively tested yet)             |
|                                                                             |
 ----------------------------------------------------------------------------- 


 ----------------------------------------------------------------------------- 
|                                                                             |
|  ADVICE TO THIS USER RUNNING 'VASP/VAMP'   (HEAR YOUR MASTER'S VOICE ...):  |
|                                                                             |
|      You have switched on vdW-DFT.                                          |
|      This routine was written and supplied by Jiri Klimes.                  |
|      We recommed that you carefully read and cite the following             |
|      publication                                                            |
|      J. Klimes, D.R. Bowler, A. Michelides                                  |
|        J. Phys.: Cond Matt. 22 022201 (2010)                                |
|      J. Klimes, D.R. Bowler, A. Michelides                                  |
|        Phys. Rev. B. 83, 195131 (2011)                                      |
|      and references therein.                                                |
|                                                                             |
 ----------------------------------------------------------------------------- 

 POTCAR:   PAW_PBE Fe 06Sep2000                   
   VRHFIN =Fe:  d7 s1                                                           
   LEXCH  = PE                                                                  
   EATOM  =   594.4687 eV,   43.6922 Ry                                         
                                                                                
   TITEL  = PAW_PBE Fe 06Sep2000                                                
   LULTRA =        F    use ultrasoft PP ?                                      
   IUNSCR =        1    unscreen: 0-lin 1-nonlin 2-no                           
   RPACOR =    2.000    partial core radius                                     
   POMASS =   55.847; ZVAL   =    8.000    mass and valenz                      
   RCORE  =    2.300    outmost cutoff radius                                   
   RWIGS  =    2.460; RWIGS  =    1.302    wigner-seitz radius (au A)           
   ENMAX  =  267.883; ENMIN  =  200.912 eV                                      
   RCLOC  =    1.701    cutoff for local pot                                    
   LCOR   =        T    correct aug charges                                     
   LPAW   =        T    paw PP                                                  
   EAUG   =  511.368                                                            
   DEXC   =    -.022                                                            
   RMAX   =    2.817    core radius for proj-oper                               
   RAUG   =    1.300    factor for augmentation sphere                          
   RDEP   =    2.442    radius for radial grids                                 
   QCUT   =   -4.437; QGAM   =    8.874    optimization parameters              
                                                                                
   Description                                                                  
     l     E      TYP  RCUT    TYP  RCUT                                        
     2   .000     23  2.300                                                     
     2   .000     23  2.300                                                     
     0   .000     23  2.300                                                     
     0   .000     23  2.300                                                     
     1  -.200     23  2.300                                                     
     1   .000     23  2.300                                                     
     3   .000      7   .000                                                     
  local pseudopotential read in
  partial core-charges read in
  atomic valenz-charges read in
  non local Contribution for L=           2  read in
    real space projection operators read in
  non local Contribution for L=           2  read in
    real space projection operators read in
  non local Contribution for L=           0  read in
    real space projection operators read in
  non local Contribution for L=           0  read in
    real space projection operators read in
  non local Contribution for L=           1  read in
    real space projection operators read in
  non local Contribution for L=           1  read in
    real space projection operators read in
    PAW grid and wavefunctions read in

   number of l-projection  operators is LMAX  =           6
   number of lm-projection operators is LMMAX =          18

 POTCAR:    PAW_PBE P 17Jan2003                   
   VRHFIN =P : s2p3                                                             
   LEXCH  = PE                                                                  
   EATOM  =   176.0430 eV,   12.9388 Ry                                         
                                                                                
   TITEL  = PAW_PBE P 17Jan2003                                                 
   LULTRA =        F    use ultrasoft PP ?                                      
   IUNSCR =        1    unscreen: 0-lin 1-nonlin 2-no                           
   RPACOR =    1.500    partial core radius                                     
   POMASS =   30.974; ZVAL   =    5.000    mass and valenz                      
   RCORE  =    1.900    outmost cutoff radius                                   
   RWIGS  =    2.330; RWIGS  =    1.233    wigner-seitz radius (au A)           
   ENMAX  =  270.000; ENMIN  =  191.280 eV                                      
   ICORE  =        2    local potential                                         
   LCOR   =        T    correct aug charges                                     
   LPAW   =        T    paw PP                                                  
   EAUG   =  342.924                                                            
   DEXC   =    -.002                                                            
   RMAX   =    2.887    core radius for proj-oper                               
   RAUG   =    1.300    factor for augmentation sphere                          
   RDEP   =    1.931    radius for radial grids                                 
   QCUT   =   -4.330; QGAM   =    8.659    optimization parameters              
                                                                                
   Description                                                                  
     l     E      TYP  RCUT    TYP  RCUT                                        
     0   .000     23  1.900                                                     
     0   .000     23  1.900                                                     
     1   .000     23  1.900                                                     
     1   .000     23  1.900                                                     
     2   .000     23  1.900                                                     
  local pseudopotential read in
  partial core-charges read in
  atomic valenz-charges read in
  non local Contribution for L=           0  read in
    real space projection operators read in
  non local Contribution for L=           0  read in
    real space projection operators read in
  non local Contribution for L=           1  read in
    real space projection operators read in
  non local Contribution for L=           1  read in
    real space projection operators read in
    PAW grid and wavefunctions read in

   number of l-projection  operators is LMAX  =           4
   number of lm-projection operators is LMMAX =           8

 POTCAR:   PAW_PBE Se 06Sep2000                   
   VRHFIN =Se: s2p4                                                             
   LEXCH  = PE                                                                  
   EATOM  =   256.9644 eV,   18.8864 Ry                                         
                                                                                
   TITEL  = PAW_PBE Se 06Sep2000                                                
   LULTRA =        F    use ultrasoft PP ?                                      
   IUNSCR =        1    unscreen: 0-lin 1-nonlin 2-no                           
   RPACOR =    1.900    partial core radius                                     
   POMASS =   78.960; ZVAL   =    6.000    mass and valenz                      
   RCORE  =    2.100    outmost cutoff radius                                   
   RWIGS  =    2.200; RWIGS  =    1.164    wigner-seitz radius (au A)           
   ENMAX  =  211.534; ENMIN  =  158.651 eV                                      
   ICORE  =        3    local potential                                         
   LCOR   =        T    correct aug charges                                     
   LPAW   =        T    paw PP                                                  
   EAUG   =  446.842                                                            
   DEXC   =    -.031                                                            
   RMAX   =    3.170    core radius for proj-oper                               
   RAUG   =    1.300    factor for augmentation sphere                          
   RDEP   =    2.177    radius for radial grids                                 
   QCUT   =   -3.943; QGAM   =    7.886    optimization parameters              
                                                                                
   Description                                                                  
     l     E      TYP  RCUT    TYP  RCUT                                        
     0   .000     23  2.100                                                     
     0   .000     23  2.100                                                     
     1   .000     23  2.100                                                     
     1   .000     23  2.100                                                     
     2   .000     23  2.100                                                     
     3  -.100      7  2.100                                                     
  local pseudopotential read in
  partial core-charges read in
  atomic valenz-charges read in
  non local Contribution for L=           0  read in
    real space projection operators read in
  non local Contribution for L=           0  read in
    real space projection operators read in
  non local Contribution for L=           1  read in
    real space projection operators read in
  non local Contribution for L=           1  read in
    real space projection operators read in
  non local Contribution for L=           2  read in
    real space projection operators read in
    PAW grid and wavefunctions read in

   number of l-projection  operators is LMAX  =           5
   number of lm-projection operators is LMMAX =          13

 Optimization of the real space projectors (new method)

 maximal supplied QI-value         = 16.25
 optimisation between [QCUT,QGAM] = [ 11.54, 23.24] = [ 37.28,151.24] Ry 
 Optimized for a Real-space Cutoff    1.53 Angstroem

   l    n(q)    QCUT    max X(q) W(low)/X(q) W(high)/X(q)  e(spline) 
   2     10    11.539     4.378    0.86E-05    0.15E-04    0.46E-07
   2     10    11.539    23.237    0.11E-03    0.14E-03    0.22E-06
   0     11    11.539    17.641    0.19E-04    0.14E-05    0.18E-07
   0     11    11.539    50.908    0.43E-04    0.16E-04    0.30E-06
   1     10    11.539     6.148    0.11E-04    0.38E-05    0.26E-07
   1     10    11.539     8.345    0.44E-04    0.25E-04    0.11E-06
 Optimization of the real space projectors (new method)

 maximal supplied QI-value         = 19.84
 optimisation between [QCUT,QGAM] = [ 11.51, 23.22] = [ 37.09,150.92] Ry 
 Optimized for a Real-space Cutoff    1.21 Angstroem

   l    n(q)    QCUT    max X(q) W(low)/X(q) W(high)/X(q)  e(spline) 
   0      8    11.508     6.651    0.19E-04    0.31E-05    0.49E-08
   0      8    11.508    90.285    0.95E-04    0.17E-03    0.51E-07
   1      8    11.508     4.328    0.14E-04    0.32E-04    0.22E-07
   1      8    11.508    54.583    0.16E-03    0.71E-04    0.89E-07
 Optimization of the real space projectors (new method)

 maximal supplied QI-value         = 17.95
 optimisation between [QCUT,QGAM] = [ 11.67, 23.34] = [ 38.13,152.52] Ry 
 Optimized for a Real-space Cutoff    1.25 Angstroem

   l    n(q)    QCUT    max X(q) W(low)/X(q) W(high)/X(q)  e(spline) 
   0      9    11.669     6.499    0.13E-04    0.81E-05    0.11E-07
   0      9    11.669    52.623    0.18E-03    0.46E-04    0.72E-07
   1      8    11.669     4.229    0.40E-04    0.45E-04    0.31E-07
   1      8    11.669    29.991    0.22E-03    0.36E-03    0.10E-06
   2      8    11.669     3.719    0.19E-03    0.46E-04    0.50E-07

 ----------------------------------------------------------------------------- 
|                                                                             |
|  ADVICE TO THIS USER RUNNING 'VASP/VAMP'   (HEAR YOUR MASTER'S VOICE ...):  |
|                                                                             |
|      You enforced a specific xc-type in the INCAR file,                     |
|      a different type was found on the POTCAR file                          |
|          I HOPE YOU KNOW, WHAT YOU ARE  DOING                               |
|                                                                             |
 ----------------------------------------------------------------------------- 

 PAW_PBE Fe 06Sep2000                   :
 energy of atom  1       EATOM= -594.4687
 kinetic energy error for atom=    0.0026 (will be added to EATOM!!)
  PAW_PBE P 17Jan2003                   :
 energy of atom  2       EATOM= -176.0430
 kinetic energy error for atom=    0.0011 (will be added to EATOM!!)
 PAW_PBE Se 06Sep2000                   :
 energy of atom  3       EATOM= -256.9644
 kinetic energy error for atom=    0.0007 (will be added to EATOM!!)


 POSCAR: Fe2 P2 Se6                              
  positions in direct lattice
  velocities in cartesian coordinates
  No initial velocities read in
 exchange correlation table for  LEXCH =       42
   RHO(1)=    0.500       N(1)  =     2000
   RHO(2)=  100.500       N(2)  =     4000



--------------------------------------------------------------------------------------------------------


 ion  position               nearest neighbor table
   1  0.333  0.333  0.500-   6 2.78   5 2.78   7 2.78   8 2.78  10 2.78   9 2.78
   2  0.667  0.667  0.500-   9 2.78   8 2.78  10 2.78   5 2.78   7 2.78   6 2.78
   3  0.000  0.000  0.448-   4 2.43   8 2.63  10 2.63   9 2.63
   4  0.000  0.000  0.552-   3 2.43   5 2.63   7 2.63   6 2.63
   5  0.626  0.000  0.574-   4 2.63   1 2.78   2 2.78
   6  0.000  0.373  0.574-   4 2.63   1 2.78   2 2.78
   7  0.373  0.626  0.574-   4 2.63   1 2.78   2 2.78
   8  0.374  1.000  0.426-   3 2.63   2 2.78   1 2.78
   9  1.000  0.627  0.426-   3 2.63   2 2.78   1 2.78
  10  0.627  0.374  0.426-   3 2.63   2 2.78   1 2.78

  LATTYP: Found a hexagonal cell.
 ALAT       =     6.9077769333
 C/A-ratio  =     3.3939410937
  
  Lattice vectors:
  
 A1 = (   3.4538890000,  -5.9823100000,   0.0000000000)
 A2 = (  -6.9077770000,   0.0000000000,   0.0000000000)
 A3 = (   0.0000000000,   0.0000000000, -23.4445880000)


Analysis of symmetry for initial positions (statically):
=====================================================================
 Subroutine PRICEL returns:
 Original cell was already a primitive cell.
 

 Routine SETGRP: Setting up the symmetry group for a 
 hexagonal supercell.


 Subroutine GETGRP returns: Found  6 space group operations
 (whereof  6 operations were pure point group operations)
 out of a pool of 24 trial point group operations.


The static configuration has the point symmetry S_6 .


Analysis of symmetry for dynamics (positions and initial velocities):
=====================================================================
 Subroutine PRICEL returns:
 Original cell was already a primitive cell.
 

 Routine SETGRP: Setting up the symmetry group for a 
 hexagonal supercell.


 Subroutine GETGRP returns: Found  6 space group operations
 (whereof  6 operations were pure point group operations)
 out of a pool of 24 trial point group operations.


The dynamic configuration has the point symmetry S_6 .


Analysis of constrained symmetry for selective dynamics:
=====================================================================
 Subroutine PRICEL returns:
 Original cell was already a primitive cell.
 

 Routine SETGRP: Setting up the symmetry group for a 
 hexagonal supercell.


 Subroutine GETGRP returns: Found  6 space group operations
 (whereof  6 operations were pure point group operations)
 out of a pool of 24 trial point group operations.


The constrained configuration has the point symmetry S_6 .


Analysis of structural, dynamic, and magnetic symmetry:
=====================================================================
 Subroutine PRICEL returns:
 Original cell was already a primitive cell.
 

 Routine SETGRP: Setting up the symmetry group for a 
 hexagonal supercell.


 Subroutine GETGRP returns: Found  6 space group operations
 (whereof  6 operations were pure point group operations)
 out of a pool of 24 trial point group operations.


The magnetic configuration has the point symmetry S_6 .


 Subroutine INISYM returns: Found  6 space group operations
 (whereof  6 operations are pure point group operations),
 and found     1 'primitive' translations



 KPOINTS: Kpoints from vasprun.xml                

Automatic generation of k-mesh.
Space group operators:
 irot       det(A)        alpha          n_x          n_y          n_z        tau_x        tau_y        tau_z
    1     1.000000     0.000000     1.000000     0.000000     0.000000     0.000000     0.000000     0.000000
    2    -1.000000     0.000000     1.000000     0.000000     0.000000     0.000000     0.000000     0.000000
    3     1.000000   120.000000     0.000000     0.000000     1.000000     0.000000     0.000000     0.000000
    4    -1.000000   120.000000     0.000000     0.000000     1.000000     0.000000     0.000000     0.000000
    5     1.000000   120.000000     0.000000     0.000000    -1.000000     0.000000     0.000000     0.000000
    6    -1.000000   120.000000     0.000000     0.000000    -1.000000     0.000000     0.000000     0.000000
 
 Subroutine IBZKPT returns following result:
 ===========================================
 
 Found      5 irreducible k-points:
 
 Following reciprocal coordinates:
            Coordinates               Weight
  0.000000  0.000000  0.000000      1.000000
  0.200000  0.000000  0.000000      6.000000
  0.400000  0.000000  0.000000      6.000000
  0.400000  0.200000  0.000000      6.000000
 -0.400000  0.200000  0.000000      6.000000
 
 Following cartesian coordinates:
            Coordinates               Weight
  0.000000  0.000000  0.000000      1.000000
  0.028953 -0.016716  0.000000      6.000000
  0.057906 -0.033432  0.000000      6.000000
  0.057906  0.000000  0.000000      6.000000
 -0.057906  0.066864  0.000000      6.000000
 
 TETIRR: Found     15 inequivalent tetrahedra from      150


--------------------------------------------------------------------------------------------------------




 Dimension of arrays:
   k-points           NKPTS =      5   k-points in BZ     NKDIM =      5   number of bands    NBANDS=     48
   number of dos      NEDOS =    301   number of ions     NIONS =     10
   non local maximal  LDIM  =      6   non local SUM 2l+1 LMDIM =     18
   total plane-waves  NPLWV = 524880
   max r-space proj   IRMAX =   8238   max aug-charges    IRDMAX=  23823
   dimension x,y,z NGX =    54 NGY =   54 NGZ =  180
   dimension x,y,z NGXF=   108 NGYF=  108 NGZF=  360
   support grid    NGXF=   108 NGYF=  108 NGZF=  360
   ions per type =               2   2   6
   NGX,Y,Z   is equivalent  to a cutoff of  13.00, 13.00, 12.76 a.u.
   NGXF,Y,Z  is equivalent  to a cutoff of  25.99, 25.99, 25.53 a.u.

 SYSTEM =  unknown system                          
 POSCAR =  Fe2 P2 Se6                              

 Startparameter for this run:
   NWRITE =      2    write-flag & timer
   PREC   = accura    normal or accurate (medium, high low for compatibility)
   ISTART =      0    job   : 0-new  1-cont  2-samecut
   ICHARG =      2    charge: 1-file 2-atom 10-const
   ISPIN  =      2    spin polarized calculation?
   LNONCOLLINEAR =      F non collinear calculations
   LSORBIT =      F    spin-orbit coupling
   INIWAV =      1    electr: 0-lowe 1-rand  2-diag
   LASPH  =      F    aspherical Exc in radial PAW
   METAGGA=      F    non-selfconsistent MetaGGA calc.

 Electronic Relaxation 1
   ENCUT  =  520.0 eV  38.22 Ry    6.18 a.u.  12.84 12.84 43.59*2*pi/ulx,y,z
   ENINI  =  520.0     initial cutoff
   ENAUG  =  511.4 eV  augmentation charge cutoff
   NELM   =    400;   NELMIN=  2; NELMDL=  0     # of ELM steps 
   EDIFF  = 0.1E-03   stopping-criterion for ELM
   LREAL  =      T    real-space projection
   NLSPLINE    = F    spline interpolate recip. space projectors
   LCOMPAT=      F    compatible to vasp.4.4
   GGA_COMPAT  = T    GGA compatible to vasp.4.4-vasp.4.6
   LMAXPAW     = -100 max onsite density
   LMAXMIX     =    2 max onsite mixed and CHGCAR
   VOSKOWN=      0    Vosko Wilk Nusair interpolation
   ROPT   =   -0.00025  -0.00025  -0.00025
 Ionic relaxation
   EDIFFG = 0.1E-02   stopping-criterion for IOM
   NSW    =     99    number of steps for IOM
   NBLOCK =      1;   KBLOCK =     99    inner block; outer block 
   IBRION =      2    ionic relax: 0-MD 1-quasi-New 2-CG
   NFREE  =      1    steps in history (QN), initial steepest desc. (CG)
   ISIF   =      3    stress and relaxation
   IWAVPR =     11    prediction:  0-non 1-charg 2-wave 3-comb
   ISYM   =      2    0-nonsym 1-usesym 2-fastsym
   LCORR  =      T    Harris-Foulkes like correction to forces

   POTIM  = 0.5000    time-step for ionic-motion
   TEIN   =    0.0    initial temperature
   TEBEG  =    0.0;   TEEND  =   0.0 temperature during run
   SMASS  =  -3.00    Nose mass-parameter (am)
   estimated Nose-frequenzy (Omega)   =  0.10E-29 period in steps =****** mass=  -0.109E-26a.u.
   SCALEE = 1.0000    scale energy and forces
   NPACO  =    256;   APACO  = 16.0  distance and # of slots for P.C.
   PSTRESS=    0.0 pullay stress

  Mass of Ions in am
   POMASS =  55.85 30.97 78.96
  Ionic Valenz
   ZVAL   =   8.00  5.00  6.00
  Atomic Wigner-Seitz radii
   RWIGS  =  -1.00 -1.00 -1.00
  virtual crystal weights 
   VCA    =   1.00  1.00  1.00
   NELECT =      62.0000    total number of electrons
   NUPDOWN=      -1.0000    fix difference up-down

 DOS related values:
   EMIN   =  10.00;   EMAX   =-10.00  energy-range for DOS
   EFERMI =   0.00
   ISMEAR =    -5;   SIGMA  =   0.05  broadening in eV -4-tet -1-fermi 0-gaus

 Electronic relaxation 2 (details)
   IALGO  =     38    algorithm
   LDIAG  =      T    sub-space diagonalisation (order eigenvalues)
   LSUBROT=      F    optimize rotation matrix (better conditioning)
   TURBO    =      0    0=normal 1=particle mesh
   IRESTART =      0    0=no restart 2=restart with 2 vectors
   NREBOOT  =      0    no. of reboots
   NMIN     =      0    reboot dimension
   EREF     =   0.00    reference energy to select bands
   IMIX   =      4    mixing-type and parameters
     AMIX     =   0.40;   BMIX     =  1.00
     AMIX_MAG =   1.60;   BMIX_MAG =  1.00
     AMIN     =   0.01
     WC   =   100.;   INIMIX=   1;  MIXPRE=   1;  MAXMIX= -45

 Intra band minimization:
   WEIMIN = 0.0010     energy-eigenvalue tresh-hold
   EBREAK =  0.52E-06  absolut break condition
   DEPER  =   0.30     relativ break condition  

   TIME   =   0.40     timestep for ELM

  volume/ion in A,a.u.               =      96.88       653.80
  Fermi-wavevector in a.u.,A,eV,Ry     =   0.654820  1.237431  5.834037  0.428790
  Thomas-Fermi vector in A             =   1.725500

 Write flags
   LWAVE        =      F    write WAVECAR
   LDOWNSAMPLE  =      F    k-point downsampling of WAVECAR
   LCHARG       =      T    write CHGCAR
   LVTOT        =      F    write LOCPOT, total local potential
   LVHAR        =      F    write LOCPOT, Hartree potential only
   LELF         =      F    write electronic localiz. function (ELF)
   LORBIT       =     11    0 simple, 1 ext, 2 COOP (PROOUT), +10 PAW based schemes


 Dipole corrections
   LMONO  =      F    monopole corrections only (constant potential shift)
   LDIPOL =      F    correct potential (dipole corrections)
   IDIPOL =      0    1-x, 2-y, 3-z, 4-all directions 
   EPSILON=  1.0000000 bulk dielectric constant

 Exchange correlation treatment:
   GGA     =    BO    GGA type
   LEXCH   =    42    internal setting for exchange type
   VOSKOWN=      0    Vosko Wilk Nusair interpolation
   LHFCALC =     F    Hartree Fock is set to
   LHFONE  =     F    Hartree Fock one center treatment
   AEXX    =    0.0000 exact exchange contribution

 vdW DFT:
   LUSE_VDW   =     T    switch on vdW DFT
   Zab_VDW    =-.8491    correlation parameter
   PARAM1     =0.1833
   PARAM2     =0.2200
   PARAM3     =0.0000
   -- rVV10 --
   BPARAM     = 6.3000
   CPARAM     = 0.0093

 Linear response parameters
   LEPSILON=     F    determine dielectric tensor
   LRPA    =     F    only Hartree local field effects (RPA)
   LNABLA  =     F    use nabla operator in PAW spheres
   LVEL    =     F    velocity operator in full k-point grid
   LINTERFAST=   F  fast interpolation
   KINTER  =     0    interpolate to denser k-point grid
   CSHIFT  =0.1000    complex shift for real part using Kramers Kronig
   OMEGAMAX=  -1.0    maximum frequency
   DEG_THRESHOLD= 0.2000000E-02 threshold for treating states as degnerate
   RTIME   =   -0.100 relaxation time in fs
  (WPLASMAI=    0.000 imaginary part of plasma frequency in eV, 0.658/RTIME)
   DFIELD  = 0.0000000 0.0000000 0.0000000 field for delta impulse in time

 Orbital magnetization related:
   ORBITALMAG=     F  switch on orbital magnetization
   LCHIMAG   =     F  perturbation theory with respect to B field
   DQ        =  0.001000  dq finite difference perturbation B field
   LLRAUG    =     F  two centre corrections for induced B field



--------------------------------------------------------------------------------------------------------


 conjugate gradient relaxation of ions
   using selective dynamics as specified on POSCAR
 charge density and potential will be updated during run
 spin polarized calculation
 Variant of blocked Davidson
 Davidson routine will perform the subspace rotation
 perform sub-space diagonalisation
    after iterative eigenvector-optimisation
 modified Broyden-mixing scheme, WC =      100.0
 initial mixing is a Kerker type mixing with AMIX =  0.4000 and BMIX =      1.0000
 Hartree-type preconditioning will be used
 using additional bands           17
 real space projection scheme for non local part
 use partial core corrections
 calculate Harris-corrections to forces   (improved forces if not selfconsistent)
 use gradient corrections 
 use of overlap-Matrix (Vanderbilt PP)
 Fermi weights with tetrahedron method with Bloechl corrections


--------------------------------------------------------------------------------------------------------


  energy-cutoff  :      520.00
  volume of cell :      968.84
      direct lattice vectors                 reciprocal lattice vectors
     6.907777000 -0.000000000  0.000000000     0.144764372 -0.083579742  0.000000000
     3.453888000  5.982310000  0.000000000     0.000000000  0.167159509 -0.000000000
     0.000000000  0.000000000 23.444588000    -0.000000000  0.000000000  0.042653767

  length of vectors
     6.907777000  6.907776433 23.444588000     0.167159495  0.167159509  0.042653767



 k-points in units of 2pi/SCALE and weight: Kpoints from vasprun.xml                
   0.00000000  0.00000000  0.00000000       0.040
   0.02895287 -0.01671595  0.00000000       0.240
   0.05790575 -0.03343190  0.00000000       0.240
   0.05790575  0.00000000  0.00000000       0.240
  -0.05790575  0.06686380  0.00000000       0.240

 k-points in reciprocal lattice and weights: Kpoints from vasprun.xml                
   0.00000000  0.00000000  0.00000000       0.040
   0.20000000  0.00000000  0.00000000       0.240
   0.40000000  0.00000000  0.00000000       0.240
   0.40000000  0.20000000  0.00000000       0.240
  -0.40000000  0.20000000  0.00000000       0.240

 position of ions in fractional coordinates (direct lattice) 
   0.33333300  0.33333300  0.49992500
   0.66666700  0.66666700  0.50007500
   0.00000000  0.00000000  0.44821600
   0.00000000  0.00000000  0.55178400
   0.62635700  0.00042000  0.57375200
   0.00042000  0.37322400  0.57375200
   0.37322400  0.62635700  0.57375200
   0.37364300  0.99958000  0.42624800
   0.99958000  0.62677600  0.42624800
   0.62677600  0.37364300  0.42624800

 position of ions in cartesian coordinates  (Angst):
   3.45388488  1.99410134 11.72053566
   6.90778012  3.98820866 11.72405234
   0.00000000  0.00000000 10.50823946
   0.00000000  0.00000000 12.93634854
   4.32818511  0.00251257 13.45137925
   1.29197516  2.23274167 13.45137925
   4.74151509  3.74706174 13.45137925
   6.03347989  5.97979743  9.99320875
   9.06968984  3.74956833  9.99320875
   5.62014991  2.23524826  9.99320875



--------------------------------------------------------------------------------------------------------


 k-point  1 :   0.0000 0.0000 0.0000  plane waves:   26073
 k-point  2 :   0.2000 0.0000 0.0000  plane waves:   26070
 k-point  3 :   0.4000 0.0000 0.0000  plane waves:   26086
 k-point  4 :   0.4000 0.2000 0.0000  plane waves:   26085
 k-point  5 :  -0.4000 0.2000 0.0000  plane waves:   26115

 maximum and minimum number of plane-waves per node :     26115    26070

 maximum number of plane-waves:     26115
 maximum index in each direction: 
   IXMAX=   13   IYMAX=   12   IZMAX=   43
   IXMIN=  -13   IYMIN=  -13   IZMIN=  -43


 serial   3D FFT for wavefunctions
 parallel 3D FFT for charge:
    minimum data exchange during FFTs selected (reduces bandwidth)


 total amount of memory used by VASP MPI-rank0   127696. kBytes
=======================================================================

   base      :      30000. kBytes
   nonlr-proj:       7386. kBytes
   fftplans  :      11247. kBytes
   grid      :      66142. kBytes
   one-center:        311. kBytes
   wavefun   :      12610. kBytes

     INWAV:  cpu time    0.0000: real time    0.0004
 Broyden mixing: mesh for mixing (old mesh)
   NGX = 25   NGY = 25   NGZ = 87
  (NGX  =108   NGY  =108   NGZ  =360)
  gives a total of  54375 points

 initial charge density was supplied:
 charge density of overlapping atoms calculated
 number of electron      62.0000000 magnetization       7.2600000
 keeping initial charge density in first step


--------------------------------------------------------------------------------------------------------


 Maximum index for non-local projection operator         7925
 Maximum index for augmentation-charges         1715 (set IRDMAX)


--------------------------------------------------------------------------------------------------------


 First call to EWALD:  gamma=   0.179
 Maximum number of real-space cells 4x 4x 1
 Maximum number of reciprocal cells 2x 2x 6

    FEWALD:  cpu time    0.0000: real time    0.0014


--------------------------------------- Iteration      1(   1)  ---------------------------------------


vdW kernel read from vdw_kernel.bindat
  0.0000  0.2424  0.5071  0.7962  1.1119  1.4567  1.8333  2.2446  2.6937  3.1842
  3.7199  4.3049  4.9438  5.6415  6.4036  7.2358  8.1446  9.1372 10.2212 11.4050
 12.6979 14.1099 15.6519 17.3360 19.1751 21.1837 23.3773 25.7729 28.3892 31.2465
 34.3669 37.7748 41.4965 45.5611 50.0000

    POTLOK:  cpu time   52.8480: real time   53.1265
    SETDIJ:  cpu time    0.0400: real time    0.0463
     EDDAV:  cpu time   22.8440: real time   22.9241
 BZINTS: Fermi energy:  5.233911; 62.000000 electrons
         Band energy: -22.379014;  BLOECHL correction: -0.024695
       DOS:  cpu time    0.0040: real time    0.0049
    --------------------------------------------
      LOOP:  cpu time   75.7360: real time   76.1018

 eigenvalue-minimisations  :   960
 total energy-change (2. order) : 0.4282279E+03  (-0.1844024E+04)
 number of electron      62.0000000 magnetization       7.2600000
 augmentation part       62.0000000 magnetization       7.2600000

 Free energy of the ion-electron system (eV)
  ---------------------------------------------------
  alpha Z        PSCENC =        35.92350892
  Ewald energy   TEWEN  =      7519.48427785
  -Hartree energ DENC   =    -10295.23463004
  -exchange      EXHF   =         0.00000000
  -V(xc)+E(xc)   XCENC  =         2.30622352
  PAW double counting   =      1686.10667924    -1595.33645090
  entropy T*S    EENTRO =         0.00000000
  eigenvalues    EBANDS =       -22.37901380
  atomic energy  EATOM  =      3097.35731227
  Solvation  Ediel_sol  =         0.00000000
  ---------------------------------------------------
  free energy    TOTEN  =       428.22790705 eV

  energy without entropy =      428.22790705  energy(sigma->0) =      428.22790705


--------------------------------------------------------------------------------------------------------




--------------------------------------- Iteration      1(   2)  ---------------------------------------


     EDDAV:  cpu time   29.6880: real time   29.8563
 BZINTS: Fermi energy: -1.194278; 62.000000 electrons
         Band energy:-423.921803;  BLOECHL correction: -0.184295
       DOS:  cpu time    0.0040: real time    0.0048
    --------------------------------------------
      LOOP:  cpu time   29.6920: real time   29.8611

 eigenvalue-minimisations  :  1280
 total energy-change (2. order) :-0.4015428E+03  (-0.3767367E+03)
 number of electron      62.0000000 magnetization       7.2600000
 augmentation part       62.0000000 magnetization       7.2600000

 Free energy of the ion-electron system (eV)
  ---------------------------------------------------
  alpha Z        PSCENC =        35.92350892
  Ewald energy   TEWEN  =      7519.48427785
  -Hartree energ DENC   =    -10295.23463004
  -exchange      EXHF   =         0.00000000
  -V(xc)+E(xc)   XCENC  =         2.30622352
  PAW double counting   =      1686.10667924    -1595.33645090
  entropy T*S    EENTRO =         0.00000000
  eigenvalues    EBANDS =      -423.92180303
  atomic energy  EATOM  =      3097.35731227
  Solvation  Ediel_sol  =         0.00000000
  ---------------------------------------------------
  free energy    TOTEN  =        26.68511782 eV

  energy without entropy =       26.68511782  energy(sigma->0) =       26.68511782


--------------------------------------------------------------------------------------------------------




--------------------------------------- Iteration      1(   3)  ---------------------------------------


     EDDAV:  cpu time   29.4800: real time   29.7372
 BZINTS: Fermi energy: -2.593514; 62.000000 electrons
         Band energy:-495.534531;  BLOECHL correction:  0.000000
       DOS:  cpu time    0.0000: real time    0.0018
    --------------------------------------------
      LOOP:  cpu time   29.4800: real time   29.7390

 eigenvalue-minimisations  :  1280
 total energy-change (2. order) :-0.7161273E+02  (-0.6976658E+02)
 number of electron      62.0000000 magnetization       7.2600000
 augmentation part       62.0000000 magnetization       7.2600000

 Free energy of the ion-electron system (eV)
  ---------------------------------------------------
  alpha Z        PSCENC =        35.92350892
  Ewald energy   TEWEN  =      7519.48427785
  -Hartree energ DENC   =    -10295.23463004
  -exchange      EXHF   =         0.00000000
  -V(xc)+E(xc)   XCENC  =         2.30622352
  PAW double counting   =      1686.10667924    -1595.33645090
  entropy T*S    EENTRO =         0.00000000
  eigenvalues    EBANDS =      -495.53453072
  atomic energy  EATOM  =      3097.35731227
  Solvation  Ediel_sol  =         0.00000000
  ---------------------------------------------------
  free energy    TOTEN  =       -44.92760987 eV

  energy without entropy =      -44.92760987  energy(sigma->0) =      -44.92760987


--------------------------------------------------------------------------------------------------------




--------------------------------------- Iteration      1(   4)  ---------------------------------------


     EDDAV:  cpu time   26.4680: real time   26.5629
 BZINTS: Fermi energy: -2.617645; 62.000000 electrons
         Band energy:-498.445283;  BLOECHL correction:  0.000000
       DOS:  cpu time    0.0040: real time    0.0033
    --------------------------------------------
      LOOP:  cpu time   26.4720: real time   26.5662

 eigenvalue-minimisations  :  1136
 total energy-change (2. order) :-0.2910752E+01  (-0.2887002E+01)
 number of electron      62.0000000 magnetization       7.2600000
 augmentation part       62.0000000 magnetization       7.2600000

 Free energy of the ion-electron system (eV)
  ---------------------------------------------------
  alpha Z        PSCENC =        35.92350892
  Ewald energy   TEWEN  =      7519.48427785
  -Hartree energ DENC   =    -10295.23463004
  -exchange      EXHF   =         0.00000000
  -V(xc)+E(xc)   XCENC  =         2.30622352
  PAW double counting   =      1686.10667924    -1595.33645090
  entropy T*S    EENTRO =         0.00000000
  eigenvalues    EBANDS =      -498.44528299
  atomic energy  EATOM  =      3097.35731227
  Solvation  Ediel_sol  =         0.00000000
  ---------------------------------------------------
  free energy    TOTEN  =       -47.83836214 eV

  energy without entropy =      -47.83836214  energy(sigma->0) =      -47.83836214


--------------------------------------------------------------------------------------------------------




--------------------------------------- Iteration      1(   5)  ---------------------------------------


     EDDAV:  cpu time   31.4800: real time   31.7715
 BZINTS: Fermi energy: -2.615327; 62.000000 electrons
         Band energy:-498.533165;  BLOECHL correction:  0.000000
       DOS:  cpu time    0.0000: real time    0.0015
    CHARGE:  cpu time    2.0080: real time    2.0241
    MIXING:  cpu time    0.0400: real time    0.0411
    --------------------------------------------
      LOOP:  cpu time   33.5280: real time   33.8382

 eigenvalue-minimisations  :  1376
 total energy-change (2. order) :-0.8788157E-01  (-0.8780889E-01)
 number of electron      62.0000000 magnetization       7.3393419
 augmentation part       -2.8326897 magnetization       4.5180115

 Broyden mixing:
  rms(total) = 0.24539E+01    rms(broyden)= 0.24538E+01
  rms(prec ) = 0.26990E+01
  weight for this iteration     100.00

 Free energy of the ion-electron system (eV)
  ---------------------------------------------------
  alpha Z        PSCENC =        35.92350892
  Ewald energy   TEWEN  =      7519.48427785
  -Hartree energ DENC   =    -10295.23463004
  -exchange      EXHF   =         0.00000000
  -V(xc)+E(xc)   XCENC  =         2.30622352
  PAW double counting   =      1686.10667924    -1595.33645090
  entropy T*S    EENTRO =         0.00000000
  eigenvalues    EBANDS =      -498.53316456
  atomic energy  EATOM  =      3097.35731227
  Solvation  Ediel_sol  =         0.00000000
  ---------------------------------------------------
  free energy    TOTEN  =       -47.92624371 eV

  energy without entropy =      -47.92624371  energy(sigma->0) =      -47.92624371


--------------------------------------------------------------------------------------------------------




--------------------------------------- Iteration      1(   6)  ---------------------------------------


    POTLOK:  cpu time   51.8280: real time   52.6074
    SETDIJ:  cpu time    0.0280: real time    0.0358
     EDDAV:  cpu time   28.1840: real time   28.5675
 BZINTS: Fermi energy: -4.441898; 62.000000 electrons
         Band energy:-662.537126;  BLOECHL correction: -0.029191
       DOS:  cpu time    0.0040: real time    0.0067
    CHARGE:  cpu time    2.0000: real time    2.0837
    MIXING:  cpu time    0.0440: real time    0.0443
    --------------------------------------------
      LOOP:  cpu time   82.0880: real time   83.3454

 eigenvalue-minimisations  :  1232
 total energy-change (2. order) :-0.5194379E+02  (-0.2556563E+02)
 number of electron      62.0000009 magnetization       7.1203441
 augmentation part        7.7932206 magnetization       7.3754158

 Broyden mixing:
  rms(total) = 0.64036E+01    rms(broyden)= 0.64035E+01
  rms(prec ) = 0.68494E+01
  weight for this iteration     100.00

 eigenvalues of (default mixing * dielectric matrix)
  average eigenvalue GAMMA=   0.2301
  0.2301

 Free energy of the ion-electron system (eV)
  ---------------------------------------------------
  alpha Z        PSCENC =        35.92350892
  Ewald energy   TEWEN  =      7519.48427785
  -Hartree energ DENC   =    -10196.01695123
  -exchange      EXHF   =         0.00000000
  -V(xc)+E(xc)   XCENC  =         3.26363083
  PAW double counting   =      1528.21293394    -1425.55762485
  entropy T*S    EENTRO =         0.00000000
  eigenvalues    EBANDS =      -662.53712624
  atomic energy  EATOM  =      3097.35731227
  Solvation  Ediel_sol  =         0.00000000
  ---------------------------------------------------
  free energy    TOTEN  =       -99.87003851 eV

  energy without entropy =      -99.87003851  energy(sigma->0) =      -99.87003851


--------------------------------------------------------------------------------------------------------




--------------------------------------- Iteration      1(   7)  ---------------------------------------


    POTLOK:  cpu time   51.9360: real time   52.6837
    SETDIJ:  cpu time    0.0520: real time    0.0490
     EDDAV:  cpu time   26.1840: real time   26.5732
 BZINTS: Fermi energy: -4.359112; 62.000000 electrons
         Band energy:-532.322741;  BLOECHL correction: -0.022105
       DOS:  cpu time    0.0040: real time    0.0070
    CHARGE:  cpu time    2.0400: real time    2.0584
    MIXING:  cpu time    0.0480: real time    0.0457
    --------------------------------------------
      LOOP:  cpu time   80.2640: real time   81.4170

 eigenvalue-minimisations  :  1136
 total energy-change (2. order) : 0.5632652E+02  (-0.5961429E+01)
 number of electron      62.0000007 magnetization       6.8407965
 augmentation part        4.5872429 magnetization       7.6816678

 Broyden mixing:
  rms(total) = 0.31115E+01    rms(broyden)= 0.31114E+01
  rms(prec ) = 0.33708E+01
  weight for this iteration     100.00

 eigenvalues of (default mixing * dielectric matrix)
  average eigenvalue GAMMA=   0.4369
  0.4369  0.4369

 Free energy of the ion-electron system (eV)
  ---------------------------------------------------
  alpha Z        PSCENC =        35.92350892
  Ewald energy   TEWEN  =      7519.48427785
  -Hartree energ DENC   =    -10256.83678097
  -exchange      EXHF   =         0.00000000
  -V(xc)+E(xc)   XCENC  =         1.13862772
  PAW double counting   =      1637.48153892    -1545.76926413
  entropy T*S    EENTRO =         0.00000000
  eigenvalues    EBANDS =      -532.32274099
  atomic energy  EATOM  =      3097.35731227
  Solvation  Ediel_sol  =         0.00000000
  ---------------------------------------------------
  free energy    TOTEN  =       -43.54352042 eV

  energy without entropy =      -43.54352042  energy(sigma->0) =      -43.54352042


--------------------------------------------------------------------------------------------------------




--------------------------------------- Iteration      1(   8)  ---------------------------------------


    POTLOK:  cpu time   51.8120: real time   52.1598
    SETDIJ:  cpu time    0.0440: real time    0.0433
     EDDAV:  cpu time   33.6760: real time   34.0095
 BZINTS: Fermi energy: -3.218667; 62.000000 electrons
         Band energy:-504.924368;  BLOECHL correction:  0.000000
       DOS:  cpu time    0.0000: real time    0.0032
    CHARGE:  cpu time    2.0280: real time    2.0285
    MIXING:  cpu time    0.0480: real time    0.0454
    --------------------------------------------
      LOOP:  cpu time   87.6080: real time   88.2896

 eigenvalue-minimisations  :  1504
 total energy-change (2. order) : 0.2955565E+01  (-0.2007871E+01)
 number of electron      62.0000000 magnetization       6.9247025
 augmentation part       -1.1561912 magnetization       4.4913022

 Broyden mixing:
  rms(total) = 0.20469E+01    rms(broyden)= 0.20465E+01
  rms(prec ) = 0.21271E+01
  weight for this iteration     100.00

 eigenvalues of (default mixing * dielectric matrix)
  average eigenvalue GAMMA=   0.3892
  0.4842  0.3417  0.3417

 Free energy of the ion-electron system (eV)
  ---------------------------------------------------
  alpha Z        PSCENC =        35.92350892
  Ewald energy   TEWEN  =      7519.48427785
  -Hartree energ DENC   =    -10279.91068866
  -exchange      EXHF   =         0.00000000
  -V(xc)+E(xc)   XCENC  =         0.96665296
  PAW double counting   =      1681.45601976    -1590.94067063
  entropy T*S    EENTRO =         0.00000000
  eigenvalues    EBANDS =      -504.92436834
  atomic energy  EATOM  =      3097.35731227
  Solvation  Ediel_sol  =         0.00000000
  ---------------------------------------------------
  free energy    TOTEN  =       -40.58795586 eV

  energy without entropy =      -40.58795586  energy(sigma->0) =      -40.58795586


--------------------------------------------------------------------------------------------------------




--------------------------------------- Iteration      1(   9)  ---------------------------------------


    POTLOK:  cpu time   51.0600: real time   51.3626
    SETDIJ:  cpu time    0.0400: real time    0.0403
     EDDAV:  cpu time   29.9720: real time   30.3681
 BZINTS: Fermi energy: -3.560826; 62.000000 electrons
         Band energy:-515.392247;  BLOECHL correction: -0.024330
       DOS:  cpu time    0.0040: real time    0.0073
    CHARGE:  cpu time    2.0360: real time    2.0510
    MIXING:  cpu time    0.0400: real time    0.0419
    --------------------------------------------
      LOOP:  cpu time   83.1520: real time   83.8712

 eigenvalue-minimisations  :  1344
 total energy-change (2. order) : 0.4766979E+00  (-0.3999043E+00)
 number of electron      62.0000001 magnetization       6.9665952
 augmentation part        0.3610503 magnetization       4.6644892

 Broyden mixing:
  rms(total) = 0.66065E+00    rms(broyden)= 0.66055E+00
  rms(prec ) = 0.66757E+00
  weight for this iteration     100.00

 eigenvalues of (default mixing * dielectric matrix)
  average eigenvalue GAMMA=   0.3455
  0.3477  0.3477  0.3433  0.3433

 Free energy of the ion-electron system (eV)
  ---------------------------------------------------
  alpha Z        PSCENC =        35.92350892
  Ewald energy   TEWEN  =      7519.48427785
  -Hartree energ DENC   =    -10269.20958378
  -exchange      EXHF   =         0.00000000
  -V(xc)+E(xc)   XCENC  =         1.69601331
  PAW double counting   =      1662.58607588    -1572.55661550
  entropy T*S    EENTRO =         0.00000000
  eigenvalues    EBANDS =      -515.39224689
  atomic energy  EATOM  =      3097.35731227
  Solvation  Ediel_sol  =         0.00000000
  ---------------------------------------------------
  free energy    TOTEN  =       -40.11125794 eV

  energy without entropy =      -40.11125794  energy(sigma->0) =      -40.11125794


--------------------------------------------------------------------------------------------------------




--------------------------------------- Iteration      1(  10)  ---------------------------------------


    POTLOK:  cpu time   50.9640: real time   51.1439
    SETDIJ:  cpu time    0.0400: real time    0.0423
     EDDAV:  cpu time   27.4320: real time   27.5904
 BZINTS: Fermi energy: -3.586132; 62.000000 electrons
         Band energy:-516.257235;  BLOECHL correction: -0.024405
       DOS:  cpu time    0.0080: real time    0.0073
    CHARGE:  cpu time    2.0600: real time    2.0626
    MIXING:  cpu time    0.0400: real time    0.0425
    --------------------------------------------
      LOOP:  cpu time   80.5440: real time   80.8889

 eigenvalue-minimisations  :  1200
 total energy-change (2. order) :-0.9950761E-01  (-0.3476765E-01)
 number of electron      62.0000002 magnetization       7.0894177
 augmentation part        0.5524723 magnetization       4.6919801

 Broyden mixing:
  rms(total) = 0.46960E+00    rms(broyden)= 0.46957E+00
  rms(prec ) = 0.47541E+00
  weight for this iteration     100.00

 eigenvalues of (default mixing * dielectric matrix)
  average eigenvalue GAMMA=   0.5757
  0.7545  0.7545  0.5907  0.3893  0.3893

 Free energy of the ion-electron system (eV)
  ---------------------------------------------------
  alpha Z        PSCENC =        35.92350892
  Ewald energy   TEWEN  =      7519.48427785
  -Hartree energ DENC   =    -10268.49022047
  -exchange      EXHF   =         0.00000000
  -V(xc)+E(xc)   XCENC  =         1.96999943
  PAW double counting   =      1661.75041153    -1571.94882027
  entropy T*S    EENTRO =         0.00000000
  eigenvalues    EBANDS =      -516.25723480
  atomic energy  EATOM  =      3097.35731227
  Solvation  Ediel_sol  =         0.00000000
  ---------------------------------------------------
  free energy    TOTEN  =       -40.21076555 eV

  energy without entropy =      -40.21076555  energy(sigma->0) =      -40.21076555


--------------------------------------------------------------------------------------------------------




--------------------------------------- Iteration      1(  11)  ---------------------------------------


    POTLOK:  cpu time   50.8880: real time   51.1030
    SETDIJ:  cpu time    0.0440: real time    0.0426
     EDDAV:  cpu time   28.5520: real time   28.6932
 BZINTS: Fermi energy: -3.565701; 62.000000 electrons
         Band energy:-517.101563;  BLOECHL correction: -0.021324
       DOS:  cpu time    0.0040: real time    0.0072
    CHARGE:  cpu time    2.1120: real time    2.1110
    MIXING:  cpu time    0.0400: real time    0.0432
    --------------------------------------------
      LOOP:  cpu time   81.6400: real time   82.0001

 eigenvalue-minimisations  :  1264
 total energy-change (2. order) :-0.1152680E+00  (-0.2024886E-01)
 number of electron      62.0000001 magnetization       7.2565660
 augmentation part        0.4161378 magnetization       4.7393399

 Broyden mixing:
  rms(total) = 0.37837E+00    rms(broyden)= 0.37836E+00
  rms(prec ) = 0.38381E+00
  weight for this iteration     100.00

 eigenvalues of (default mixing * dielectric matrix)
  average eigenvalue GAMMA=   0.6880
  1.0760  1.0760  0.3911  0.3911  0.5969  0.5969

 Free energy of the ion-electron system (eV)
  ---------------------------------------------------
  alpha Z        PSCENC =        35.92350892
  Ewald energy   TEWEN  =      7519.48427785
  -Hartree energ DENC   =    -10267.85084752
  -exchange      EXHF   =         0.00000000
  -V(xc)+E(xc)   XCENC  =         2.54481764
  PAW double counting   =      1661.71827830    -1572.40181808
  entropy T*S    EENTRO =         0.00000000
  eigenvalues    EBANDS =      -517.10156294
  atomic energy  EATOM  =      3097.35731227
  Solvation  Ediel_sol  =         0.00000000
  ---------------------------------------------------
  free energy    TOTEN  =       -40.32603356 eV

  energy without entropy =      -40.32603356  energy(sigma->0) =      -40.32603356


--------------------------------------------------------------------------------------------------------




--------------------------------------- Iteration      1(  12)  ---------------------------------------


    POTLOK:  cpu time   50.5920: real time   51.0189
    SETDIJ:  cpu time    0.0440: real time    0.0425
     EDDAV:  cpu time   29.9040: real time   30.1339
 BZINTS: Fermi energy: -3.532827; 61.999714 electrons
         Band energy:-518.383212;  BLOECHL correction: -0.000081
       DOS:  cpu time    0.0080: real time    0.0092
    CHARGE:  cpu time    2.0760: real time    2.0772
    MIXING:  cpu time    0.0480: real time    0.0476
    --------------------------------------------
      LOOP:  cpu time   82.6720: real time   83.3294

 eigenvalue-minimisations  :  1328
 total energy-change (2. order) :-0.6972847E-01  (-0.3313519E-01)
 number of electron      61.9997137 magnetization       7.2898596
 augmentation part        0.0311088 magnetization       4.7416644

 Broyden mixing:
  rms(total) = 0.49071E+00    rms(broyden)= 0.49066E+00
  rms(prec ) = 0.51829E+00
  weight for this iteration     100.00

 eigenvalues of (default mixing * dielectric matrix)
  average eigenvalue GAMMA=   0.7528
  1.0646  1.0646  0.8588  0.8588  0.3932  0.3932  0.6364

 Free energy of the ion-electron system (eV)
  ---------------------------------------------------
  alpha Z        PSCENC =        35.92350892
  Ewald energy   TEWEN  =      7519.48427785
  -Hartree energ DENC   =    -10266.75983620
  -exchange      EXHF   =         0.00000000
  -V(xc)+E(xc)   XCENC  =         3.39370126
  PAW double counting   =      1662.22321140    -1573.63472555
  entropy T*S    EENTRO =         0.00000000
  eigenvalues    EBANDS =      -518.38321198
  atomic energy  EATOM  =      3097.35731227
  Solvation  Ediel_sol  =         0.00000000
  ---------------------------------------------------
  free energy    TOTEN  =       -40.39576203 eV

  energy without entropy =      -40.39576203  energy(sigma->0) =      -40.39576203


--------------------------------------------------------------------------------------------------------




--------------------------------------- Iteration      1(  13)  ---------------------------------------


    POTLOK:  cpu time   50.8600: real time   51.1297
    SETDIJ:  cpu time    0.0440: real time    0.0414
     EDDAV:  cpu time   27.4480: real time   27.7283
 BZINTS: Fermi energy: -3.540221; 62.020089 electrons
         Band energy:-519.102852;  BLOECHL correction: -0.001811
       DOS:  cpu time    0.0080: real time    0.0085
    CHARGE:  cpu time    2.0360: real time    2.0379
    MIXING:  cpu time    0.0480: real time    0.0504
    --------------------------------------------
      LOOP:  cpu time   80.4440: real time   80.9962

 eigenvalue-minimisations  :  1216
 total energy-change (2. order) :-0.6438155E-01  (-0.4812713E-02)
 number of electron      62.0200896 magnetization       7.3187491
 augmentation part        0.1000077 magnetization       4.8214836

 Broyden mixing:
  rms(total) = 0.37916E+00    rms(broyden)= 0.37916E+00
  rms(prec ) = 0.40452E+00
  weight for this iteration     100.00

 eigenvalues of (default mixing * dielectric matrix)
  average eigenvalue GAMMA=   0.8633
  1.6594  1.0810  1.0810  0.3934  0.3934  0.8214  0.8214  0.6553

 Free energy of the ion-electron system (eV)
  ---------------------------------------------------
  alpha Z        PSCENC =        35.92350892
  Ewald energy   TEWEN  =      7519.48427785
  -Hartree energ DENC   =    -10266.05732838
  -exchange      EXHF   =         0.00000000
  -V(xc)+E(xc)   XCENC  =         3.64470744
  PAW double counting   =      1661.88591958    -1573.59568941
  entropy T*S    EENTRO =         0.00000000
  eigenvalues    EBANDS =      -519.10285185
  atomic energy  EATOM  =      3097.35731227
  Solvation  Ediel_sol  =         0.00000000
  ---------------------------------------------------
  free energy    TOTEN  =       -40.46014358 eV

  energy without entropy =      -40.46014358  energy(sigma->0) =      -40.46014358


--------------------------------------------------------------------------------------------------------




--------------------------------------- Iteration      1(  14)  ---------------------------------------


    POTLOK:  cpu time   50.8600: real time   51.1390
    SETDIJ:  cpu time    0.0440: real time    0.0429
     EDDAV:  cpu time   34.6320: real time   34.9021
 BZINTS: Fermi energy: -3.586823; 62.000000 electrons
         Band energy:-520.152086;  BLOECHL correction: -0.011622
       DOS:  cpu time    0.0040: real time    0.0073
    CHARGE:  cpu time    2.0520: real time    2.0553
    MIXING:  cpu time    0.0440: real time    0.0455
    --------------------------------------------
      LOOP:  cpu time   87.6360: real time   88.1919

 eigenvalue-minimisations  :  1552
 total energy-change (2. order) : 0.9717836E-01  (-0.8349440E-02)
 number of electron      62.0000001 magnetization       7.3463900
 augmentation part        0.3595834 magnetization       4.7689959

 Broyden mixing:
  rms(total) = 0.13606E+00    rms(broyden)= 0.13605E+00
  rms(prec ) = 0.14641E+00
  weight for this iteration     100.00

 eigenvalues of (default mixing * dielectric matrix)
  average eigenvalue GAMMA=   0.8948
  2.0390  1.1307  1.1307  0.8545  0.8545  0.3933  0.3933  0.6287  0.6287

 Free energy of the ion-electron system (eV)
  ---------------------------------------------------
  alpha Z        PSCENC =        35.92350892
  Ewald energy   TEWEN  =      7519.48427785
  -Hartree energ DENC   =    -10264.85948529
  -exchange      EXHF   =         0.00000000
  -V(xc)+E(xc)   XCENC  =         3.79193258
  PAW double counting   =      1660.82594374    -1572.73436975
  entropy T*S    EENTRO =         0.00000000
  eigenvalues    EBANDS =      -520.15208555
  atomic energy  EATOM  =      3097.35731227
  Solvation  Ediel_sol  =         0.00000000
  ---------------------------------------------------
  free energy    TOTEN  =       -40.36296523 eV

  energy without entropy =      -40.36296523  energy(sigma->0) =      -40.36296523


--------------------------------------------------------------------------------------------------------




--------------------------------------- Iteration      1(  15)  ---------------------------------------


    POTLOK:  cpu time   50.9160: real time   51.1273
    SETDIJ:  cpu time    0.0440: real time    0.0443
     EDDAV:  cpu time   30.6800: real time   30.8347
 BZINTS: Fermi energy: -3.598810; 62.000000 electrons
         Band energy:-520.516481;  BLOECHL correction: -0.014822
       DOS:  cpu time    0.0040: real time    0.0066
    CHARGE:  cpu time    2.0560: real time    2.0912
    MIXING:  cpu time    0.0480: real time    0.0482
    --------------------------------------------
      LOOP:  cpu time   83.7480: real time   84.1524

 eigenvalue-minimisations  :  1360
 total energy-change (2. order) :-0.1468658E-02  (-0.1512478E-02)
 number of electron      62.0000001 magnetization       7.3945983
 augmentation part        0.4389849 magnetization       4.7708989

 Broyden mixing:
  rms(total) = 0.81689E-01    rms(broyden)= 0.81679E-01
  rms(prec ) = 0.86536E-01
  weight for this iteration     100.00

 eigenvalues of (default mixing * dielectric matrix)
  average eigenvalue GAMMA=   0.9643
  2.3652  1.1508  1.1508  0.3933  0.3933  0.9832  0.9832  0.7834  0.7834  0.6563

 Free energy of the ion-electron system (eV)
  ---------------------------------------------------
  alpha Z        PSCENC =        35.92350892
  Ewald energy   TEWEN  =      7519.48427785
  -Hartree energ DENC   =    -10264.38885824
  -exchange      EXHF   =         0.00000000
  -V(xc)+E(xc)   XCENC  =         3.69926199
  PAW double counting   =      1660.58435014    -1572.50780628
  entropy T*S    EENTRO =         0.00000000
  eigenvalues    EBANDS =      -520.51648054
  atomic energy  EATOM  =      3097.35731227
  Solvation  Ediel_sol  =         0.00000000
  ---------------------------------------------------
  free energy    TOTEN  =       -40.36443389 eV

  energy without entropy =      -40.36443389  energy(sigma->0) =      -40.36443389


--------------------------------------------------------------------------------------------------------




--------------------------------------- Iteration      1(  16)  ---------------------------------------


    POTLOK:  cpu time   50.7120: real time   51.0659
    SETDIJ:  cpu time    0.0400: real time    0.0410
     EDDAV:  cpu time   32.8600: real time   33.4250
 BZINTS: Fermi energy: -3.596609; 62.000000 electrons
         Band energy:-520.732491;  BLOECHL correction: -0.010357
       DOS:  cpu time    0.0080: real time    0.0070
    CHARGE:  cpu time    2.0600: real time    2.0681
    MIXING:  cpu time    0.0480: real time    0.0504
    --------------------------------------------
      LOOP:  cpu time   85.7280: real time   86.6575

 eigenvalue-minimisations  :  1488
 total energy-change (2. order) : 0.9496564E-03  (-0.1566668E-03)
 number of electron      62.0000001 magnetization       7.4340652
 augmentation part        0.3936243 magnetization       4.7756437

 Broyden mixing:
  rms(total) = 0.13451E+00    rms(broyden)= 0.13451E+00
  rms(prec ) = 0.14125E+00
  weight for this iteration     100.00

 eigenvalues of (default mixing * dielectric matrix)
  average eigenvalue GAMMA=   0.9586
  2.3919  1.4646  1.1253  1.1253  0.3933  0.3933  0.8702  0.8702  0.6550  0.6550
  0.6000

 Free energy of the ion-electron system (eV)
  ---------------------------------------------------
  alpha Z        PSCENC =        35.92350892
  Ewald energy   TEWEN  =      7519.48427785
  -Hartree energ DENC   =    -10264.13973002
  -exchange      EXHF   =         0.00000000
  -V(xc)+E(xc)   XCENC  =         3.63469773
  PAW double counting   =      1660.78744618    -1572.67850653
  entropy T*S    EENTRO =         0.00000000
  eigenvalues    EBANDS =      -520.73249062
  atomic energy  EATOM  =      3097.35731227
  Solvation  Ediel_sol  =         0.00000000
  ---------------------------------------------------
  free energy    TOTEN  =       -40.36348423 eV

  energy without entropy =      -40.36348423  energy(sigma->0) =      -40.36348423


--------------------------------------------------------------------------------------------------------




--------------------------------------- Iteration      1(  17)  ---------------------------------------


    POTLOK:  cpu time   50.8760: real time   50.9987
    SETDIJ:  cpu time    0.0400: real time    0.0424
     EDDAV:  cpu time   32.6880: real time   32.7865
 BZINTS: Fermi energy: -3.609720; 62.000000 electrons
         Band energy:-521.064637;  BLOECHL correction: -0.014279
       DOS:  cpu time    0.0040: real time    0.0072
    CHARGE:  cpu time    2.0880: real time    2.0893
    MIXING:  cpu time    0.0520: real time    0.0509
    --------------------------------------------
      LOOP:  cpu time   85.7480: real time   85.9749

 eigenvalue-minimisations  :  1456
 total energy-change (2. order) :-0.1607760E-02  (-0.6068674E-03)
 number of electron      62.0000001 magnetization       7.4825030
 augmentation part        0.4838760 magnetization       4.7949654

 Broyden mixing:
  rms(total) = 0.56232E-01    rms(broyden)= 0.56221E-01
  rms(prec ) = 0.57965E-01
  weight for this iteration     100.00

 eigenvalues of (default mixing * dielectric matrix)
  average eigenvalue GAMMA=   0.9829
  2.3149  1.9620  1.1698  1.1698  0.3933  0.3933  0.8773  0.8773  0.6787  0.6787
  0.6956  0.5839

 Free energy of the ion-electron system (eV)
  ---------------------------------------------------
  alpha Z        PSCENC =        35.92350892
  Ewald energy   TEWEN  =      7519.48427785
  -Hartree energ DENC   =    -10263.81816011
  -exchange      EXHF   =         0.00000000
  -V(xc)+E(xc)   XCENC  =         3.66031362
  PAW double counting   =      1660.42391009    -1572.33161776
  entropy T*S    EENTRO =         0.00000000
  eigenvalues    EBANDS =      -521.06463686
  atomic energy  EATOM  =      3097.35731227
  Solvation  Ediel_sol  =         0.00000000
  ---------------------------------------------------
  free energy    TOTEN  =       -40.36509199 eV

  energy without entropy =      -40.36509199  energy(sigma->0) =      -40.36509199


--------------------------------------------------------------------------------------------------------




--------------------------------------- Iteration      1(  18)  ---------------------------------------


    POTLOK:  cpu time   51.0000: real time   51.0879
    SETDIJ:  cpu time    0.0440: real time    0.0456
     EDDAV:  cpu time   24.8560: real time   25.0366
 BZINTS: Fermi energy: -3.609306; 61.980459 electrons
         Band energy:-521.124977;  BLOECHL correction: -0.011567
       DOS:  cpu time    0.0040: real time    0.0101
    CHARGE:  cpu time    2.0760: real time    2.0755
    MIXING:  cpu time    0.0440: real time    0.0494
    --------------------------------------------
      LOOP:  cpu time   78.0240: real time   78.3052

 eigenvalue-minimisations  :  1072
 total energy-change (2. order) : 0.7119605E-01  (-0.7404337E-04)
 number of electron      61.9804592 magnetization       7.5232378
 augmentation part        0.4517445 magnetization       4.8112159

 Broyden mixing:
  rms(total) = 0.80372E-01    rms(broyden)= 0.80369E-01
  rms(prec ) = 0.84311E-01
  weight for this iteration     100.00

 eigenvalues of (default mixing * dielectric matrix)
  average eigenvalue GAMMA=   1.0666
  2.7390  2.7390  1.1943  1.1943  0.9396  0.9396  0.3933  0.3933  0.7460  0.7460
  0.6267  0.6267  0.5885

 Free energy of the ion-electron system (eV)
  ---------------------------------------------------
  alpha Z        PSCENC =        35.92350892
  Ewald energy   TEWEN  =      7519.48427785
  -Hartree energ DENC   =    -10263.70730411
  -exchange      EXHF   =         0.00000000
  -V(xc)+E(xc)   XCENC  =         3.67124620
  PAW double counting   =      1660.45594941    -1572.35390963
  entropy T*S    EENTRO =         0.00000000
  eigenvalues    EBANDS =      -521.12497684
  atomic energy  EATOM  =      3097.35731227
  Solvation  Ediel_sol  =         0.00000000
  ---------------------------------------------------
  free energy    TOTEN  =       -40.29389594 eV

  energy without entropy =      -40.29389594  energy(sigma->0) =      -40.29389594


--------------------------------------------------------------------------------------------------------




--------------------------------------- Iteration      1(  19)  ---------------------------------------


    POTLOK:  cpu time   50.9960: real time   51.1019
    SETDIJ:  cpu time    0.0440: real time    0.0438
     EDDAV:  cpu time   23.4120: real time   23.7073
 BZINTS: Fermi energy: -3.619077; 62.000000 electrons
         Band energy:-521.589883;  BLOECHL correction: -0.013684
       DOS:  cpu time    0.0040: real time    0.0071
    CHARGE:  cpu time    2.0640: real time    2.0662
    MIXING:  cpu time    0.0480: real time    0.0504
    --------------------------------------------
      LOOP:  cpu time   76.5680: real time   76.9767

 eigenvalue-minimisations  :  1008
 total energy-change (2. order) :-0.7279734E-01  (-0.1633707E-03)
 number of electron      62.0000001 magnetization       7.6451196
 augmentation part        0.5005213 magnetization       4.9274508

 Broyden mixing:
  rms(total) = 0.38870E-01    rms(broyden)= 0.38860E-01
  rms(prec ) = 0.39816E-01
  weight for this iteration     100.00

 eigenvalues of (default mixing * dielectric matrix)
  average eigenvalue GAMMA=   1.0737
  2.9666  2.9666  1.1886  1.1886  0.9738  0.9738  0.3933  0.3933  0.8005  0.8005
  0.6922  0.6922  0.6403  0.3613

 Free energy of the ion-electron system (eV)
  ---------------------------------------------------
  alpha Z        PSCENC =        35.92350892
  Ewald energy   TEWEN  =      7519.48427785
  -Hartree energ DENC   =    -10263.30930822
  -exchange      EXHF   =         0.00000000
  -V(xc)+E(xc)   XCENC  =         3.65993972
  PAW double counting   =      1660.07663983    -1571.96918096
  entropy T*S    EENTRO =         0.00000000
  eigenvalues    EBANDS =      -521.58988269
  atomic energy  EATOM  =      3097.35731227
  Solvation  Ediel_sol  =         0.00000000
  ---------------------------------------------------
  free energy    TOTEN  =       -40.36669328 eV

  energy without entropy =      -40.36669328  energy(sigma->0) =      -40.36669328


--------------------------------------------------------------------------------------------------------




--------------------------------------- Iteration      1(  20)  ---------------------------------------


    POTLOK:  cpu time   50.7640: real time   51.1090
    SETDIJ:  cpu time    0.0440: real time    0.0430
     EDDAV:  cpu time   25.3440: real time   25.4919
 BZINTS: Fermi energy: -3.633585; 62.000000 electrons
         Band energy:-522.247270;  BLOECHL correction: -0.013723
       DOS:  cpu time    0.0080: real time    0.0074
    CHARGE:  cpu time    2.0400: real time    2.0551
    MIXING:  cpu time    0.0560: real time    0.0554
    --------------------------------------------
      LOOP:  cpu time   78.2560: real time   78.7618

 eigenvalue-minimisations  :  1104
 total energy-change (2. order) :-0.3069386E-02  (-0.3492996E-03)
 number of electron      62.0000001 magnetization       7.7396907
 augmentation part        0.5259571 magnetization       5.0029119

 Broyden mixing:
  rms(total) = 0.14578E-01    rms(broyden)= 0.14564E-01
  rms(prec ) = 0.14788E-01
  weight for this iteration     100.00

 eigenvalues of (default mixing * dielectric matrix)
  average eigenvalue GAMMA=   1.2246
  4.7658  3.0856  1.1705  1.1705  1.3976  0.9433  0.9433  0.3933  0.3933  0.8645
  0.8645  0.6847  0.6847  0.5880  0.4190

 Free energy of the ion-electron system (eV)
  ---------------------------------------------------
  alpha Z        PSCENC =        35.92350892
  Ewald energy   TEWEN  =      7519.48427785
  -Hartree energ DENC   =    -10262.71466083
  -exchange      EXHF   =         0.00000000
  -V(xc)+E(xc)   XCENC  =         3.70413133
  PAW double counting   =      1659.80645958    -1571.68352184
  entropy T*S    EENTRO =         0.00000000
  eigenvalues    EBANDS =      -522.24726995
  atomic energy  EATOM  =      3097.35731227
  Solvation  Ediel_sol  =         0.00000000
  ---------------------------------------------------
  free energy    TOTEN  =       -40.36976267 eV

  energy without entropy =      -40.36976267  energy(sigma->0) =      -40.36976267


--------------------------------------------------------------------------------------------------------




--------------------------------------- Iteration      1(  21)  ---------------------------------------


    POTLOK:  cpu time   50.8440: real time   51.2624
    SETDIJ:  cpu time    0.0440: real time    0.0421
     EDDAV:  cpu time   28.6160: real time   28.8238
 BZINTS: Fermi energy: -3.644345; 62.000000 electrons
         Band energy:-522.712642;  BLOECHL correction: -0.014150
       DOS:  cpu time    0.0040: real time    0.0066
    CHARGE:  cpu time    2.0920: real time    2.1141
    MIXING:  cpu time    0.0560: real time    0.0537
    --------------------------------------------
      LOOP:  cpu time   81.6560: real time   82.3027

 eigenvalue-minimisations  :  1264
 total energy-change (2. order) :-0.1915408E-02  (-0.2100737E-03)
 number of electron      62.0000001 magnetization       7.8221620
 augmentation part        0.5507006 magnetization       5.0773205

 Broyden mixing:
  rms(total) = 0.22829E-01    rms(broyden)= 0.22824E-01
  rms(prec ) = 0.24197E-01
  weight for this iteration     100.00

 eigenvalues of (default mixing * dielectric matrix)
  average eigenvalue GAMMA=   1.4294
  7.6733  3.0667  1.9494  1.1700  1.1700  1.1698  0.9415  0.9415  0.3933  0.3933
  0.8026  0.8026  0.6881  0.6881  0.6111  0.4092

 Free energy of the ion-electron system (eV)
  ---------------------------------------------------
  alpha Z        PSCENC =        35.92350892
  Ewald energy   TEWEN  =      7519.48427785
  -Hartree energ DENC   =    -10262.26671245
  -exchange      EXHF   =         0.00000000
  -V(xc)+E(xc)   XCENC  =         3.71722789
  PAW double counting   =      1659.84585670    -1571.72050700
  entropy T*S    EENTRO =         0.00000000
  eigenvalues    EBANDS =      -522.71264225
  atomic energy  EATOM  =      3097.35731227
  Solvation  Ediel_sol  =         0.00000000
  ---------------------------------------------------
  free energy    TOTEN  =       -40.37167807 eV

  energy without entropy =      -40.37167807  energy(sigma->0) =      -40.37167807


--------------------------------------------------------------------------------------------------------




--------------------------------------- Iteration      1(  22)  ---------------------------------------


    POTLOK:  cpu time   50.6880: real time   51.0743
    SETDIJ:  cpu time    0.0440: real time    0.0420
     EDDAV:  cpu time   25.8960: real time   26.0979
 BZINTS: Fermi energy: -3.645109; 62.012864 electrons
         Band energy:-522.998085;  BLOECHL correction: -0.011911
       DOS:  cpu time    0.0040: real time    0.0094
    CHARGE:  cpu time    2.0480: real time    2.0567
    MIXING:  cpu time    0.0520: real time    0.0556
    --------------------------------------------
      LOOP:  cpu time   78.7320: real time   79.3359

 eigenvalue-minimisations  :  1136
 total energy-change (2. order) :-0.4478448E-01  (-0.1426580E-03)
 number of electron      62.0128641 magnetization       7.8430135
 augmentation part        0.5301250 magnetization       5.0804235

 Broyden mixing:
  rms(total) = 0.43434E-02    rms(broyden)= 0.43219E-02
  rms(prec ) = 0.47957E-02
  weight for this iteration     100.00

 eigenvalues of (default mixing * dielectric matrix)
  average eigenvalue GAMMA=   1.4653
  9.0674  3.0461  2.0146  1.1726  1.1726  0.9484  0.9484  1.0391  1.0391  0.3933
  0.3933  0.7247  0.7247  0.6494  0.5844  0.5844  0.4081

 Free energy of the ion-electron system (eV)
  ---------------------------------------------------
  alpha Z        PSCENC =        35.92350892
  Ewald energy   TEWEN  =      7519.48427785
  -Hartree energ DENC   =    -10262.03592534
  -exchange      EXHF   =         0.00000000
  -V(xc)+E(xc)   XCENC  =         3.71836682
  PAW double counting   =      1660.18913909    -1572.05505710
  entropy T*S    EENTRO =         0.00000000
  eigenvalues    EBANDS =      -522.99808505
  atomic energy  EATOM  =      3097.35731227
  Solvation  Ediel_sol  =         0.00000000
  ---------------------------------------------------
  free energy    TOTEN  =       -40.41646255 eV

  energy without entropy =      -40.41646255  energy(sigma->0) =      -40.41646255


--------------------------------------------------------------------------------------------------------




--------------------------------------- Iteration      1(  23)  ---------------------------------------


    POTLOK:  cpu time   50.9640: real time   51.3139
    SETDIJ:  cpu time    0.0440: real time    0.0448
     EDDAV:  cpu time   26.6600: real time   26.7677
 BZINTS: Fermi energy: -3.644821; 61.979760 electrons
         Band energy:-522.919530;  BLOECHL correction: -0.009935
       DOS:  cpu time    0.0040: real time    0.0098
    CHARGE:  cpu time    2.0200: real time    2.0403
    MIXING:  cpu time    0.0600: real time    0.0613
    --------------------------------------------
      LOOP:  cpu time   79.7520: real time   80.2378

 eigenvalue-minimisations  :  1152
 total energy-change (2. order) : 0.1224903E+00  (-0.4816241E-04)
 number of electron      61.9797601 magnetization       7.8563254
 augmentation part        0.4988078 magnetization       5.0805909

 Broyden mixing:
  rms(total) = 0.29982E-01    rms(broyden)= 0.29959E-01
  rms(prec ) = 0.32091E-01
  weight for this iteration     100.00

 eigenvalues of (default mixing * dielectric matrix)
  average eigenvalue GAMMA=   1.4628
 10.0117  2.8932  1.9758  1.1710  1.1710  0.9553  0.9553  0.3933  0.3933  1.0158
  1.0158  0.8334  0.8334  0.6514  0.6514  0.6096  0.3999  0.3999

 Free energy of the ion-electron system (eV)
  ---------------------------------------------------
  alpha Z        PSCENC =        35.92350892
  Ewald energy   TEWEN  =      7519.48427785
  -Hartree energ DENC   =    -10262.00527265
  -exchange      EXHF   =         0.00000000
  -V(xc)+E(xc)   XCENC  =         3.73289025
  PAW double counting   =      1660.24165618    -1572.10881480
  entropy T*S    EENTRO =         0.00000000
  eigenvalues    EBANDS =      -522.91953023
  atomic energy  EATOM  =      3097.35731227
  Solvation  Ediel_sol  =         0.00000000
  ---------------------------------------------------
  free energy    TOTEN  =       -40.29397222 eV

  energy without entropy =      -40.29397222  energy(sigma->0) =      -40.29397222


--------------------------------------------------------------------------------------------------------




--------------------------------------- Iteration      1(  24)  ---------------------------------------


    POTLOK:  cpu time   50.8840: real time   51.2776
    SETDIJ:  cpu time    0.0400: real time    0.0416
     EDDAV:  cpu time   26.0480: real time   26.2025
 BZINTS: Fermi energy: -3.647773; 61.970941 electrons
         Band energy:-523.003350;  BLOECHL correction: -0.010358
       DOS:  cpu time    0.0080: real time    0.0091
    CHARGE:  cpu time    2.0720: real time    2.0805
    MIXING:  cpu time    0.0600: real time    0.0604
    --------------------------------------------
      LOOP:  cpu time   79.1120: real time   79.6716

 eigenvalue-minimisations  :  1136
 total energy-change (2. order) : 0.3251527E-01  (-0.1128271E-03)
 number of electron      61.9709416 magnetization       7.8553950
 augmentation part        0.5015921 magnetization       5.0760857

 Broyden mixing:
  rms(total) = 0.26671E-01    rms(broyden)= 0.26669E-01
  rms(prec ) = 0.29023E-01
  weight for this iteration     100.00

 eigenvalues of (default mixing * dielectric matrix)
  average eigenvalue GAMMA=   1.5059
[...]
     34      -0.8465      0.00000
     35      -0.6897      0.00000
     36      -0.5627      0.00000
     37      -0.4547      0.00000
     38       0.3313      0.00000
     39       0.4549      0.00000
     40       0.9414      0.00000
     41       1.1482      0.00000
     42       1.3135      0.00000
     43       2.2565      0.00000
     44       2.5211      0.00000
     45       3.1912      0.00000
     46       3.4485      0.00000
     47       3.6083      0.00000
     48       3.7117      0.00000

 k-point     5 :      -0.4000    0.2000    0.0000
  band No.  band energies     occupation 
      1     -17.5180      1.00000
      2     -16.3915      1.00000
      3     -16.1759      1.00000
      4     -16.0023      1.00000
      5     -15.5966      1.00000
      6     -15.4735      1.00000
      7     -13.1075      1.00000
      8     -11.2809      1.00000
      9      -8.3973      1.00000
     10      -7.9353      1.00000
     11      -7.8655      1.00000
     12      -7.3375      1.00000
     13      -6.9992      1.00000
     14      -6.3924      1.00000
     15      -6.0021      1.00000
     16      -5.8031      1.00000
     17      -5.7662      1.00000
     18      -5.6293      1.00000
     19      -5.5775      1.00000
     20      -5.1048      1.00000
     21      -5.0329      1.00000
     22      -4.5588      1.00000
     23      -4.0796      1.00000
     24      -4.0088      1.00000
     25      -3.7295      1.00000
     26      -3.4070      1.00000
     27      -2.7032      1.00000
     28      -2.6991      1.00000
     29      -2.3881      1.00000
     30      -2.3001      1.00000
     31      -2.2569      1.00000
     32      -2.0069      0.00000
     33      -1.1675      0.00000
     34      -1.1067      0.00000
     35      -0.6417      0.00000
     36      -0.3822      0.00000
     37      -0.3542      0.00000
     38      -0.1375      0.00000
     39       0.5026      0.00000
     40       0.7189      0.00000
     41       1.0927      0.00000
     42       1.1526      0.00000
     43       2.8563      0.00000
     44       3.0584      0.00000
     45       3.0764      0.00000
     46       3.1411      0.00000
     47       3.3730      0.00000
     48       3.7699      0.00000


--------------------------------------------------------------------------------------------------------


 soft charge-density along one line, spin component           1
         0         1         2         3         4         5         6         7         8         9
 total charge-density along one line

 soft charge-density along one line, spin component           2
         0         1         2         3         4         5         6         7         8         9
 total charge-density along one line

 pseudopotential strength for first ion, spin component:           1
 -9.648  -0.062  -0.000   0.000  -0.000   0.515   0.019   0.000
 -0.062  -9.726   0.000  -0.000   0.000   0.019   0.538  -0.000
 -0.000   0.000  -9.604   0.000   0.000   0.000  -0.000   0.501
  0.000  -0.000   0.000  -9.726   0.062  -0.000   0.000  -0.000
 -0.000   0.000   0.000   0.062  -9.648   0.000   0.000  -0.000
  0.515   0.019   0.000  -0.000   0.000   0.589  -0.007  -0.000
  0.019   0.538  -0.000   0.000   0.000  -0.007   0.581   0.000
  0.000  -0.000   0.501  -0.000  -0.000  -0.000   0.000   0.594
 -0.000   0.000  -0.000   0.538  -0.019  -0.000   0.000   0.000
  0.000   0.000  -0.000  -0.019   0.515  -0.000  -0.000   0.000
 -0.000  -0.000   0.003  -0.000   0.000  -0.000  -0.000  -0.000
  0.000   0.000  -0.000   0.000  -0.000  -0.000  -0.000   0.000
 -0.000  -0.000   0.000  -0.000   0.003  -0.000   0.000  -0.000
 -0.000  -0.000  -0.000  -0.000  -0.000  -0.000   0.000   0.000
  0.003  -0.000   0.000  -0.000   0.000  -0.000  -0.000  -0.000
  0.000   0.000  -0.000   0.000  -0.002  -0.000  -0.000   0.000
  0.000   0.000   0.000   0.000   0.000  -0.000  -0.000  -0.000
 -0.002   0.000  -0.000   0.000  -0.000   0.000  -0.000   0.000
 pseudopotential strength for first ion, spin component:           2
 -9.648  -0.062  -0.000   0.000  -0.000   0.515   0.019   0.000
 -0.062  -9.726   0.000  -0.000   0.000   0.019   0.538  -0.000
 -0.000   0.000  -9.604   0.000   0.000   0.000  -0.000   0.501
  0.000  -0.000   0.000  -9.726   0.062  -0.000   0.000  -0.000
 -0.000   0.000   0.000   0.062  -9.648   0.000   0.000  -0.000
  0.515   0.019   0.000  -0.000   0.000   0.589  -0.007  -0.000
  0.019   0.538  -0.000   0.000   0.000  -0.007   0.581   0.000
  0.000  -0.000   0.501  -0.000  -0.000  -0.000   0.000   0.594
 -0.000   0.000  -0.000   0.538  -0.019  -0.000   0.000   0.000
  0.000   0.000  -0.000  -0.019   0.515  -0.000  -0.000   0.000
 -0.000  -0.000   0.003  -0.000   0.000  -0.000  -0.000  -0.000
  0.000   0.000  -0.000   0.000  -0.000  -0.000  -0.000   0.000
 -0.000  -0.000   0.000  -0.000   0.003  -0.000   0.000  -0.000
 -0.000  -0.000  -0.000  -0.000  -0.000  -0.000   0.000   0.000
  0.003  -0.000   0.000  -0.000   0.000  -0.000  -0.000  -0.000
  0.000   0.000  -0.000   0.000  -0.002  -0.000  -0.000   0.000
  0.000   0.000   0.000   0.000   0.000  -0.000  -0.000  -0.000
 -0.002   0.000  -0.000   0.000  -0.000   0.000  -0.000   0.000
 total augmentation occupancy for first ion, spin component:           1
  1.531  -0.351   0.000  -0.000  -0.000   0.172   0.163   0.000  -0.000  -0.000  -0.000  -0.000  -0.000  -0.000   0.023   0.000
 -0.351   1.182  -0.000  -0.000  -0.000   0.161   0.336   0.000  -0.000  -0.000  -0.000   0.000  -0.000   0.000   0.005   0.000
  0.000  -0.000   1.857  -0.000  -0.000   0.000   0.000   0.006   0.000  -0.000  -0.004  -0.001  -0.000  -0.000   0.000  -0.000
 -0.000  -0.000  -0.000   1.182   0.351  -0.000   0.000   0.000   0.336  -0.161   0.000   0.000  -0.005  -0.000  -0.000   0.000
 -0.000  -0.000  -0.000   0.351   1.531   0.000  -0.000  -0.000  -0.163   0.172   0.000   0.000   0.023   0.000   0.000   0.000
  0.172   0.161   0.000  -0.000   0.000   0.142   0.093   0.000  -0.000  -0.000   0.000  -0.000  -0.000   0.000   0.015   0.000
  0.163   0.336   0.000   0.000  -0.000   0.093   0.222   0.000  -0.000  -0.000   0.000   0.000  -0.000   0.000  -0.003   0.000
  0.000   0.000   0.006   0.000  -0.000   0.000   0.000   0.103   0.000  -0.000   0.022  -0.008  -0.000   0.000   0.000   0.000
 -0.000  -0.000   0.000   0.336  -0.163  -0.000  -0.000   0.000   0.222  -0.093  -0.000  -0.000   0.003   0.000  -0.000  -0.000
 -0.000  -0.000  -0.000  -0.161   0.172  -0.000  -0.000  -0.000  -0.093   0.142  -0.000   0.000   0.015  -0.000   0.000  -0.003
 -0.000  -0.000  -0.004  -0.000   0.000   0.000   0.000   0.022   0.000  -0.000   1.075  -0.309   0.000  -0.000  -0.000   0.000
 -0.000   0.000  -0.001   0.000   0.000  -0.000   0.000  -0.008  -0.000   0.000  -0.309   0.148   0.000   0.000   0.000   0.000
 -0.000  -0.000  -0.000  -0.005   0.023  -0.000  -0.000  -0.000   0.003   0.015   0.000   0.000   0.194   0.000  -0.000  -0.014
 -0.000   0.000  -0.000  -0.000   0.000   0.000  -0.000   0.000   0.000  -0.000  -0.000   0.000   0.000   0.194  -0.000   0.000
  0.023   0.005   0.000  -0.000   0.000   0.015  -0.003   0.000  -0.000   0.000  -0.000  -0.000  -0.000  -0.000   0.194   0.000
  0.000   0.000  -0.000   0.000   0.000   0.000   0.000   0.000  -0.000  -0.003  -0.000   0.000  -0.014   0.000   0.000   0.001
  0.000   0.000   0.000   0.000  -0.000  -0.000  -0.000  -0.000  -0.000   0.000   0.000  -0.000   0.000  -0.015   0.000  -0.000
  0.000  -0.000   0.000   0.000  -0.000  -0.003   0.000  -0.000   0.000  -0.000  -0.000   0.000  -0.000   0.000  -0.014  -0.000
 total augmentation occupancy for first ion, spin component:           2
  0.000  -0.000   0.000  -0.000   0.000   0.000  -0.000   0.000   0.000   0.000   0.000   0.000  -0.000   0.000  -0.000  -0.000
 -0.000   0.000  -0.000  -0.000  -0.000   0.000   0.000   0.000  -0.000   0.000  -0.000   0.000   0.000   0.000   0.000   0.000
  0.000  -0.000   0.000  -0.000  -0.000   0.000  -0.000   0.000  -0.000  -0.000   0.000   0.000   0.000   0.000  -0.000  -0.000
 -0.000  -0.000  -0.000   0.000   0.000   0.000   0.000   0.000   0.000  -0.000  -0.000   0.000  -0.000  -0.000   0.000   0.000
 -0.000  -0.000  -0.000   0.000   0.000  -0.000   0.000  -0.000   0.000   0.000  -0.000  -0.000  -0.000  -0.000   0.000   0.000
  0.000   0.000   0.000   0.000  -0.000  -0.000  -0.000  -0.000   0.000  -0.000  -0.000   0.000  -0.000   0.000   0.000   0.000
 -0.000   0.000  -0.000   0.000   0.000  -0.000   0.000  -0.000  -0.000   0.000   0.000   0.000  -0.000  -0.000  -0.000   0.000
  0.000   0.000   0.000   0.000  -0.000  -0.000  -0.000   0.000  -0.000   0.000  -0.000   0.000  -0.000   0.000  -0.000   0.000
  0.000  -0.000  -0.000   0.000   0.000   0.000  -0.000  -0.000   0.000   0.000   0.000  -0.000   0.000  -0.000  -0.000  -0.000
  0.000   0.000  -0.000  -0.000   0.000   0.000   0.000   0.000   0.000  -0.000   0.000  -0.000   0.000  -0.000   0.000   0.000
  0.000  -0.000   0.000   0.000  -0.000  -0.000   0.000  -0.000   0.000   0.000   0.000   0.000   0.000   0.000  -0.000  -0.000
  0.000   0.000   0.000   0.000  -0.000   0.000   0.000   0.000  -0.000  -0.000   0.000  -0.000   0.000   0.000   0.000   0.000
 -0.000   0.000   0.000  -0.000  -0.000  -0.000  -0.000  -0.000   0.000   0.000   0.000  -0.000   0.000   0.000  -0.000   0.000
  0.000   0.000   0.000  -0.000  -0.000   0.000   0.000   0.000  -0.000  -0.000   0.000   0.000  -0.000   0.000  -0.000   0.000
 -0.000   0.000  -0.000   0.000   0.000   0.000  -0.000  -0.000  -0.000   0.000  -0.000   0.000  -0.000   0.000   0.000  -0.000
 -0.000   0.000  -0.000   0.000   0.000   0.000   0.000   0.000  -0.000   0.000   0.000  -0.000   0.000  -0.000  -0.000  -0.000
 -0.000  -0.000  -0.000   0.000   0.000   0.000   0.000   0.000   0.000  -0.000  -0.000   0.000   0.000   0.000   0.000   0.000
  0.000  -0.000   0.000   0.000   0.000   0.000   0.000   0.000   0.000  -0.000   0.000   0.000   0.000   0.000   0.000   0.000


------------------------ aborting loop because EDIFF is reached ----------------------------------------





 total charge     

# of ion       s       p       d       tot
------------------------------------------
    1        0.375   0.478   6.476   7.330
    2        0.375   0.478   6.476   7.330
    3        1.054   1.375   0.000   2.429
    4        1.054   1.375   0.000   2.429
    5        1.493   2.265   0.060   3.818
    6        1.484   2.261   0.063   3.808
    7        1.491   2.263   0.061   3.815
    8        1.493   2.265   0.060   3.818
    9        1.484   2.261   0.063   3.808
   10        1.491   2.263   0.061   3.815
--------------------------------------------------
tot         11.792  17.287  13.321  42.399



 magnetization (x)

# of ion       s       p       d       tot
------------------------------------------
    1       -0.000   0.000  -0.000  -0.000
    2       -0.000   0.000  -0.000  -0.000
    3        0.000   0.000   0.000   0.000
    4        0.000   0.000   0.000   0.000
    5       -0.000   0.000   0.000   0.000
    6       -0.000  -0.000   0.000  -0.000
    7       -0.000   0.000  -0.000   0.000
    8       -0.000   0.000   0.000   0.000
    9       -0.000  -0.000   0.000  -0.000
   10       -0.000   0.000  -0.000   0.000
--------------------------------------------------
tot         -0.000   0.000  -0.000  -0.000

    CHARGE:  cpu time    2.0440: real time    2.0584
    FORLOC:  cpu time    0.0560: real time    0.0556
    FORNL :  cpu time    7.0320: real time    7.0384
    STRESS:  cpu time   20.7440: real time   21.0315
    FORCOR:  cpu time   51.7160: real time   52.0206
    FORHAR:  cpu time    0.3160: real time    0.3256
    MIXING:  cpu time    0.0440: real time    0.0426
    OFIELD:  cpu time    0.0000: real time    0.0000

  FORCE on cell =-STRESS in cart. coord.  units (eV):
  Direction    XX          YY          ZZ          XY          YZ          ZX
  --------------------------------------------------------------------------------------
  Alpha Z    50.66380    50.66380    50.66380
  Ewald   10672.01564 10672.01258-12686.63004    -0.00182    -0.00060    -0.00107
  Hartree 11163.18899 11163.18972-10855.38781    -0.00015     0.00008     0.00012
  E(xc)    -249.80432  -249.80434  -250.02595     0.00004     0.00001     0.00001
  Local  -22628.87788-22628.87695 22704.91817     0.00152     0.00032     0.00059
  n-local   299.75437   300.21650   307.39165     0.02038    -0.18926    -0.12214
  augment    30.18869    30.18883    25.64453    -0.00004     0.00005     0.00003
  Kinetic   666.00183   659.58271   703.59192    -3.73152     0.87473     0.95014
  Fock        0.00000     0.00000     0.00000     0.00000     0.00000     0.00000
  -------------------------------------------------------------------------------------
  Total       0.15198     0.15198     0.16627     0.00000     0.00000    -0.00000
  in kB       0.35445     0.35445     0.38779     0.00000     0.00000    -0.00000
  external pressure =        0.37 kB  Pullay stress =        0.00 kB


 VOLUME and BASIS-vectors are now :
 -----------------------------------------------------------------------------
  energy-cutoff  :      520.00
  volume of cell :      686.96
      direct lattice vectors                 reciprocal lattice vectors
     6.166259826  0.000000002 -0.000000000     0.162172861 -0.093630539 -0.000000000
     3.083129577  5.340137412 -0.000000000    -0.000000000  0.187261099  0.000000000
     0.000000000 -0.000000000 20.862031001     0.000000000  0.000000000  0.047933972

  length of vectors
     6.166259826  6.166259447 20.862031001     0.187261087  0.187261099  0.047933972


 FORCES acting on ions
    electron-ion (+dipol)            ewald-force                    non-local-force                 convergence-correction
 -----------------------------------------------------------------------------------------------
   -.118E-03 -.656E-04 0.674E+00   0.652E-03 0.386E-03 -.681E+00   0.139E-16 -.347E-21 0.992E-02   -.593E-07 -.106E-06 -.525E-03
   0.118E-03 0.656E-04 -.674E+00   -.652E-03 -.386E-03 0.681E+00   0.416E-16 0.347E-21 -.992E-02   0.593E-07 0.106E-06 0.525E-03
   -.495E-04 -.320E-04 0.304E+03   -.230E-03 -.129E-03 -.304E+03   -.352E-20 -.208E-16 -.606E+00   -.294E-07 -.804E-08 -.549E-02
   0.495E-04 0.320E-04 -.304E+03   0.230E-03 0.129E-03 0.304E+03   0.352E-20 0.692E-17 0.606E+00   0.294E-07 0.804E-08 0.549E-02
   -.119E+02 -.901E-01 -.494E+03   0.948E+01 0.933E-01 0.496E+03   0.243E+01 -.511E-02 -.239E+01   0.590E-02 -.283E-04 0.136E-01
   0.587E+01 0.103E+02 -.494E+03   -.466E+01 -.825E+01 0.496E+03   -.122E+01 -.210E+01 -.239E+01   -.297E-02 -.509E-02 0.136E-01
   0.603E+01 -.103E+02 -.494E+03   -.482E+01 0.816E+01 0.496E+03   -.121E+01 0.211E+01 -.239E+01   -.292E-02 0.512E-02 0.136E-01
   0.119E+02 0.901E-01 0.494E+03   -.948E+01 -.933E-01 -.496E+03   -.243E+01 0.511E-02 0.239E+01   -.590E-02 0.283E-04 -.136E-01
   -.587E+01 -.103E+02 0.494E+03   0.466E+01 0.825E+01 -.496E+03   0.122E+01 0.210E+01 0.239E+01   0.297E-02 0.509E-02 -.136E-01
   -.603E+01 0.103E+02 0.494E+03   0.482E+01 -.816E+01 -.496E+03   0.121E+01 -.211E+01 0.239E+01   0.292E-02 -.512E-02 -.136E-01
 -----------------------------------------------------------------------------------------------
   0.167E-09 0.435E-09 -.442E-09   -.124E-13 0.000E+00 0.114E-12   -.222E-15 0.000E+00 -.444E-15   0.527E-13 -.674E-13 0.404E-10


 POSITION                                       TOTAL-FORCE (eV/Angst)
 -----------------------------------------------------------------------------------
      3.08313      1.78004     10.42940        -0.000000      0.000000      0.002726
      6.16626      3.56009     10.43263        -0.000000     -0.000000     -0.002726
      0.00000     -0.00000      9.34467        -0.000000      0.000000      0.005139
      0.00000     -0.00000     11.51736        -0.000000     -0.000000     -0.005139
      3.85864      0.00057     11.87707         0.017008     -0.001305      0.021359
      1.15431      1.99818     11.87707        -0.009634     -0.014077      0.021359
      4.23645      3.34139     11.87707        -0.007374      0.015382      0.021359
      5.39075      5.33956      8.98496        -0.017008      0.001305     -0.021359
      8.09508      3.34196      8.98496         0.009634      0.014077     -0.021359
      5.01294      1.99875      8.98496         0.007374     -0.015382     -0.021359
 -----------------------------------------------------------------------------------
    total drift:                                0.000000      0.000000     -0.000000


--------------------------------------------------------------------------------------------------------



  FREE ENERGIE OF THE ION-ELECTRON SYSTEM (eV)
  ---------------------------------------------------
  free  energy   TOTEN  =       -44.40215761 eV

  energy  without entropy=      -44.40215761  energy(sigma->0) =      -44.40215761

 d Force = 0.1978559E-04[-0.196E-04, 0.592E-04]  d Energy = 0.4906169E-03-0.471E-03
 d Force =-0.2548373E+01[-0.255E+01,-0.255E+01]  d Ewald  = 0.1099178E+02-0.135E+02


--------------------------------------------------------------------------------------------------------


    POTLOK:  cpu time   52.0920: real time   52.3195


--------------------------------------------------------------------------------------------------------




--------------------------------------------------------------------------------------------------------


  
 reached required accuracy - stopping structural energy minimisation
     LOOP+:  cpu time  526.0720: real time  529.1026
    4ORBIT:  cpu time    0.0000: real time    0.0000



 total charge     

# of ion       s       p       d       tot
------------------------------------------
    1        0.375   0.478   6.476   7.330
    2        0.375   0.478   6.476   7.330
    3        1.054   1.375   0.000   2.429
    4        1.054   1.375   0.000   2.429
    5        1.493   2.265   0.060   3.818
    6        1.484   2.261   0.063   3.808
    7        1.491   2.263   0.061   3.815
    8        1.493   2.265   0.060   3.818
    9        1.484   2.261   0.063   3.808
   10        1.491   2.263   0.061   3.815
--------------------------------------------------
tot         11.792  17.287  13.321  42.399



 magnetization (x)

# of ion       s       p       d       tot
------------------------------------------
    1       -0.000   0.000  -0.000  -0.000
    2       -0.000   0.000  -0.000  -0.000
    3        0.000   0.000   0.000   0.000
    4        0.000   0.000   0.000   0.000
    5       -0.000   0.000   0.000   0.000
    6       -0.000  -0.000   0.000  -0.000
    7       -0.000   0.000  -0.000   0.000
    8       -0.000   0.000   0.000   0.000
    9       -0.000  -0.000   0.000  -0.000
   10       -0.000   0.000  -0.000   0.000
--------------------------------------------------
tot         -0.000   0.000  -0.000  -0.000

 BZINTS: Fermi energy: -2.174508; 62.000000 electrons
         Band energy:-474.801978;  BLOECHL correction:  0.000000

 total amount of memory used by VASP MPI-rank0   131464. kBytes
=======================================================================

   base      :      30000. kBytes
   nonlr-proj:      11154. kBytes
   fftplans  :      11247. kBytes
   grid      :      66142. kBytes
   one-center:        311. kBytes
   wavefun   :      12610. kBytes

  
  
 General timing and accounting informations for this job:
 ========================================================
  
                  Total CPU time used (sec):    17266.760
                            User time (sec):    16912.784
                          System time (sec):      353.976
                         Elapsed time (sec):    17379.834
  
                   Maximum memory used (kb):      388872.
                   Average memory used (kb):           0.
  
                          Minor page faults:     10176696
                          Major page faults:            8
                 Voluntary context switches:         1107
