       N       E                     dE             d eps       ncg     rms          rms(c)
DAV:   1     0.396443277854E+03    0.39644E+03   -0.19797E+04   960   0.964E+02
DAV:   2     0.967812142553E+01   -0.38677E+03   -0.37193E+03  1440   0.196E+02
DAV:   3    -0.328630409889E+02   -0.42541E+02   -0.42044E+02  1264   0.650E+01
DAV:   4    -0.345009978971E+02   -0.16380E+01   -0.16359E+01  1328   0.149E+01
DAV:   5    -0.345298149450E+02   -0.28817E-01   -0.28812E-01  1408   0.225E+00    0.145E+01
DAV:   6    -0.443447590074E+02   -0.98149E+01   -0.62981E+01  1104   0.966E+01    0.247E+01
DAV:   7    -0.331984473045E+02    0.11146E+02   -0.20467E+01  1120   0.567E+01    0.685E+00
DAV:   8    -0.332629198064E+02   -0.64473E-01   -0.67277E+00  1488   0.287E+01    0.736E+00
DAV:   9    -0.331833089126E+02    0.79611E-01   -0.29160E+00  1184   0.202E+01    0.385E+00
DAV:  10    -0.331479383252E+02    0.35371E-01   -0.48444E-01  1184   0.774E+00    0.148E+00
DAV:  11    -0.332370375333E+02   -0.89099E-01   -0.23775E-01  1360   0.640E+00    0.227E+00
DAV:  12    -0.337461959030E+02   -0.50916E+00   -0.27940E+00  1392   0.637E+00    0.718E+00
DAV:  13    -0.330298957733E+02    0.71630E+00   -0.24165E+02  1120   0.519E+01    0.142E+00
DAV:  14    -0.333038947614E+02   -0.27400E+00   -0.11468E+00  1136   0.369E+00    0.966E-01
DAV:  15    -0.333385719829E+02   -0.34677E-01   -0.11545E-01  1264   0.255E+00    0.356E-01
DAV:  16    -0.333430248569E+02   -0.44529E-02   -0.14184E-02  1152   0.932E-01    0.286E-01
DAV:  17    -0.333419584937E+02    0.10664E-02   -0.33552E-03  1040   0.635E-01    0.241E-01
DAV:  18    -0.333417507413E+02    0.20775E-03   -0.12576E-03  1072   0.255E-01    0.223E-01
DAV:  19    -0.333413369209E+02    0.41382E-03   -0.57396E-04   992   0.138E-01    0.220E-01
DAV:  20    -0.333411915502E+02    0.14537E-03   -0.24061E-04   944   0.850E-02    0.219E-01
DAV:  21    -0.617692747554E+02   -0.28428E+02   -0.27982E+02  1040   0.143E+00    0.199E+01
DAV:  22    -0.317360723433E+02    0.30033E+02   -0.11315E+03  1168   0.304E+01    0.317E+00
DAV:  23    -0.332255244499E+02   -0.14895E+01   -0.90914E+00  1120   0.255E+00    0.722E-01
DAV:  24    -0.333252503309E+02   -0.99726E-01   -0.19719E-01  1104   0.941E-01    0.288E-01
DAV:  25    -0.333407554966E+02   -0.15505E-01   -0.85249E-03  1104   0.364E-01    0.247E-01
DAV:  26    -0.333425665969E+02   -0.18111E-02   -0.35746E-03   976   0.318E-01    0.230E-01
DAV:  27    -0.333453007043E+02   -0.27341E-02   -0.15070E-02   864   0.410E-01    0.222E-01
DAV:  28    -0.333434402122E+02    0.18605E-02   -0.27733E-02   864   0.707E-01    0.218E-01
DAV:  29    -0.333434919648E+02   -0.51753E-04   -0.27276E-03   992   0.276E-01    0.214E-01
DAV:  30    -0.333439017165E+02   -0.40975E-03   -0.41670E-03   928   0.323E-01    0.217E-01
DAV:  31    -0.333427936405E+02    0.11081E-02   -0.31414E-03   944   0.272E-01    0.222E-01
DAV:  32    -0.333420036846E+02    0.78996E-03   -0.36494E-04  1008   0.103E-01    0.220E-01
DAV:  33    -0.333430077977E+02   -0.10041E-02   -0.63364E-04   928   0.127E-01    0.219E-01
DAV:  34    -0.333431253496E+02   -0.11755E-03   -0.21298E-03   864   0.205E-01    0.220E-01
DAV:  35    -0.333419840975E+02    0.11413E-02   -0.20913E-03   816   0.203E-01    0.221E-01
DAV:  36    -0.333425455990E+02   -0.56150E-03   -0.25415E-04   848   0.871E-02    0.224E-01
DAV:  37    -0.333421091623E+02    0.43644E-03   -0.25505E-04   896   0.806E-02    0.227E-01
DAV:  38    -0.333420624696E+02    0.46693E-04   -0.62684E-04   896   0.107E-01
   1 F= -.33342062E+02 E0= -.33342062E+02  d E =-.333421E+02  mag=     2.8340
       N       E                     dE             d eps       ncg     rms          rms(c)
DAV:   1    -0.516098515315E+02   -0.18268E+02   -0.16547E+02  1184   0.121E+02    0.506E+01
DAV:   2    -0.135329842650E+03   -0.83720E+02   -0.79675E+02   976   0.312E+02    0.468E+01
DAV:   3    -0.493713205417E+02    0.85959E+02   -0.20352E+02  1024   0.829E+01    0.234E+01
DAV:   4    -0.335225081498E+02    0.15849E+02   -0.52211E+01  1184   0.891E+01    0.576E+00
DAV:   5    -0.343275060204E+02   -0.80500E+00   -0.93480E+00  1056   0.121E+01    0.833E+00
DAV:   6    -0.354721034427E+02   -0.11446E+01   -0.10329E+01  1056   0.444E+01    0.110E+01
DAV:   7    -0.340746504630E+02    0.13975E+01   -0.16511E+00  1072   0.231E+01    0.503E+00
DAV:   8    -0.338958147018E+02    0.17884E+00   -0.52089E-01  1344   0.851E+00    0.312E+00
DAV:   9    -0.338408676785E+02    0.54947E-01   -0.20646E-01  1360   0.571E+00    0.143E+00
DAV:  10    -0.338331111100E+02    0.77566E-02   -0.10313E-01  1248   0.398E+00    0.763E-01
DAV:  11    -0.338901297736E+02   -0.57019E-01   -0.37715E-02  1296   0.177E+00    0.102E+00
DAV:  12    -0.338690202300E+02    0.21110E-01   -0.90406E-03   976   0.774E-01    0.843E-01
DAV:  13    -0.338696973292E+02   -0.67710E-03   -0.22043E-03   992   0.316E-01    0.825E-01
DAV:  14    -0.338669375972E+02    0.27597E-02   -0.11836E-03  1056   0.286E-01    0.827E-01
DAV:  15    -0.338587556183E+02    0.81820E-02   -0.99016E-03  1104   0.128E+00    0.474E-01
DAV:  16    -0.338704323408E+02   -0.11677E-01   -0.21928E-02  1120   0.154E+00    0.550E-01
DAV:  17    -0.338692275440E+02    0.12048E-02   -0.10031E-02  1360   0.145E+00    0.158E-01
DAV:  18    -0.338695678573E+02   -0.34031E-03   -0.38601E-03  1184   0.524E-01    0.177E-01
DAV:  19    -0.338696633325E+02   -0.95475E-04   -0.91878E-04  1280   0.346E-01
   2 F= -.33869663E+02 E0= -.33869663E+02  d E =-.527601E+00  mag=    -0.0799
       N       E                     dE             d eps       ncg     rms          rms(c)
DAV:   1    -0.347663080623E+02   -0.89674E+00   -0.86537E+00  1216   0.296E+01    0.853E+00
DAV:   2    -0.401299246918E+02   -0.53636E+01   -0.19737E+01  1280   0.741E+01    0.273E+01
DAV:   3    -0.342260224969E+02    0.59039E+01   -0.14453E+01  1088   0.444E+01    0.513E+00
DAV:   4    -0.340563195576E+02    0.16970E+00   -0.13115E+00  1232   0.135E+01    0.453E+00
DAV:   5    -0.339546141180E+02    0.10171E+00   -0.41383E-01  1248   0.810E+00    0.178E+00
DAV:   6    -0.339259825612E+02    0.28632E-01   -0.75149E-02  1264   0.273E+00    0.886E-01
DAV:   7    -0.339185511436E+02    0.74314E-02   -0.29434E-02  1328   0.161E+00    0.582E-01
DAV:   8    -0.339172957554E+02    0.12554E-02   -0.14620E-02  1328   0.105E+00    0.392E-01
DAV:   9    -0.339170335183E+02    0.26224E-03   -0.96370E-04  1104   0.276E-01    0.361E-01
DAV:  10    -0.339177098003E+02   -0.67628E-03   -0.11633E-02  1040   0.918E-01    0.394E-01
DAV:  11    -0.339184640628E+02   -0.75426E-03   -0.24350E-03  1232   0.311E-01    0.475E-01
DAV:  12    -0.339174618995E+02    0.10022E-02   -0.90012E-04   848   0.317E-01    0.470E-01
DAV:  13    -0.339169787185E+02    0.48318E-03   -0.72536E-04   800   0.199E-01    0.431E-01
DAV:  14    -0.339169524497E+02    0.26269E-04   -0.11855E-04   672   0.683E-02
   3 F= -.33916952E+02 E0= -.33916952E+02  d E =-.574890E+00  mag=    -0.0360
       N       E                     dE             d eps       ncg     rms          rms(c)
DAV:   1    -0.339322453956E+02   -0.15267E-01   -0.12906E-01  1184   0.352E+00    0.123E+00
DAV:   2    -0.340239704185E+02   -0.91725E-01   -0.38286E-01  1056   0.998E+00    0.304E+00
DAV:   3    -0.339389214561E+02    0.85049E-01   -0.30173E-01   992   0.976E+00    0.198E+00
DAV:   4    -0.339246757362E+02    0.14246E-01   -0.10086E-01  1232   0.329E+00    0.798E-01
DAV:   5    -0.339237241546E+02    0.95158E-03   -0.54593E-03  1232   0.573E-01    0.760E-01
DAV:   6    -0.339275953774E+02   -0.38712E-02   -0.20871E-02  1184   0.189E+00    0.111E+00
DAV:   7    -0.339295838824E+02   -0.19885E-02   -0.55988E-03  1280   0.787E-01    0.124E+00
DAV:   8    -0.339314176029E+02   -0.18337E-02   -0.17648E-03  1280   0.371E-01    0.135E+00
DAV:   9    -0.339335131544E+02   -0.20956E-02   -0.10845E-03  1104   0.305E-01    0.144E+00
DAV:  10    -0.339335516862E+02   -0.38532E-04   -0.62702E-04   976   0.219E-01
   4 F= -.33933552E+02 E0= -.33933552E+02  d E =-.591489E+00  mag=    -0.0337
       N       E                     dE             d eps       ncg     rms          rms(c)
DAV:   1    -0.340944888982E+02   -0.16098E+00   -0.16581E+00  1232   0.128E+01    0.447E+00
DAV:   2    -0.354418428021E+02   -0.13474E+01   -0.70876E+00  1136   0.395E+01    0.104E+01
DAV:   3    -0.339768333423E+02    0.14650E+01   -0.28718E+00  1008   0.359E+01    0.364E+00
DAV:   4    -0.339377180166E+02    0.39115E-01   -0.82476E-01  1200   0.944E+00    0.193E+00
DAV:   5    -0.339301708360E+02    0.75472E-02   -0.22116E-01  1264   0.556E+00    0.173E+00
DAV:   6    -0.339128971383E+02    0.17274E-01   -0.74161E-02  1232   0.326E+00    0.612E-01
DAV:   7    -0.339123078951E+02    0.58924E-03   -0.47976E-03  1152   0.466E-01    0.517E-01
DAV:   8    -0.339100151165E+02    0.22928E-02   -0.31016E-03  1040   0.655E-01    0.463E-01
DAV:   9    -0.339143420405E+02   -0.43269E-02   -0.17380E-02  1200   0.145E+00    0.578E-01
DAV:  10    -0.339141001475E+02    0.24189E-03   -0.66942E-03  1312   0.683E-01    0.457E-01
DAV:  11    -0.339140103926E+02    0.89755E-04   -0.97176E-04  1200   0.258E-01
   5 F= -.33914010E+02 E0= -.33914010E+02  d E =-.571948E+00  mag=     0.0092
       N       E                     dE             d eps       ncg     rms          rms(c)
DAV:   1    -0.339945260913E+02   -0.80426E-01   -0.71443E-01  1152   0.854E+00    0.256E+00
DAV:   2    -0.344106962671E+02   -0.41617E+00   -0.16457E+00  1152   0.224E+01    0.711E+00
DAV:   3    -0.339747566568E+02    0.43594E+00   -0.13731E+00  1040   0.172E+01    0.263E+00
DAV:   4    -0.339398550557E+02    0.34902E-01   -0.19636E-01  1200   0.530E+00    0.110E+00
DAV:   5    -0.339272325452E+02    0.12623E-01   -0.28837E-02  1104   0.218E+00    0.294E-01
DAV:   6    -0.339269219281E+02    0.31062E-03   -0.30435E-03  1504   0.375E-01    0.136E-01
DAV:   7    -0.339269017561E+02    0.20172E-04   -0.88716E-04  1040   0.301E-01
   6 F= -.33926902E+02 E0= -.33926902E+02  d E =-.584839E+00  mag=     0.0151
       N       E                     dE             d eps       ncg     rms          rms(c)
DAV:   1    -0.339364111645E+02   -0.94892E-02   -0.74965E-02  1168   0.276E+00    0.845E-01
DAV:   2    -0.339803489442E+02   -0.43938E-01   -0.17958E-01  1056   0.728E+00    0.221E+00
DAV:   3    -0.339291168952E+02    0.51232E-01   -0.10825E-01  1088   0.583E+00    0.289E-01
DAV:   4    -0.339305960891E+02   -0.14792E-02   -0.12070E-02  1344   0.121E+00    0.475E-01
DAV:   5    -0.339288804874E+02    0.17156E-02   -0.44810E-03  1104   0.962E-01    0.844E-02
DAV:   6    -0.339289662087E+02   -0.85721E-04   -0.45940E-04   864   0.201E-01
   7 F= -.33928966E+02 E0= -.33928966E+02  d E =-.586904E+00  mag=     0.0108
       N       E                     dE             d eps       ncg     rms          rms(c)
DAV:   1    -0.340076686618E+02   -0.78788E-01   -0.16615E+00  1216   0.604E+00    0.169E+00
DAV:   2    -0.340907981994E+02   -0.83130E-01   -0.48151E-01  1056   0.118E+01    0.343E+00
DAV:   3    -0.339613306099E+02    0.12947E+00   -0.29024E-01  1168   0.106E+01    0.664E-01
DAV:   4    -0.339471011161E+02    0.14229E-01   -0.61508E-02  1088   0.133E+00    0.356E-01
DAV:   5    -0.339477139886E+02   -0.61287E-03   -0.98629E-03  1152   0.144E+00    0.455E-01
DAV:   6    -0.339465297789E+02    0.11842E-02   -0.43457E-03  1184   0.987E-01    0.655E-02
DAV:   7    -0.339469051442E+02   -0.37537E-03   -0.57179E-04  1040   0.164E-01    0.427E-02
DAV:   8    -0.339475349020E+02   -0.62976E-03   -0.34750E-04  1056   0.101E-01    0.200E-02
DAV:   9    -0.339482736961E+02   -0.73879E-03   -0.35524E-04  1008   0.856E-02    0.255E-02
DAV:  10    -0.339491387498E+02   -0.86505E-03   -0.67548E-04  1040   0.793E-02    0.196E-02
DAV:  11    -0.339495749380E+02   -0.43619E-03   -0.38089E-04  1024   0.685E-02    0.134E-02
DAV:  12    -0.339497410654E+02   -0.16613E-03   -0.44104E-04   960   0.623E-02    0.122E-02
DAV:  13    -0.339496012131E+02    0.13985E-03   -0.24030E-04   912   0.363E-02    0.945E-03
DAV:  14    -0.339494802308E+02    0.12098E-03   -0.73320E-05   800   0.294E-02    0.881E-03
DAV:  15    -0.339495484652E+02   -0.68234E-04   -0.20206E-05   864   0.184E-02
   8 F= -.33949548E+02 E0= -.33949548E+02  d E =-.205823E-01  mag=     0.0034
       N       E                     dE             d eps       ncg     rms          rms(c)
DAV:   1    -0.340318322195E+02   -0.82352E-01   -0.21129E+00  1200   0.693E+00    0.194E+00
DAV:   2    -0.341489807422E+02   -0.11715E+00   -0.65702E-01  1024   0.137E+01    0.397E+00
DAV:   3    -0.339708428816E+02    0.17814E+00   -0.39268E-01  1120   0.123E+01    0.736E-01
DAV:   4    -0.339523254204E+02    0.18517E-01   -0.80735E-02  1104   0.134E+00    0.301E-01
DAV:   5    -0.339525220761E+02   -0.19666E-03   -0.58777E-03  1136   0.935E-01    0.255E-01
DAV:   6    -0.339525075471E+02    0.14529E-04   -0.25886E-03  1280   0.726E-01    0.120E-01
DAV:   7    -0.339533142692E+02   -0.80672E-03   -0.82183E-04  1088   0.275E-01    0.447E-02
DAV:   8    -0.339540741732E+02   -0.75990E-03   -0.55736E-04  1136   0.128E-01    0.243E-02
DAV:   9    -0.339548910742E+02   -0.81690E-03   -0.34616E-04  1024   0.841E-02    0.236E-02
DAV:  10    -0.339561341432E+02   -0.12431E-02   -0.11060E-03  1024   0.952E-02    0.194E-02
DAV:  11    -0.339565345070E+02   -0.40036E-03   -0.41684E-04  1056   0.793E-02    0.149E-02
DAV:  12    -0.339567345897E+02   -0.20008E-03   -0.48336E-04  1024   0.646E-02    0.123E-02
DAV:  13    -0.339565858980E+02    0.14869E-03   -0.28961E-04   896   0.420E-02    0.952E-03
DAV:  14    -0.339564572625E+02    0.12864E-03   -0.82744E-05   832   0.291E-02    0.956E-03
DAV:  15    -0.339565482150E+02   -0.90952E-04   -0.28218E-05   864   0.217E-02
   9 F= -.33956548E+02 E0= -.33956548E+02  d E =-.275820E-01  mag=     0.0040
       N       E                     dE             d eps       ncg     rms          rms(c)
DAV:   1    -0.339884055223E+02   -0.31948E-01   -0.86670E-01  1088   0.460E+00    0.103E+00
DAV:   2    -0.340221485442E+02   -0.33743E-01   -0.19394E-01  1152   0.700E+00    0.206E+00
DAV:   3    -0.339768882699E+02    0.45260E-01   -0.11367E-01  1072   0.614E+00    0.559E-01
DAV:   4    -0.339720401658E+02    0.48481E-02   -0.18518E-02  1216   0.108E+00    0.145E-01
DAV:   5    -0.339716579928E+02    0.38217E-03   -0.16744E-03  1440   0.393E-01    0.421E-02
DAV:   6    -0.339715988900E+02    0.59103E-04   -0.37885E-04   992   0.166E-01
  10 F= -.33971599E+02 E0= -.33971599E+02  d E =-.150507E-01  mag=     0.0035
       N       E                     dE             d eps       ncg     rms          rms(c)
DAV:   1    -0.339906465626E+02   -0.18989E-01   -0.76903E-01   960   0.432E+00    0.960E-01
DAV:   2    -0.340190299044E+02   -0.28383E-01   -0.16436E-01  1152   0.645E+00    0.194E+00
DAV:   3    -0.339815757203E+02    0.37454E-01   -0.10555E-01  1088   0.586E+00    0.729E-01
DAV:   4    -0.339882075934E+02   -0.66319E-02   -0.54043E-02  1168   0.352E+00    0.132E+00
DAV:   5    -0.339754350930E+02    0.12773E-01   -0.31281E-02  1088   0.275E+00    0.171E-01
DAV:   6    -0.339750748197E+02    0.36027E-03   -0.39002E-03  1232   0.535E-01    0.806E-02
DAV:   7    -0.339753480309E+02   -0.27321E-03   -0.48297E-04  1104   0.163E-01    0.300E-02
DAV:   8    -0.339755596326E+02   -0.21160E-03   -0.13504E-04   976   0.849E-02    0.158E-02
DAV:   9    -0.339760371881E+02   -0.47756E-03   -0.17455E-04   896   0.505E-02    0.144E-02
DAV:  10    -0.339765412969E+02   -0.50411E-03   -0.30555E-04   928   0.611E-02    0.154E-02
DAV:  11    -0.339768859748E+02   -0.34468E-03   -0.28858E-04   960   0.454E-02    0.100E-02
DAV:  12    -0.339770130318E+02   -0.12706E-03   -0.31875E-04   816   0.446E-02    0.719E-03
DAV:  13    -0.339769576553E+02    0.55376E-04   -0.14268E-04   928   0.277E-02
  11 F= -.33976958E+02 E0= -.33976958E+02  d E =-.204094E-01  mag=     0.0021
       N       E                     dE             d eps       ncg     rms          rms(c)
DAV:   1    -0.340133661858E+02   -0.36353E-01   -0.41964E-01  1168   0.584E+00    0.179E+00
DAV:   2    -0.342096683019E+02   -0.19630E+00   -0.79383E-01  1072   0.154E+01    0.434E+00
DAV:   3    -0.339813671516E+02    0.22830E+00   -0.44230E-01  1040   0.132E+01    0.371E-01
DAV:   4    -0.339823353513E+02   -0.96820E-03   -0.49825E-02  1024   0.852E-01    0.374E-01
DAV:   5    -0.339812047141E+02    0.11306E-02   -0.36388E-03  1184   0.928E-01    0.239E-01
DAV:   6    -0.339808652081E+02    0.33951E-03   -0.15169E-03  1232   0.535E-01    0.582E-02
DAV:   7    -0.339807493804E+02    0.11583E-03   -0.15686E-04   816   0.116E-01    0.343E-02
DAV:   8    -0.339806418595E+02    0.10752E-03   -0.56322E-05   768   0.722E-02    0.143E-02
DAV:   9    -0.339806242571E+02    0.17602E-04   -0.28833E-05   704   0.396E-02
  12 F= -.33980624E+02 E0= -.33980624E+02  d E =-.366660E-02  mag=     0.0021
       N       E                     dE             d eps       ncg     rms          rms(c)
DAV:   1    -0.339825981368E+02   -0.19563E-02   -0.22940E-02  1024   0.137E+00    0.409E-01
DAV:   2    -0.339928979491E+02   -0.10300E-01   -0.41163E-02  1008   0.356E+00    0.103E+00
DAV:   3    -0.339809169459E+02    0.11981E-01   -0.24035E-02  1024   0.300E+00    0.120E-01
DAV:   4    -0.339812039805E+02   -0.28703E-03   -0.30517E-03  1296   0.575E-01    0.256E-01
DAV:   5    -0.339808177305E+02    0.38625E-03   -0.12308E-03  1040   0.522E-01    0.601E-02
DAV:   6    -0.339807842100E+02    0.33520E-04   -0.17071E-04   832   0.144E-01
  13 F= -.33980784E+02 E0= -.33980784E+02  d E =-.382655E-02  mag=     0.0020
       N       E                     dE             d eps       ncg     rms          rms(c)
DAV:   1    -0.339830203708E+02   -0.22026E-02   -0.37926E-02  1008   0.119E+00    0.341E-01
DAV:   2    -0.339889758875E+02   -0.59555E-02   -0.25721E-02   976   0.283E+00    0.825E-01
DAV:   3    -0.339814313862E+02    0.75445E-02   -0.15415E-02  1024   0.241E+00    0.116E-01
DAV:   4    -0.339815350061E+02   -0.10362E-03   -0.30479E-03  1296   0.643E-01    0.292E-01
DAV:   5    -0.339810113559E+02    0.52365E-03   -0.16970E-03  1040   0.623E-01    0.495E-02
DAV:   6    -0.339809620488E+02    0.49307E-04   -0.18478E-04   816   0.133E-01
  14 F= -.33980962E+02 E0= -.33980962E+02  d E =-.177839E-03  mag=     0.0018
       N       E                     dE             d eps       ncg     rms          rms(c)
DAV:   1    -0.339860570102E+02   -0.50457E-02   -0.10515E-01  1072   0.198E+00    0.565E-01
DAV:   2    -0.340023860870E+02   -0.16329E-01   -0.70332E-02  1040   0.469E+00    0.135E+00
DAV:   3    -0.339817598671E+02    0.20626E-01   -0.41807E-02  1024   0.398E+00    0.188E-01
DAV:   4    -0.339822248900E+02   -0.46502E-03   -0.86297E-03  1296   0.108E+00    0.494E-01
DAV:   5    -0.339807541825E+02    0.14707E-02   -0.48165E-03  1072   0.105E+00    0.831E-02
DAV:   6    -0.339806569670E+02    0.97216E-04   -0.48170E-04   880   0.221E-01
  15 F= -.33980657E+02 E0= -.33980657E+02  d E =0.127243E-03  mag=     0.0017
