 vasp.5.4.4.18Apr17-6-g9f103f2a35 (build May  1 2020 15:48:39) complex           
 executed on             LinuxGNU date 2020.06.20  05:30:26
 running on   16 total cores
 distrk:  each k-point on   16 cores,    1 groups
 distr:  one band on NCORES_PER_BAND=   1 cores,   16 groups


--------------------------------------------------------------------------------------------------------


 INCAR:
 POTCAR:   PAW_PBE Ni 06Sep2000                   
 POTCAR:   PAW_PBE Si 05Jan2001                   
 POTCAR:    PAW_PBE P 17Jan2003                   
 POTCAR:   PAW_PBE Te 08Apr2002                   

 ----------------------------------------------------------------------------- 
|                                                                             |
|           W    W    AA    RRRRR   N    N  II  N    N   GGGG   !!!           |
|           W    W   A  A   R    R  NN   N  II  NN   N  G    G  !!!           |
|           W    W  A    A  R    R  N N  N  II  N N  N  G       !!!           |
|           W WW W  AAAAAA  RRRRR   N  N N  II  N  N N  G  GGG   !            |
|           WW  WW  A    A  R   R   N   NN  II  N   NN  G    G                |
|           W    W  A    A  R    R  N    N  II  N    N   GGGG   !!!           |
|                                                                             |
|      For optimal performance we recommend to set                            |
|        NCORE= 4 - approx SQRT( number of cores)                             |
|      NCORE specifies how many cores store one orbital (NPAR=cpu/NCORE).     |
|      This setting can  greatly improve the performance of VASP for DFT.     |
|      The default,   NCORE=1            might be grossly inefficient         |
|      on modern multi-core architectures or massively parallel machines.     |
|      Do your own testing !!!!                                               |
|      Unfortunately you need to use the default for GW and RPA calculations. |
|      (for HF NCORE is supported but not extensively tested yet)             |
|                                                                             |
 ----------------------------------------------------------------------------- 


 ----------------------------------------------------------------------------- 
|                                                                             |
|  ADVICE TO THIS USER RUNNING 'VASP/VAMP'   (HEAR YOUR MASTER'S VOICE ...):  |
|                                                                             |
|      You have switched on vdW-DFT.                                          |
|      This routine was written and supplied by Jiri Klimes.                  |
|      We recommed that you carefully read and cite the following             |
|      publication                                                            |
|      J. Klimes, D.R. Bowler, A. Michelides                                  |
|        J. Phys.: Cond Matt. 22 022201 (2010)                                |
|      J. Klimes, D.R. Bowler, A. Michelides                                  |
|        Phys. Rev. B. 83, 195131 (2011)                                      |
|      and references therein.                                                |
|                                                                             |
 ----------------------------------------------------------------------------- 

 POTCAR:   PAW_PBE Ni 06Sep2000                   
   VRHFIN =Ni:                                                                  
   LEXCH  = PE                                                                  
   EATOM  =  1077.9025 eV,   79.2236 Ry                                         
                                                                                
   TITEL  = PAW_PBE Ni 06Sep2000                                                
   LULTRA =        F    use ultrasoft PP ?                                      
   IUNSCR =        1    unscreen: 0-lin 1-nonlin 2-no                           
   RPACOR =    2.000    partial core radius                                     
   POMASS =   58.690; ZVAL   =   10.000    mass and valenz                      
   RCORE  =    2.300    outmost cutoff radius                                   
   RWIGS  =    2.430; RWIGS  =    1.286    wigner-seitz radius (au A)           
   ENMAX  =  269.533; ENMIN  =  202.150 eV                                      
   RCLOC  =    1.681    cutoff for local pot                                    
   LCOR   =        T    correct aug charges                                     
   LPAW   =        T    paw PP                                                  
   EAUG   =  544.565                                                            
   DEXC   =    -.009                                                            
   RMAX   =    2.808    core radius for proj-oper                               
   RAUG   =    1.300    factor for augmentation sphere                          
   RDEP   =    2.390    radius for radial grids                                 
   QCUT   =   -4.451; QGAM   =    8.902    optimization parameters              
                                                                                
   Description                                                                  
     l     E      TYP  RCUT    TYP  RCUT                                        
     2   .000     23  2.300                                                     
     2   .000     23  2.300                                                     
     0   .000     23  2.300                                                     
     0   .000     23  2.300                                                     
     1  -.200     23  2.300                                                     
     1   .000     23  2.300                                                     
     3   .000      7   .000                                                     
  local pseudopotential read in
  partial core-charges read in
  atomic valenz-charges read in
  non local Contribution for L=           2  read in
    real space projection operators read in
  non local Contribution for L=           2  read in
    real space projection operators read in
  non local Contribution for L=           0  read in
    real space projection operators read in
  non local Contribution for L=           0  read in
    real space projection operators read in
  non local Contribution for L=           1  read in
    real space projection operators read in
  non local Contribution for L=           1  read in
    real space projection operators read in
    PAW grid and wavefunctions read in

   number of l-projection  operators is LMAX  =           6
   number of lm-projection operators is LMMAX =          18

 POTCAR:   PAW_PBE Si 05Jan2001                   
   VRHFIN =Si: s2p2                                                             
   LEXCH  = PE                                                                  
   EATOM  =   103.0669 eV,    7.5752 Ry                                         
                                                                                
   TITEL  = PAW_PBE Si 05Jan2001                                                
   LULTRA =        F    use ultrasoft PP ?                                      
   IUNSCR =        1    unscreen: 0-lin 1-nonlin 2-no                           
   RPACOR =    1.500    partial core radius                                     
   POMASS =   28.085; ZVAL   =    4.000    mass and valenz                      
   RCORE  =    1.900    outmost cutoff radius                                   
   RWIGS  =    2.480; RWIGS  =    1.312    wigner-seitz radius (au A)           
   ENMAX  =  245.345; ENMIN  =  184.009 eV                                      
   ICORE  =        2    local potential                                         
   LCOR   =        T    correct aug charges                                     
   LPAW   =        T    paw PP                                                  
   EAUG   =  322.069                                                            
   DEXC   =    -.007                                                            
   RMAX   =    2.944    core radius for proj-oper                               
   RAUG   =    1.300    factor for augmentation sphere                          
   RDEP   =    1.993    radius for radial grids                                 
   QCUT   =   -4.246; QGAM   =    8.493    optimization parameters              
                                                                                
   Description                                                                  
     l     E      TYP  RCUT    TYP  RCUT                                        
     0   .000     23  1.900                                                     
     0   .000     23  1.900                                                     
     1   .000     23  1.900                                                     
     1   .000     23  1.900                                                     
     2   .000      7  1.900                                                     
  local pseudopotential read in
  partial core-charges read in
  atomic valenz-charges read in
  non local Contribution for L=           0  read in
    real space projection operators read in
  non local Contribution for L=           0  read in
    real space projection operators read in
  non local Contribution for L=           1  read in
    real space projection operators read in
  non local Contribution for L=           1  read in
    real space projection operators read in
    PAW grid and wavefunctions read in

   number of l-projection  operators is LMAX  =           4
   number of lm-projection operators is LMMAX =           8

 POTCAR:    PAW_PBE P 17Jan2003                   
   VRHFIN =P : s2p3                                                             
   LEXCH  = PE                                                                  
   EATOM  =   176.0430 eV,   12.9388 Ry                                         
                                                                                
   TITEL  = PAW_PBE P 17Jan2003                                                 
   LULTRA =        F    use ultrasoft PP ?                                      
   IUNSCR =        1    unscreen: 0-lin 1-nonlin 2-no                           
   RPACOR =    1.500    partial core radius                                     
   POMASS =   30.974; ZVAL   =    5.000    mass and valenz                      
   RCORE  =    1.900    outmost cutoff radius                                   
   RWIGS  =    2.330; RWIGS  =    1.233    wigner-seitz radius (au A)           
   ENMAX  =  270.000; ENMIN  =  191.280 eV                                      
   ICORE  =        2    local potential                                         
   LCOR   =        T    correct aug charges                                     
   LPAW   =        T    paw PP                                                  
   EAUG   =  342.924                                                            
   DEXC   =    -.002                                                            
   RMAX   =    2.887    core radius for proj-oper                               
   RAUG   =    1.300    factor for augmentation sphere                          
   RDEP   =    1.931    radius for radial grids                                 
   QCUT   =   -4.330; QGAM   =    8.659    optimization parameters              
                                                                                
   Description                                                                  
     l     E      TYP  RCUT    TYP  RCUT                                        
     0   .000     23  1.900                                                     
     0   .000     23  1.900                                                     
     1   .000     23  1.900                                                     
     1   .000     23  1.900                                                     
     2   .000     23  1.900                                                     
  local pseudopotential read in
  partial core-charges read in
  atomic valenz-charges read in
  non local Contribution for L=           0  read in
    real space projection operators read in
  non local Contribution for L=           0  read in
    real space projection operators read in
  non local Contribution for L=           1  read in
    real space projection operators read in
  non local Contribution for L=           1  read in
    real space projection operators read in
    PAW grid and wavefunctions read in

   number of l-projection  operators is LMAX  =           4
   number of lm-projection operators is LMMAX =           8

 POTCAR:   PAW_PBE Te 08Apr2002                   
   VRHFIN =Te: s2p4                                                             
   LEXCH  = PE                                                                  
   EATOM  =   223.2721 eV,   16.4100 Ry                                         
                                                                                
   TITEL  = PAW_PBE Te 08Apr2002                                                
   LULTRA =        F    use ultrasoft PP ?                                      
   IUNSCR =        1    unscreen: 0-lin 1-nonlin 2-no                           
   RPACOR =    2.200    partial core radius                                     
   POMASS =  127.600; ZVAL   =    6.000    mass and valenz                      
   RCORE  =    2.300    outmost cutoff radius                                   
   RWIGS  =    2.900; RWIGS  =    1.535    wigner-seitz radius (au A)           
   ENMAX  =  174.982; ENMIN  =  131.236 eV                                      
   ICORE  =        3    local potential                                         
   LCOR   =        T    correct aug charges                                     
   LPAW   =        T    paw PP                                                  
   EAUG   =  368.792                                                            
   DEXC   =    -.169                                                            
   RMAX   =    3.486    core radius for proj-oper                               
   RAUG   =    1.300    factor for augmentation sphere                          
   RDEP   =    2.397    radius for radial grids                                 
   QCUT   =   -3.586; QGAM   =    7.172    optimization parameters              
                                                                                
   Description                                                                  
     l     E      TYP  RCUT    TYP  RCUT                                        
     0   .000     23  2.300                                                     
     0   .000     23  2.300                                                     
     1   .000     23  2.300                                                     
     1   .000     23  2.300                                                     
     2   .000     23  2.300                                                     
     3  -.100     23  2.300                                                     
  local pseudopotential read in
  partial core-charges read in
  atomic valenz-charges read in
  non local Contribution for L=           0  read in
    real space projection operators read in
  non local Contribution for L=           0  read in
    real space projection operators read in
  non local Contribution for L=           1  read in
    real space projection operators read in
  non local Contribution for L=           1  read in
    real space projection operators read in
  non local Contribution for L=           2  read in
    real space projection operators read in
    PAW grid and wavefunctions read in

   number of l-projection  operators is LMAX  =           5
   number of lm-projection operators is LMMAX =          13

 Optimization of the real space projectors (new method)

 maximal supplied QI-value         = 16.25
 optimisation between [QCUT,QGAM] = [ 11.54, 23.24] = [ 37.28,151.24] Ry 
 Optimized for a Real-space Cutoff    1.49 Angstroem

   l    n(q)    QCUT    max X(q) W(low)/X(q) W(high)/X(q)  e(spline) 
   2      9    11.539     4.811    0.20E-04    0.14E-04    0.45E-07
   2      9    11.539    15.146    0.24E-03    0.12E-03    0.20E-06
   0     10    11.539    14.357    0.18E-04    0.12E-05    0.14E-07
   0     10    11.539    43.282    0.39E-04    0.17E-04    0.23E-06
   1     10    11.539     5.514    0.99E-05    0.13E-04    0.19E-07
   1     10    11.539     7.697    0.38E-04    0.79E-04    0.91E-07
 Optimization of the real space projectors (new method)

 maximal supplied QI-value         = 19.84
 optimisation between [QCUT,QGAM] = [ 11.51, 23.22] = [ 37.09,150.92] Ry 
 Optimized for a Real-space Cutoff    1.21 Angstroem

   l    n(q)    QCUT    max X(q) W(low)/X(q) W(high)/X(q)  e(spline) 
   0      8    11.508     8.708    0.18E-04    0.44E-05    0.47E-08
   0      8    11.508   106.241    0.70E-04    0.15E-03    0.51E-07
   1      8    11.508     5.901    0.63E-05    0.23E-04    0.21E-07
   1      8    11.508    73.241    0.15E-03    0.36E-04    0.79E-07
 Optimization of the real space projectors (new method)

 maximal supplied QI-value         = 19.84
 optimisation between [QCUT,QGAM] = [ 11.51, 23.22] = [ 37.09,150.92] Ry 
 Optimized for a Real-space Cutoff    1.21 Angstroem

   l    n(q)    QCUT    max X(q) W(low)/X(q) W(high)/X(q)  e(spline) 
   0      8    11.508     6.651    0.19E-04    0.31E-05    0.49E-08
   0      8    11.508    90.285    0.95E-04    0.17E-03    0.51E-07
   1      8    11.508     4.328    0.14E-04    0.32E-04    0.22E-07
   1      8    11.508    54.583    0.16E-03    0.71E-04    0.89E-07
 Optimization of the real space projectors (new method)

 maximal supplied QI-value         = 16.25
 optimisation between [QCUT,QGAM] = [ 11.54, 23.24] = [ 37.28,151.24] Ry 
 Optimized for a Real-space Cutoff    1.36 Angstroem

   l    n(q)    QCUT    max X(q) W(low)/X(q) W(high)/X(q)  e(spline) 
   0      9    11.539     7.090    0.13E-04    0.25E-05    0.51E-08
   0      9    11.539   101.654    0.53E-04    0.69E-04    0.12E-06
   1      9    11.539     5.276    0.20E-04    0.98E-05    0.24E-07
   1      9    11.539    81.891    0.24E-03    0.13E-04    0.15E-06
   2      9    11.539     5.599    0.30E-04    0.97E-04    0.54E-07

 ----------------------------------------------------------------------------- 
|                                                                             |
|  ADVICE TO THIS USER RUNNING 'VASP/VAMP'   (HEAR YOUR MASTER'S VOICE ...):  |
|                                                                             |
|      You enforced a specific xc-type in the INCAR file,                     |
|      a different type was found on the POTCAR file                          |
|          I HOPE YOU KNOW, WHAT YOU ARE  DOING                               |
|                                                                             |
 ----------------------------------------------------------------------------- 

 PAW_PBE Ni 06Sep2000                   :
 energy of atom  1       EATOM=-1077.9025
 kinetic energy error for atom=    0.0030 (will be added to EATOM!!)
 PAW_PBE Si 05Jan2001                   :
 energy of atom  2       EATOM= -103.0669
 kinetic energy error for atom=    0.0005 (will be added to EATOM!!)
  PAW_PBE P 17Jan2003                   :
 energy of atom  3       EATOM= -176.0430
 kinetic energy error for atom=    0.0011 (will be added to EATOM!!)
 PAW_PBE Te 08Apr2002                   :
 energy of atom  4       EATOM= -223.2721
 kinetic energy error for atom=    0.0007 (will be added to EATOM!!)


 POSCAR: Ni2 Si P Te6                            
  positions in direct lattice
  velocities in cartesian coordinates
  No initial velocities read in
 exchange correlation table for  LEXCH =       42
   RHO(1)=    0.500       N(1)  =     2000
   RHO(2)=  100.500       N(2)  =     4000



--------------------------------------------------------------------------------------------------------


 ion  position               nearest neighbor table
   1  0.333  0.333  0.500-   6 2.78   5 2.78   7 2.78   8 2.78  10 2.78   9 2.78
   2  0.667  0.667  0.500-   9 2.78   8 2.78  10 2.78   5 2.78   7 2.78   6 2.78
   3  0.000  0.000  0.448-   4 2.43   8 2.63  10 2.63   9 2.63
   4  0.000  0.000  0.552-   3 2.43   5 2.63   7 2.63   6 2.63
   5  0.626  0.000  0.574-   4 2.63   1 2.78   2 2.78
   6  0.000  0.373  0.574-   4 2.63   1 2.78   2 2.78
   7  0.373  0.626  0.574-   4 2.63   1 2.78   2 2.78
   8  0.374  1.000  0.426-   3 2.63   2 2.78   1 2.78
   9  1.000  0.627  0.426-   3 2.63   2 2.78   1 2.78
  10  0.627  0.374  0.426-   3 2.63   2 2.78   1 2.78

  LATTYP: Found a hexagonal cell.
 ALAT       =     6.9077769333
 C/A-ratio  =     3.3939410937
  
  Lattice vectors:
  
 A1 = (   3.4538890000,  -5.9823100000,   0.0000000000)
 A2 = (  -6.9077770000,   0.0000000000,   0.0000000000)
 A3 = (   0.0000000000,   0.0000000000, -23.4445880000)


Analysis of symmetry for initial positions (statically):
=====================================================================
 Subroutine PRICEL returns:
 Original cell was already a primitive cell.
 

 Routine SETGRP: Setting up the symmetry group for a 
 hexagonal supercell.


 Subroutine GETGRP returns: Found  3 space group operations
 (whereof  3 operations were pure point group operations)
 out of a pool of 24 trial point group operations.


The static configuration has the point symmetry C_3 .


Analysis of symmetry for dynamics (positions and initial velocities):
=====================================================================
 Subroutine PRICEL returns:
 Original cell was already a primitive cell.
 

 Routine SETGRP: Setting up the symmetry group for a 
 hexagonal supercell.


 Subroutine GETGRP returns: Found  3 space group operations
 (whereof  3 operations were pure point group operations)
 out of a pool of 24 trial point group operations.


The dynamic configuration has the point symmetry C_3 .


Analysis of constrained symmetry for selective dynamics:
=====================================================================
 Subroutine PRICEL returns:
 Original cell was already a primitive cell.
 

 Routine SETGRP: Setting up the symmetry group for a 
 hexagonal supercell.


 Subroutine GETGRP returns: Found  3 space group operations
 (whereof  3 operations were pure point group operations)
 out of a pool of 24 trial point group operations.


The constrained configuration has the point symmetry C_3 .


Analysis of structural, dynamic, and magnetic symmetry:
=====================================================================
 Subroutine PRICEL returns:
 Original cell was already a primitive cell.
 

 Routine SETGRP: Setting up the symmetry group for a 
 hexagonal supercell.


 Subroutine GETGRP returns: Found  3 space group operations
 (whereof  3 operations were pure point group operations)
 out of a pool of 24 trial point group operations.


The magnetic configuration has the point symmetry C_3 .


 Subroutine INISYM returns: Found  3 space group operations
 (whereof  3 operations are pure point group operations),
 and found     1 'primitive' translations



 KPOINTS: Kpoints from vasprun.xml                

Automatic generation of k-mesh.
Space group operators:
 irot       det(A)        alpha          n_x          n_y          n_z        tau_x        tau_y        tau_z
    1     1.000000     0.000000     1.000000     0.000000     0.000000     0.000000     0.000000     0.000000
    2     1.000000   120.000000     0.000000     0.000000     1.000000     0.000000     0.000000     0.000000
    3     1.000000   120.000000     0.000000     0.000000    -1.000000     0.000000     0.000000     0.000000
 
 Subroutine IBZKPT returns following result:
 ===========================================
 
 Found      5 irreducible k-points:
 
 Following reciprocal coordinates:
            Coordinates               Weight
  0.000000  0.000000  0.000000      1.000000
  0.200000  0.000000  0.000000      6.000000
  0.400000  0.000000  0.000000      6.000000
  0.400000  0.200000  0.000000      6.000000
 -0.400000  0.200000  0.000000      6.000000
 
 Following cartesian coordinates:
            Coordinates               Weight
  0.000000  0.000000  0.000000      1.000000
  0.028953 -0.016716  0.000000      6.000000
  0.057906 -0.033432  0.000000      6.000000
  0.057906  0.000000  0.000000      6.000000
 -0.057906  0.066864  0.000000      6.000000
 
 TETIRR: Found     15 inequivalent tetrahedra from      150


--------------------------------------------------------------------------------------------------------




 Dimension of arrays:
   k-points           NKPTS =      5   k-points in BZ     NKDIM =      5   number of bands    NBANDS=     48
   number of dos      NEDOS =    301   number of ions     NIONS =     10
   non local maximal  LDIM  =      6   non local SUM 2l+1 LMDIM =     18
   total plane-waves  NPLWV = 524880
   max r-space proj   IRMAX =   7543   max aug-charges    IRDMAX=  31706
   dimension x,y,z NGX =    54 NGY =   54 NGZ =  180
   dimension x,y,z NGXF=   108 NGYF=  108 NGZF=  360
   support grid    NGXF=   108 NGYF=  108 NGZF=  360
   ions per type =               2   1   1   6
   NGX,Y,Z   is equivalent  to a cutoff of  13.00, 13.00, 12.76 a.u.
   NGXF,Y,Z  is equivalent  to a cutoff of  25.99, 25.99, 25.53 a.u.

 SYSTEM =  unknown system                          
 POSCAR =  Ni2 Si P Te6                            

 Startparameter for this run:
   NWRITE =      2    write-flag & timer
   PREC   = accura    normal or accurate (medium, high low for compatibility)
   ISTART =      0    job   : 0-new  1-cont  2-samecut
   ICHARG =      2    charge: 1-file 2-atom 10-const
   ISPIN  =      2    spin polarized calculation?
   LNONCOLLINEAR =      F non collinear calculations
   LSORBIT =      F    spin-orbit coupling
   INIWAV =      1    electr: 0-lowe 1-rand  2-diag
   LASPH  =      F    aspherical Exc in radial PAW
   METAGGA=      F    non-selfconsistent MetaGGA calc.

 Electronic Relaxation 1
   ENCUT  =  520.0 eV  38.22 Ry    6.18 a.u.  12.84 12.84 43.59*2*pi/ulx,y,z
   ENINI  =  520.0     initial cutoff
   ENAUG  =  544.6 eV  augmentation charge cutoff
   NELM   =    400;   NELMIN=  2; NELMDL=  0     # of ELM steps 
   EDIFF  = 0.1E-03   stopping-criterion for ELM
   LREAL  =      T    real-space projection
   NLSPLINE    = F    spline interpolate recip. space projectors
   LCOMPAT=      F    compatible to vasp.4.4
   GGA_COMPAT  = T    GGA compatible to vasp.4.4-vasp.4.6
   LMAXPAW     = -100 max onsite density
   LMAXMIX     =    2 max onsite mixed and CHGCAR
   VOSKOWN=      0    Vosko Wilk Nusair interpolation
   ROPT   =   -0.00025  -0.00025  -0.00025  -0.00025
 Ionic relaxation
   EDIFFG = 0.1E-02   stopping-criterion for IOM
   NSW    =     99    number of steps for IOM
   NBLOCK =      1;   KBLOCK =     99    inner block; outer block 
   IBRION =      2    ionic relax: 0-MD 1-quasi-New 2-CG
   NFREE  =      1    steps in history (QN), initial steepest desc. (CG)
   ISIF   =      3    stress and relaxation
   IWAVPR =     11    prediction:  0-non 1-charg 2-wave 3-comb
   ISYM   =      2    0-nonsym 1-usesym 2-fastsym
   LCORR  =      T    Harris-Foulkes like correction to forces

   POTIM  = 0.5000    time-step for ionic-motion
   TEIN   =    0.0    initial temperature
   TEBEG  =    0.0;   TEEND  =   0.0 temperature during run
   SMASS  =  -3.00    Nose mass-parameter (am)
   estimated Nose-frequenzy (Omega)   =  0.10E-29 period in steps =****** mass=  -0.109E-26a.u.
   SCALEE = 1.0000    scale energy and forces
   NPACO  =    256;   APACO  = 16.0  distance and # of slots for P.C.
   PSTRESS=    0.0 pullay stress

  Mass of Ions in am
   POMASS =  58.69 28.09 30.97127.60
  Ionic Valenz
   ZVAL   =  10.00  4.00  5.00  6.00
  Atomic Wigner-Seitz radii
   RWIGS  =  -1.00 -1.00 -1.00 -1.00
  virtual crystal weights 
   VCA    =   1.00  1.00  1.00  1.00
   NELECT =      65.0000    total number of electrons
   NUPDOWN=      -1.0000    fix difference up-down

 DOS related values:
   EMIN   =  10.00;   EMAX   =-10.00  energy-range for DOS
   EFERMI =   0.00
   ISMEAR =    -5;   SIGMA  =   0.05  broadening in eV -4-tet -1-fermi 0-gaus

 Electronic relaxation 2 (details)
   IALGO  =     38    algorithm
   LDIAG  =      T    sub-space diagonalisation (order eigenvalues)
   LSUBROT=      F    optimize rotation matrix (better conditioning)
   TURBO    =      0    0=normal 1=particle mesh
   IRESTART =      0    0=no restart 2=restart with 2 vectors
   NREBOOT  =      0    no. of reboots
   NMIN     =      0    reboot dimension
   EREF     =   0.00    reference energy to select bands
   IMIX   =      4    mixing-type and parameters
     AMIX     =   0.40;   BMIX     =  1.00
     AMIX_MAG =   1.60;   BMIX_MAG =  1.00
     AMIN     =   0.01
     WC   =   100.;   INIMIX=   1;  MIXPRE=   1;  MAXMIX= -45

 Intra band minimization:
   WEIMIN = 0.0010     energy-eigenvalue tresh-hold
   EBREAK =  0.52E-06  absolut break condition
   DEPER  =   0.30     relativ break condition  

   TIME   =   0.40     timestep for ELM

  volume/ion in A,a.u.               =      96.88       653.80
  Fermi-wavevector in a.u.,A,eV,Ry     =   0.665216  1.257076  6.020745  0.442512
  Thomas-Fermi vector in A             =   1.739143

 Write flags
   LWAVE        =      F    write WAVECAR
   LDOWNSAMPLE  =      F    k-point downsampling of WAVECAR
   LCHARG       =      T    write CHGCAR
   LVTOT        =      F    write LOCPOT, total local potential
   LVHAR        =      F    write LOCPOT, Hartree potential only
   LELF         =      F    write electronic localiz. function (ELF)
   LORBIT       =     11    0 simple, 1 ext, 2 COOP (PROOUT), +10 PAW based schemes


 Dipole corrections
   LMONO  =      F    monopole corrections only (constant potential shift)
   LDIPOL =      F    correct potential (dipole corrections)
   IDIPOL =      0    1-x, 2-y, 3-z, 4-all directions 
   EPSILON=  1.0000000 bulk dielectric constant

 Exchange correlation treatment:
   GGA     =    BO    GGA type
   LEXCH   =    42    internal setting for exchange type
   VOSKOWN=      0    Vosko Wilk Nusair interpolation
   LHFCALC =     F    Hartree Fock is set to
   LHFONE  =     F    Hartree Fock one center treatment
   AEXX    =    0.0000 exact exchange contribution

 vdW DFT:
   LUSE_VDW   =     T    switch on vdW DFT
   Zab_VDW    =-.8491    correlation parameter
   PARAM1     =0.1833
   PARAM2     =0.2200
   PARAM3     =0.0000
   -- rVV10 --
   BPARAM     = 6.3000
   CPARAM     = 0.0093

 Linear response parameters
   LEPSILON=     F    determine dielectric tensor
   LRPA    =     F    only Hartree local field effects (RPA)
   LNABLA  =     F    use nabla operator in PAW spheres
   LVEL    =     F    velocity operator in full k-point grid
   LINTERFAST=   F  fast interpolation
   KINTER  =     0    interpolate to denser k-point grid
   CSHIFT  =0.1000    complex shift for real part using Kramers Kronig
   OMEGAMAX=  -1.0    maximum frequency
   DEG_THRESHOLD= 0.2000000E-02 threshold for treating states as degnerate
   RTIME   =   -0.100 relaxation time in fs
  (WPLASMAI=    0.000 imaginary part of plasma frequency in eV, 0.658/RTIME)
   DFIELD  = 0.0000000 0.0000000 0.0000000 field for delta impulse in time

 Orbital magnetization related:
   ORBITALMAG=     F  switch on orbital magnetization
   LCHIMAG   =     F  perturbation theory with respect to B field
   DQ        =  0.001000  dq finite difference perturbation B field
   LLRAUG    =     F  two centre corrections for induced B field



--------------------------------------------------------------------------------------------------------


 conjugate gradient relaxation of ions
   using selective dynamics as specified on POSCAR
 charge density and potential will be updated during run
 spin polarized calculation
 Variant of blocked Davidson
 Davidson routine will perform the subspace rotation
 perform sub-space diagonalisation
    after iterative eigenvector-optimisation
 modified Broyden-mixing scheme, WC =      100.0
 initial mixing is a Kerker type mixing with AMIX =  0.4000 and BMIX =      1.0000
 Hartree-type preconditioning will be used
 using additional bands           15
 real space projection scheme for non local part
 use partial core corrections
 calculate Harris-corrections to forces   (improved forces if not selfconsistent)
 use gradient corrections 
 use of overlap-Matrix (Vanderbilt PP)
 Fermi weights with tetrahedron method with Bloechl corrections


--------------------------------------------------------------------------------------------------------


  energy-cutoff  :      520.00
  volume of cell :      968.84
      direct lattice vectors                 reciprocal lattice vectors
     6.907777000 -0.000000000  0.000000000     0.144764372 -0.083579742  0.000000000
     3.453888000  5.982310000  0.000000000     0.000000000  0.167159509 -0.000000000
     0.000000000  0.000000000 23.444588000    -0.000000000  0.000000000  0.042653767

  length of vectors
     6.907777000  6.907776433 23.444588000     0.167159495  0.167159509  0.042653767



 k-points in units of 2pi/SCALE and weight: Kpoints from vasprun.xml                
   0.00000000  0.00000000  0.00000000       0.040
   0.02895287 -0.01671595  0.00000000       0.240
   0.05790575 -0.03343190  0.00000000       0.240
   0.05790575  0.00000000  0.00000000       0.240
  -0.05790575  0.06686380  0.00000000       0.240

 k-points in reciprocal lattice and weights: Kpoints from vasprun.xml                
   0.00000000  0.00000000  0.00000000       0.040
   0.20000000  0.00000000  0.00000000       0.240
   0.40000000  0.00000000  0.00000000       0.240
   0.40000000  0.20000000  0.00000000       0.240
  -0.40000000  0.20000000  0.00000000       0.240

 position of ions in fractional coordinates (direct lattice) 
   0.33333300  0.33333300  0.49992500
   0.66666700  0.66666700  0.50007500
   0.00000000  0.00000000  0.44821600
   0.00000000  0.00000000  0.55178400
   0.62635700  0.00042000  0.57375200
   0.00042000  0.37322400  0.57375200
   0.37322400  0.62635700  0.57375200
   0.37364300  0.99958000  0.42624800
   0.99958000  0.62677600  0.42624800
   0.62677600  0.37364300  0.42624800

 position of ions in cartesian coordinates  (Angst):
   3.45388488  1.99410134 11.72053566
   6.90778012  3.98820866 11.72405234
   0.00000000  0.00000000 10.50823946
   0.00000000  0.00000000 12.93634854
   4.32818511  0.00251257 13.45137925
   1.29197516  2.23274167 13.45137925
   4.74151509  3.74706174 13.45137925
   6.03347989  5.97979743  9.99320875
   9.06968984  3.74956833  9.99320875
   5.62014991  2.23524826  9.99320875



--------------------------------------------------------------------------------------------------------


 k-point  1 :   0.0000 0.0000 0.0000  plane waves:   26073
 k-point  2 :   0.2000 0.0000 0.0000  plane waves:   26070
 k-point  3 :   0.4000 0.0000 0.0000  plane waves:   26086
 k-point  4 :   0.4000 0.2000 0.0000  plane waves:   26085
 k-point  5 :  -0.4000 0.2000 0.0000  plane waves:   26115

 maximum and minimum number of plane-waves per node :     26115    26070

 maximum number of plane-waves:     26115
 maximum index in each direction: 
   IXMAX=   13   IYMAX=   12   IZMAX=   43
   IXMIN=  -13   IYMIN=  -13   IZMIN=  -43


 serial   3D FFT for wavefunctions
 parallel 3D FFT for charge:
    minimum data exchange during FFTs selected (reduces bandwidth)


 total amount of memory used by VASP MPI-rank0   130447. kBytes
=======================================================================

   base      :      30000. kBytes
   nonlr-proj:       7947. kBytes
   fftplans  :      11247. kBytes
   grid      :      68332. kBytes
   one-center:        311. kBytes
   wavefun   :      12610. kBytes

     INWAV:  cpu time    0.0000: real time    0.0004
 Broyden mixing: mesh for mixing (old mesh)
   NGX = 25   NGY = 25   NGZ = 87
  (NGX  =108   NGY  =108   NGZ  =360)
  gives a total of  54375 points

 initial charge density was supplied:
 charge density of overlapping atoms calculated
 number of electron      65.0000000 magnetization       7.3200000
 keeping initial charge density in first step


--------------------------------------------------------------------------------------------------------


 Maximum index for non-local projection operator         7247
 Maximum index for augmentation-charges         2278 (set IRDMAX)


--------------------------------------------------------------------------------------------------------


 First call to EWALD:  gamma=   0.179
 Maximum number of real-space cells 4x 4x 1
 Maximum number of reciprocal cells 2x 2x 6

    FEWALD:  cpu time    0.0000: real time    0.0014


--------------------------------------- Iteration      1(   1)  ---------------------------------------


vdW kernel read from vdw_kernel.bindat
  0.0000  0.2424  0.5071  0.7962  1.1119  1.4567  1.8333  2.2446  2.6937  3.1842
  3.7199  4.3049  4.9438  5.6415  6.4036  7.2358  8.1446  9.1372 10.2212 11.4050
 12.6979 14.1099 15.6519 17.3360 19.1751 21.1837 23.3773 25.7729 28.3892 31.2465
 34.3669 37.7748 41.4965 45.5611 50.0000

    POTLOK:  cpu time   52.2440: real time   52.6851
    SETDIJ:  cpu time    0.0480: real time    0.0470
     EDDAV:  cpu time   22.7640: real time   22.9091
 BZINTS: Fermi energy:  5.526000; 65.000000 electrons
         Band energy:  10.788227;  BLOECHL correction: -0.038944
       DOS:  cpu time    0.0040: real time    0.0050
    --------------------------------------------
      LOOP:  cpu time   75.0600: real time   75.6463

 eigenvalue-minimisations  :   960
 total energy-change (2. order) : 0.3964433E+03  (-0.1979712E+04)
 number of electron      65.0000000 magnetization       7.3200000
 augmentation part       65.0000000 magnetization       7.3200000

 Free energy of the ion-electron system (eV)
  ---------------------------------------------------
  alpha Z        PSCENC =        17.18023149
  Ewald energy   TEWEN  =      8338.88239735
  -Hartree energ DENC   =    -11774.72595537
  -exchange      EXHF   =         0.00000000
  -V(xc)+E(xc)   XCENC  =      -121.08023381
  PAW double counting   =      2450.34611652    -2315.48973293
  entropy T*S    EENTRO =         0.00000000
  eigenvalues    EBANDS =        10.78822744
  atomic energy  EATOM  =      3790.54222716
  Solvation  Ediel_sol  =         0.00000000
  ---------------------------------------------------
  free energy    TOTEN  =       396.44327785 eV

  energy without entropy =      396.44327785  energy(sigma->0) =      396.44327785


--------------------------------------------------------------------------------------------------------




--------------------------------------- Iteration      1(   2)  ---------------------------------------


     EDDAV:  cpu time   32.9160: real time   33.0808
 BZINTS: Fermi energy: -1.081071; 65.000000 electrons
         Band energy:-375.976929;  BLOECHL correction: -0.032841
       DOS:  cpu time    0.0040: real time    0.0045
    --------------------------------------------
      LOOP:  cpu time   32.9200: real time   33.0853

 eigenvalue-minimisations  :  1440
 total energy-change (2. order) :-0.3867652E+03  (-0.3719347E+03)
 number of electron      65.0000000 magnetization       7.3200000
 augmentation part       65.0000000 magnetization       7.3200000

 Free energy of the ion-electron system (eV)
  ---------------------------------------------------
  alpha Z        PSCENC =        17.18023149
  Ewald energy   TEWEN  =      8338.88239735
  -Hartree energ DENC   =    -11774.72595537
  -exchange      EXHF   =         0.00000000
  -V(xc)+E(xc)   XCENC  =      -121.08023381
  PAW double counting   =      2450.34611652    -2315.48973293
  entropy T*S    EENTRO =         0.00000000
  eigenvalues    EBANDS =      -375.97692899
  atomic energy  EATOM  =      3790.54222716
  Solvation  Ediel_sol  =         0.00000000
  ---------------------------------------------------
  free energy    TOTEN  =         9.67812143 eV

  energy without entropy =        9.67812143  energy(sigma->0) =        9.67812143


--------------------------------------------------------------------------------------------------------




--------------------------------------- Iteration      1(   3)  ---------------------------------------


     EDDAV:  cpu time   29.2960: real time   29.4590
 BZINTS: Fermi energy: -1.771781; 65.000000 electrons
         Band energy:-418.518091;  BLOECHL correction:  0.000000
       DOS:  cpu time    0.0040: real time    0.0035
    --------------------------------------------
      LOOP:  cpu time   29.3000: real time   29.4625

 eigenvalue-minimisations  :  1264
 total energy-change (2. order) :-0.4254116E+02  (-0.4204442E+02)
 number of electron      65.0000000 magnetization       7.3200000
 augmentation part       65.0000000 magnetization       7.3200000

 Free energy of the ion-electron system (eV)
  ---------------------------------------------------
  alpha Z        PSCENC =        17.18023149
  Ewald energy   TEWEN  =      8338.88239735
  -Hartree energ DENC   =    -11774.72595537
  -exchange      EXHF   =         0.00000000
  -V(xc)+E(xc)   XCENC  =      -121.08023381
  PAW double counting   =      2450.34611652    -2315.48973293
  entropy T*S    EENTRO =         0.00000000
  eigenvalues    EBANDS =      -418.51809140
  atomic energy  EATOM  =      3790.54222716
  Solvation  Ediel_sol  =         0.00000000
  ---------------------------------------------------
  free energy    TOTEN  =       -32.86304099 eV

  energy without entropy =      -32.86304099  energy(sigma->0) =      -32.86304099


--------------------------------------------------------------------------------------------------------




--------------------------------------- Iteration      1(   4)  ---------------------------------------


     EDDAV:  cpu time   30.5440: real time   30.6090
 BZINTS: Fermi energy: -1.797085; 65.000000 electrons
         Band energy:-420.156048;  BLOECHL correction:  0.000000
       DOS:  cpu time    0.0000: real time    0.0031
    --------------------------------------------
      LOOP:  cpu time   30.5440: real time   30.6121

 eigenvalue-minimisations  :  1328
 total energy-change (2. order) :-0.1637957E+01  (-0.1635883E+01)
 number of electron      65.0000000 magnetization       7.3200000
 augmentation part       65.0000000 magnetization       7.3200000

 Free energy of the ion-electron system (eV)
  ---------------------------------------------------
  alpha Z        PSCENC =        17.18023149
  Ewald energy   TEWEN  =      8338.88239735
  -Hartree energ DENC   =    -11774.72595537
  -exchange      EXHF   =         0.00000000
  -V(xc)+E(xc)   XCENC  =      -121.08023381
  PAW double counting   =      2450.34611652    -2315.48973293
  entropy T*S    EENTRO =         0.00000000
  eigenvalues    EBANDS =      -420.15604831
  atomic energy  EATOM  =      3790.54222716
  Solvation  Ediel_sol  =         0.00000000
  ---------------------------------------------------
  free energy    TOTEN  =       -34.50099790 eV

  energy without entropy =      -34.50099790  energy(sigma->0) =      -34.50099790


--------------------------------------------------------------------------------------------------------




--------------------------------------- Iteration      1(   5)  ---------------------------------------


     EDDAV:  cpu time   32.2000: real time   32.3056
 BZINTS: Fermi energy: -1.788997; 65.000000 electrons
         Band energy:-420.184865;  BLOECHL correction:  0.000000
       DOS:  cpu time    0.0040: real time    0.0023
    CHARGE:  cpu time    2.1160: real time    2.1221
    MIXING:  cpu time    0.0440: real time    0.0402
    --------------------------------------------
      LOOP:  cpu time   34.3640: real time   34.4702

 eigenvalue-minimisations  :  1408
 total energy-change (2. order) :-0.2881705E-01  (-0.2881231E-01)
 number of electron      64.9999997 magnetization       6.8568150
 augmentation part        2.8240344 magnetization       5.3224596

 Broyden mixing:
  rms(total) = 0.14470E+01    rms(broyden)= 0.14460E+01
  rms(prec ) = 0.15441E+01
  weight for this iteration     100.00

 Free energy of the ion-electron system (eV)
  ---------------------------------------------------
  alpha Z        PSCENC =        17.18023149
  Ewald energy   TEWEN  =      8338.88239735
  -Hartree energ DENC   =    -11774.72595537
  -exchange      EXHF   =         0.00000000
  -V(xc)+E(xc)   XCENC  =      -121.08023381
  PAW double counting   =      2450.34611652    -2315.48973293
  entropy T*S    EENTRO =         0.00000000
  eigenvalues    EBANDS =      -420.18486536
  atomic energy  EATOM  =      3790.54222716
  Solvation  Ediel_sol  =         0.00000000
  ---------------------------------------------------
  free energy    TOTEN  =       -34.52981494 eV

  energy without entropy =      -34.52981494  energy(sigma->0) =      -34.52981494


--------------------------------------------------------------------------------------------------------




--------------------------------------- Iteration      1(   6)  ---------------------------------------


    POTLOK:  cpu time   51.3440: real time   51.6256
    SETDIJ:  cpu time    0.0480: real time    0.0478
     EDDAV:  cpu time   25.2920: real time   26.0530
 BZINTS: Fermi energy: -2.853242; 65.000000 electrons
         Band energy:-521.831361;  BLOECHL correction: -0.054186
       DOS:  cpu time    0.0040: real time    0.0071
    CHARGE:  cpu time    2.1880: real time    2.1918
    MIXING:  cpu time    0.0440: real time    0.0407
    --------------------------------------------
      LOOP:  cpu time   78.9200: real time   79.9659

 eigenvalue-minimisations  :  1104
 total energy-change (2. order) :-0.9814944E+01  (-0.6298067E+01)
 number of electron      64.9999997 magnetization       6.6711373
 augmentation part        7.4075500 magnetization       4.7038073

 Broyden mixing:
  rms(total) = 0.24662E+01    rms(broyden)= 0.24659E+01
  rms(prec ) = 0.26447E+01
  weight for this iteration     100.00

 eigenvalues of (default mixing * dielectric matrix)
  average eigenvalue GAMMA=   0.3039
  0.3039

 Free energy of the ion-electron system (eV)
  ---------------------------------------------------
  alpha Z        PSCENC =        17.18023149
  Ewald energy   TEWEN  =      8338.88239735
  -Hartree energ DENC   =    -11694.36868517
  -exchange      EXHF   =         0.00000000
  -V(xc)+E(xc)   XCENC  =      -123.75104049
  PAW double counting   =      2347.45558599    -2198.45411420
  entropy T*S    EENTRO =         0.00000000
  eigenvalues    EBANDS =      -521.83136113
  atomic energy  EATOM  =      3790.54222716
  Solvation  Ediel_sol  =         0.00000000
  ---------------------------------------------------
  free energy    TOTEN  =       -44.34475901 eV

  energy without entropy =      -44.34475901  energy(sigma->0) =      -44.34475901


--------------------------------------------------------------------------------------------------------




--------------------------------------- Iteration      1(   7)  ---------------------------------------


    POTLOK:  cpu time   51.1800: real time   51.5164
    SETDIJ:  cpu time    0.0480: real time    0.0467
     EDDAV:  cpu time   26.1120: real time   26.2845
 BZINTS: Fermi energy: -2.484217; 65.000000 electrons
         Band energy:-445.021134;  BLOECHL correction: -0.031087
       DOS:  cpu time    0.0080: real time    0.0071
    CHARGE:  cpu time    2.1520: real time    2.1579
    MIXING:  cpu time    0.0480: real time    0.0465
    --------------------------------------------
      LOOP:  cpu time   79.5480: real time   80.0591

 eigenvalue-minimisations  :  1120
 total energy-change (2. order) : 0.1114631E+02  (-0.2046737E+01)
 number of electron      64.9999997 magnetization       6.3353306
 augmentation part        5.4985780 magnetization       4.1980851

 Broyden mixing:
  rms(total) = 0.68480E+00    rms(broyden)= 0.68468E+00
  rms(prec ) = 0.75277E+00
  weight for this iteration     100.00

 eigenvalues of (default mixing * dielectric matrix)
  average eigenvalue GAMMA=   0.5689
  0.5689  0.5689

 Free energy of the ion-electron system (eV)
  ---------------------------------------------------
  alpha Z        PSCENC =        17.18023149
  Ewald energy   TEWEN  =      8338.88239735
  -Hartree energ DENC   =    -11748.53257562
  -exchange      EXHF   =         0.00000000
  -V(xc)+E(xc)   XCENC  =      -122.15700881
  PAW double counting   =      2444.67227498    -2308.76486028
  entropy T*S    EENTRO =         0.00000000
  eigenvalues    EBANDS =      -445.02113359
  atomic energy  EATOM  =      3790.54222716
  Solvation  Ediel_sol  =         0.00000000
  ---------------------------------------------------
  free energy    TOTEN  =       -33.19844730 eV

  energy without entropy =      -33.19844730  energy(sigma->0) =      -33.19844730


--------------------------------------------------------------------------------------------------------




--------------------------------------- Iteration      1(   8)  ---------------------------------------


    POTLOK:  cpu time   51.9160: real time   51.9979
    SETDIJ:  cpu time    0.0680: real time    0.0711
     EDDAV:  cpu time   33.6360: real time   33.7868
 BZINTS: Fermi energy: -1.951556; 65.000000 electrons
         Band energy:-419.897672;  BLOECHL correction: -0.007546
       DOS:  cpu time    0.0040: real time    0.0066
    CHARGE:  cpu time    2.1760: real time    2.1822
    MIXING:  cpu time    0.0400: real time    0.0424
    --------------------------------------------
      LOOP:  cpu time   87.8400: real time   88.0869

 eigenvalue-minimisations  :  1488
 total energy-change (2. order) :-0.6447250E-01  (-0.6727711E+00)
 number of electron      64.9999997 magnetization       5.8052390
 augmentation part        3.7196179 magnetization       4.1031732

 Broyden mixing:
  rms(total) = 0.73628E+00    rms(broyden)= 0.73587E+00
  rms(prec ) = 0.78481E+00
  weight for this iteration     100.00

 eigenvalues of (default mixing * dielectric matrix)
  average eigenvalue GAMMA=   0.7100
  1.1648  0.4827  0.4827

 Free energy of the ion-electron system (eV)
  ---------------------------------------------------
  alpha Z        PSCENC =        17.18023149
  Ewald energy   TEWEN  =      8338.88239735
  -Hartree energ DENC   =    -11771.26220494
  -exchange      EXHF   =         0.00000000
  -V(xc)+E(xc)   XCENC  =      -121.50166217
  PAW double counting   =      2497.91485774    -2365.12109486
  entropy T*S    EENTRO =         0.00000000
  eigenvalues    EBANDS =      -419.89767159
  atomic energy  EATOM  =      3790.54222716
  Solvation  Ediel_sol  =         0.00000000
  ---------------------------------------------------
  free energy    TOTEN  =       -33.26291981 eV

  energy without entropy =      -33.26291981  energy(sigma->0) =      -33.26291981


--------------------------------------------------------------------------------------------------------




--------------------------------------- Iteration      1(   9)  ---------------------------------------


    POTLOK:  cpu time   51.1160: real time   51.2959
    SETDIJ:  cpu time    0.0680: real time    0.0673
     EDDAV:  cpu time   26.9320: real time   27.2140
 BZINTS: Fermi energy: -2.367264; 65.000000 electrons
         Band energy:-435.932752;  BLOECHL correction: -0.025289
       DOS:  cpu time    0.0080: real time    0.0065
    CHARGE:  cpu time    2.1320: real time    2.1801
    MIXING:  cpu time    0.0440: real time    0.0417
    --------------------------------------------
      LOOP:  cpu time   80.3000: real time   80.8056

 eigenvalue-minimisations  :  1184
 total energy-change (2. order) : 0.7961089E-01  (-0.2916046E+00)
 number of electron      64.9999997 magnetization       5.1550789
 augmentation part        5.0157150 magnetization       3.1951285

 Broyden mixing:
  rms(total) = 0.38462E+00    rms(broyden)= 0.38443E+00
  rms(prec ) = 0.41440E+00
  weight for this iteration     100.00

 eigenvalues of (default mixing * dielectric matrix)
  average eigenvalue GAMMA=   1.0135
  2.3227  0.8276  0.4519  0.4519

 Free energy of the ion-electron system (eV)
  ---------------------------------------------------
  alpha Z        PSCENC =        17.18023149
  Ewald energy   TEWEN  =      8338.88239735
  -Hartree energ DENC   =    -11755.78158847
  -exchange      EXHF   =         0.00000000
  -V(xc)+E(xc)   XCENC  =      -121.93188405
  PAW double counting   =      2486.21790538    -2352.35984586
  entropy T*S    EENTRO =         0.00000000
  eigenvalues    EBANDS =      -435.93275192
  atomic energy  EATOM  =      3790.54222716
  Solvation  Ediel_sol  =         0.00000000
  ---------------------------------------------------
  free energy    TOTEN  =       -33.18330891 eV

  energy without entropy =      -33.18330891  energy(sigma->0) =      -33.18330891


--------------------------------------------------------------------------------------------------------




--------------------------------------- Iteration      1(  10)  ---------------------------------------


    POTLOK:  cpu time   50.7120: real time   51.0902
    SETDIJ:  cpu time    0.0480: real time    0.0490
     EDDAV:  cpu time   27.0400: real time   27.2619
 BZINTS: Fermi energy: -2.195400; 65.000000 electrons
         Band energy:-427.702439;  BLOECHL correction: -0.019820
       DOS:  cpu time    0.0080: real time    0.0064
    CHARGE:  cpu time    2.1160: real time    2.1634
    MIXING:  cpu time    0.0440: real time    0.0426
    --------------------------------------------
      LOOP:  cpu time   79.9680: real time   80.6135

 eigenvalue-minimisations  :  1184
 total energy-change (2. order) : 0.3537059E-01  (-0.4844422E-01)
 number of electron      64.9999997 magnetization       4.7709001
 augmentation part        4.6401847 magnetization       2.9952755

 Broyden mixing:
  rms(total) = 0.14778E+00    rms(broyden)= 0.14772E+00
  rms(prec ) = 0.15103E+00
  weight for this iteration     100.00

 eigenvalues of (default mixing * dielectric matrix)
  average eigenvalue GAMMA=   1.0471
  2.6476  1.0591  0.4551  0.4551  0.6189

 Free energy of the ion-electron system (eV)
  ---------------------------------------------------
  alpha Z        PSCENC =        17.18023149
  Ewald energy   TEWEN  =      8338.88239735
  -Hartree energ DENC   =    -11763.33281961
  -exchange      EXHF   =         0.00000000
  -V(xc)+E(xc)   XCENC  =      -121.70392645
  PAW double counting   =      2508.49098788    -2375.50459732
  entropy T*S    EENTRO =         0.00000000
  eigenvalues    EBANDS =      -427.70243883
  atomic energy  EATOM  =      3790.54222716
  Solvation  Ediel_sol  =         0.00000000
  ---------------------------------------------------
  free energy    TOTEN  =       -33.14793833 eV

  energy without entropy =      -33.14793833  energy(sigma->0) =      -33.14793833


--------------------------------------------------------------------------------------------------------




--------------------------------------- Iteration      1(  11)  ---------------------------------------


    POTLOK:  cpu time   50.7240: real time   50.8584
    SETDIJ:  cpu time    0.0480: real time    0.0474
     EDDAV:  cpu time   30.6480: real time   30.8829
 BZINTS: Fermi energy: -2.151845; 65.000000 electrons
         Band energy:-425.066947;  BLOECHL correction: -0.018657
       DOS:  cpu time    0.0080: real time    0.0065
    CHARGE:  cpu time    2.1600: real time    2.1640
    MIXING:  cpu time    0.0440: real time    0.0433
    --------------------------------------------
      LOOP:  cpu time   83.6320: real time   84.0026

 eigenvalue-minimisations  :  1360
 total energy-change (2. order) :-0.8909921E-01  (-0.2377520E-01)
 number of electron      64.9999997 magnetization       4.4206632
 augmentation part        4.4923093 magnetization       2.7094287

 Broyden mixing:
  rms(total) = 0.22694E+00    rms(broyden)= 0.22690E+00
  rms(prec ) = 0.24384E+00
  weight for this iteration     100.00

 eigenvalues of (default mixing * dielectric matrix)
  average eigenvalue GAMMA=   0.9831
  2.8473  1.2624  0.6841  0.4565  0.4565  0.1917

 Free energy of the ion-electron system (eV)
  ---------------------------------------------------
  alpha Z        PSCENC =        17.18023149
  Ewald energy   TEWEN  =      8338.88239735
  -Hartree energ DENC   =    -11766.03071619
  -exchange      EXHF   =         0.00000000
  -V(xc)+E(xc)   XCENC  =      -121.62815079
  PAW double counting   =      2511.62575495    -2378.74183417
  entropy T*S    EENTRO =         0.00000000
  eigenvalues    EBANDS =      -425.06694734
  atomic energy  EATOM  =      3790.54222716
  Solvation  Ediel_sol  =         0.00000000
  ---------------------------------------------------
  free energy    TOTEN  =       -33.23703753 eV

  energy without entropy =      -33.23703753  energy(sigma->0) =      -33.23703753


--------------------------------------------------------------------------------------------------------




--------------------------------------- Iteration      1(  12)  ---------------------------------------


    POTLOK:  cpu time   50.5880: real time   50.8109
    SETDIJ:  cpu time    0.0480: real time    0.0484
     EDDAV:  cpu time   31.4040: real time   31.5826
 BZINTS: Fermi energy: -2.257102; 65.000000 electrons
         Band energy:-423.794419;  BLOECHL correction: -0.016506
       DOS:  cpu time    0.0080: real time    0.0075
    CHARGE:  cpu time    2.1920: real time    2.1952
    MIXING:  cpu time    0.0440: real time    0.0438
    --------------------------------------------
      LOOP:  cpu time   84.2840: real time   84.6883

 eigenvalue-minimisations  :  1392
 total energy-change (2. order) :-0.5091584E+00  (-0.2794043E+00)
 number of electron      64.9999997 magnetization       4.4265011
 augmentation part        4.3788182 magnetization       4.2612579

 Broyden mixing:
  rms(total) = 0.71835E+00    rms(broyden)= 0.71446E+00
  rms(prec ) = 0.74932E+00
  weight for this iteration     100.00

 eigenvalues of (default mixing * dielectric matrix)
  average eigenvalue GAMMA=   0.8426
  2.8474  1.2623  0.6841  0.4565  0.4565  0.1917  0.0000

 Free energy of the ion-electron system (eV)
  ---------------------------------------------------
  alpha Z        PSCENC =        17.18023149
  Ewald energy   TEWEN  =      8338.88239735
  -Hartree energ DENC   =    -11767.86381051
  -exchange      EXHF   =         0.00000000
  -V(xc)+E(xc)   XCENC  =      -121.57609149
  PAW double counting   =      2512.59196139    -2379.70869195
  entropy T*S    EENTRO =         0.00000000
  eigenvalues    EBANDS =      -423.79441933
  atomic energy  EATOM  =      3790.54222716
  Solvation  Ediel_sol  =         0.00000000
  ---------------------------------------------------
  free energy    TOTEN  =       -33.74619590 eV

  energy without entropy =      -33.74619590  energy(sigma->0) =      -33.74619590


--------------------------------------------------------------------------------------------------------




--------------------------------------- Iteration      1(  13)  ---------------------------------------


    POTLOK:  cpu time   50.6800: real time   50.8643
    SETDIJ:  cpu time    0.0480: real time    0.0470
     EDDAV:  cpu time   25.7240: real time   25.8954
 BZINTS: Fermi energy: -2.070721; 65.000000 electrons
         Band energy:-423.120701;  BLOECHL correction: -0.014127
       DOS:  cpu time    0.0040: real time    0.0069
    CHARGE:  cpu time    2.1400: real time    2.1477
    MIXING:  cpu time    0.0440: real time    0.0447
    --------------------------------------------
      LOOP:  cpu time   78.6440: real time   79.0059

 eigenvalue-minimisations  :  1120
 total energy-change (2. order) : 0.7163001E+00  (-0.2416451E+02)
 number of electron      64.9999997 magnetization       3.7141986
 augmentation part        4.4419362 magnetization       1.9966691

 Broyden mixing:
  rms(total) = 0.14196E+00    rms(broyden)= 0.12878E+00
  rms(prec ) = 0.13616E+00
  weight for this iteration     100.00

 eigenvalues of (default mixing * dielectric matrix)
  average eigenvalue GAMMA=   1.0050
  3.5246  1.9228  0.8703  0.4556  0.4556  0.6313  0.1688  0.0112

 Free energy of the ion-electron system (eV)
  ---------------------------------------------------
  alpha Z        PSCENC =        17.18023149
  Ewald energy   TEWEN  =      8338.88239735
  -Hartree energ DENC   =    -11767.86206794
  -exchange      EXHF   =         0.00000000
  -V(xc)+E(xc)   XCENC  =      -121.50000234
  PAW double counting   =      2512.47570654    -2379.62768743
  entropy T*S    EENTRO =         0.00000000
  eigenvalues    EBANDS =      -423.12070061
  atomic energy  EATOM  =      3790.54222716
  Solvation  Ediel_sol  =         0.00000000
  ---------------------------------------------------
  free energy    TOTEN  =       -33.02989577 eV

  energy without entropy =      -33.02989577  energy(sigma->0) =      -33.02989577


--------------------------------------------------------------------------------------------------------




--------------------------------------- Iteration      1(  14)  ---------------------------------------


    POTLOK:  cpu time   50.7840: real time   50.9055
    SETDIJ:  cpu time    0.0520: real time    0.0526
     EDDAV:  cpu time   26.0880: real time   26.2308
 BZINTS: Fermi energy: -2.108446; 65.000000 electrons
         Band energy:-422.303960;  BLOECHL correction: -0.019588
       DOS:  cpu time    0.0080: real time    0.0073
    CHARGE:  cpu time    2.0960: real time    2.1618
    MIXING:  cpu time    0.0480: real time    0.0454
    --------------------------------------------
      LOOP:  cpu time   79.0720: real time   79.4034

 eigenvalue-minimisations  :  1136
 total energy-change (2. order) :-0.2739990E+00  (-0.1146825E+00)
 number of electron      64.9999997 magnetization       3.1344071
 augmentation part        4.4595206 magnetization       1.4905640

 Broyden mixing:
  rms(total) = 0.96590E-01    rms(broyden)= 0.95836E-01
  rms(prec ) = 0.10207E+00
  weight for this iteration     100.00

 eigenvalues of (default mixing * dielectric matrix)
  average eigenvalue GAMMA=   1.2678
  5.5249  2.3874  1.1080  0.4565  0.4565  0.6494  0.6494  0.1672  0.0112

 Free energy of the ion-electron system (eV)
  ---------------------------------------------------
  alpha Z        PSCENC =        17.18023149
  Ewald energy   TEWEN  =      8338.88239735
  -Hartree energ DENC   =    -11769.25922787
  -exchange      EXHF   =         0.00000000
  -V(xc)+E(xc)   XCENC  =      -121.58783339
  PAW double counting   =      2507.07592500    -2373.83365451
  entropy T*S    EENTRO =         0.00000000
  eigenvalues    EBANDS =      -422.30395999
  atomic energy  EATOM  =      3790.54222716
  Solvation  Ediel_sol  =         0.00000000
  ---------------------------------------------------
  free energy    TOTEN  =       -33.30389476 eV

  energy without entropy =      -33.30389476  energy(sigma->0) =      -33.30389476


--------------------------------------------------------------------------------------------------------




--------------------------------------- Iteration      1(  15)  ---------------------------------------


    POTLOK:  cpu time   50.6800: real time   50.7727
    SETDIJ:  cpu time    0.0480: real time    0.0484
     EDDAV:  cpu time   28.5400: real time   29.0310
 BZINTS: Fermi energy: -2.138233; 65.000000 electrons
         Band energy:-422.716702;  BLOECHL correction: -0.021744
       DOS:  cpu time    0.0040: real time    0.0049
    CHARGE:  cpu time    2.1240: real time    2.1526
    MIXING:  cpu time    0.0440: real time    0.0464
    --------------------------------------------
      LOOP:  cpu time   81.4400: real time   82.0560

 eigenvalue-minimisations  :  1264
 total energy-change (2. order) :-0.3467722E-01  (-0.1154489E-01)
 number of electron      64.9999997 magnetization       2.9111066
 augmentation part        4.5709840 magnetization       1.2562314

 Broyden mixing:
  rms(total) = 0.35566E-01    rms(broyden)= 0.35462E-01
  rms(prec ) = 0.36254E-01
  weight for this iteration     100.00

 eigenvalues of (default mixing * dielectric matrix)
  average eigenvalue GAMMA=   1.4858
  7.6473  2.5139  1.4221  0.4563  0.4563  0.8589  0.6626  0.6626  0.1671  0.0112

 Free energy of the ion-electron system (eV)
  ---------------------------------------------------
  alpha Z        PSCENC =        17.18023149
  Ewald energy   TEWEN  =      8338.88239735
  -Hartree energ DENC   =    -11769.01573799
  -exchange      EXHF   =         0.00000000
  -V(xc)+E(xc)   XCENC  =      -121.65992968
  PAW double counting   =      2501.48322213    -2368.03428038
  entropy T*S    EENTRO =         0.00000000
  eigenvalues    EBANDS =      -422.71670207
  atomic energy  EATOM  =      3790.54222716
  Solvation  Ediel_sol  =         0.00000000
  ---------------------------------------------------
  free energy    TOTEN  =       -33.33857198 eV

  energy without entropy =      -33.33857198  energy(sigma->0) =      -33.33857198


--------------------------------------------------------------------------------------------------------




--------------------------------------- Iteration      1(  16)  ---------------------------------------


    POTLOK:  cpu time   50.7560: real time   50.8991
    SETDIJ:  cpu time    0.0480: real time    0.0476
     EDDAV:  cpu time   26.5160: real time   26.6628
 BZINTS: Fermi energy: -2.127231; 65.000000 electrons
         Band energy:-421.865566;  BLOECHL correction: -0.021613
       DOS:  cpu time    0.0080: real time    0.0073
    CHARGE:  cpu time    2.1960: real time    2.2013
    MIXING:  cpu time    0.0480: real time    0.0472
    --------------------------------------------
      LOOP:  cpu time   79.5720: real time   79.8652

 eigenvalue-minimisations  :  1152
 total energy-change (2. order) :-0.4452874E-02  (-0.1418430E-02)
 number of electron      64.9999997 magnetization       2.8425072
 augmentation part        4.5456071 magnetization       1.2021174

 Broyden mixing:
  rms(total) = 0.28566E-01    rms(broyden)= 0.28562E-01
  rms(prec ) = 0.30365E-01
  weight for this iteration     100.00

 eigenvalues of (default mixing * dielectric matrix)
  average eigenvalue GAMMA=   1.6004
  9.0674  2.6186  1.6767  1.0510  0.4564  0.4564  0.7368  0.7368  0.6264  0.1671
  0.0112

 Free energy of the ion-electron system (eV)
  ---------------------------------------------------
  alpha Z        PSCENC =        17.18023149
  Ewald energy   TEWEN  =      8338.88239735
  -Hartree energ DENC   =    -11769.69211335
  -exchange      EXHF   =         0.00000000
  -V(xc)+E(xc)   XCENC  =      -121.68013089
  PAW double counting   =      2502.32712471    -2369.03719508
  entropy T*S    EENTRO =         0.00000000
  eigenvalues    EBANDS =      -421.86556625
  atomic energy  EATOM  =      3790.54222716
  Solvation  Ediel_sol  =         0.00000000
  ---------------------------------------------------
  free energy    TOTEN  =       -33.34302486 eV

  energy without entropy =      -33.34302486  energy(sigma->0) =      -33.34302486


--------------------------------------------------------------------------------------------------------




--------------------------------------- Iteration      1(  17)  ---------------------------------------


    POTLOK:  cpu time   50.3320: real time   50.9116
    SETDIJ:  cpu time    0.0480: real time    0.0474
     EDDAV:  cpu time   24.2080: real time   24.3322
 BZINTS: Fermi energy: -2.137150; 65.000000 electrons
         Band energy:-422.220414;  BLOECHL correction: -0.022165
       DOS:  cpu time    0.0040: real time    0.0063
    CHARGE:  cpu time    2.1720: real time    2.1776
    MIXING:  cpu time    0.0440: real time    0.0495
    --------------------------------------------
      LOOP:  cpu time   76.8080: real time   77.5247

 eigenvalue-minimisations  :  1040
 total energy-change (2. order) : 0.1066363E-02  (-0.3355156E-03)
 number of electron      64.9999997 magnetization       2.8355765
 augmentation part        4.5755417 magnetization       1.1868474

 Broyden mixing:
  rms(total) = 0.24144E-01    rms(broyden)= 0.24140E-01
  rms(prec ) = 0.25169E-01
  weight for this iteration     100.00

 eigenvalues of (default mixing * dielectric matrix)
  average eigenvalue GAMMA=   1.5778
  9.2981  2.6460  1.8062  1.0828  0.4564  0.4564  0.8660  0.8660  0.6656  0.6122
  0.1671  0.0112

 Free energy of the ion-electron system (eV)
  ---------------------------------------------------
  alpha Z        PSCENC =        17.18023149
  Ewald energy   TEWEN  =      8338.88239735
  -Hartree energ DENC   =    -11769.28067667
  -exchange      EXHF   =         0.00000000
  -V(xc)+E(xc)   XCENC  =      -121.70253224
  PAW double counting   =      2502.09035690    -2368.83354821
  entropy T*S    EENTRO =         0.00000000
  eigenvalues    EBANDS =      -422.22041427
  atomic energy  EATOM  =      3790.54222716
  Solvation  Ediel_sol  =         0.00000000
  ---------------------------------------------------
  free energy    TOTEN  =       -33.34195849 eV

  energy without entropy =      -33.34195849  energy(sigma->0) =      -33.34195849


--------------------------------------------------------------------------------------------------------




--------------------------------------- Iteration      1(  18)  ---------------------------------------


    POTLOK:  cpu time   50.7480: real time   50.8947
    SETDIJ:  cpu time    0.0520: real time    0.0491
     EDDAV:  cpu time   24.8120: real time   24.9327
 BZINTS: Fermi energy: -2.132737; 65.000000 electrons
         Band energy:-422.019557;  BLOECHL correction: -0.022046
       DOS:  cpu time    0.0040: real time    0.0052
    CHARGE:  cpu time    2.1360: real time    2.1442
    MIXING:  cpu time    0.0480: real time    0.0495
    --------------------------------------------
      LOOP:  cpu time   77.8000: real time   78.0754

 eigenvalue-minimisations  :  1072
 total energy-change (2. order) : 0.2077524E-03  (-0.1257592E-03)
 number of electron      64.9999997 magnetization       2.8338380
 augmentation part        4.5667210 magnetization       1.1888575

 Broyden mixing:
  rms(total) = 0.22271E-01    rms(broyden)= 0.22271E-01
  rms(prec ) = 0.23215E-01
  weight for this iteration     100.00

 eigenvalues of (default mixing * dielectric matrix)
  average eigenvalue GAMMA=   1.5813
  9.3636  2.6740  2.0073  1.4775  1.0656  0.4564  0.4564  0.8489  0.7269  0.6945
  0.6072  0.1671  0.0112

 Free energy of the ion-electron system (eV)
  ---------------------------------------------------
  alpha Z        PSCENC =        17.18023149
  Ewald energy   TEWEN  =      8338.88239735
  -Hartree energ DENC   =    -11769.42442140
  -exchange      EXHF   =         0.00000000
  -V(xc)+E(xc)   XCENC  =      -121.70329993
  PAW double counting   =      2502.98591121    -2369.78523980
  entropy T*S    EENTRO =         0.00000000
  eigenvalues    EBANDS =      -422.01955684
  atomic energy  EATOM  =      3790.54222716
  Solvation  Ediel_sol  =         0.00000000
  ---------------------------------------------------
  free energy    TOTEN  =       -33.34175074 eV

  energy without entropy =      -33.34175074  energy(sigma->0) =      -33.34175074


--------------------------------------------------------------------------------------------------------




--------------------------------------- Iteration      1(  19)  ---------------------------------------


    POTLOK:  cpu time   50.8440: real time   50.9491
    SETDIJ:  cpu time    0.1040: real time    0.1024
     EDDAV:  cpu time   23.2960: real time   23.5462
 BZINTS: Fermi energy: -2.129184; 65.000000 electrons
         Band energy:-421.837138;  BLOECHL correction: -0.021964
       DOS:  cpu time    0.0040: real time    0.0069
    CHARGE:  cpu time    2.1160: real time    2.1497
    MIXING:  cpu time    0.0480: real time    0.0510
    --------------------------------------------
      LOOP:  cpu time   76.4120: real time   76.8052

 eigenvalue-minimisations  :   992
 total energy-change (2. order) : 0.4138203E-03  (-0.5739595E-04)
 number of electron      64.9999997 magnetization       2.8316209
 augmentation part        4.5617406 magnetization       1.1881568

 Broyden mixing:
  rms(total) = 0.21994E-01    rms(broyden)= 0.21994E-01
  rms(prec ) = 0.22913E-01
  weight for this iteration     100.00

 eigenvalues of (default mixing * dielectric matrix)
  average eigenvalue GAMMA=   1.5756
  9.3895  2.7173  2.2981  1.6604  1.0978  0.4564  0.4564  0.9127  0.9127  0.6848
  0.6848  0.6091  0.1671  0.0112

 Free energy of the ion-electron system (eV)
  ---------------------------------------------------
  alpha Z        PSCENC =        17.18023149
  Ewald energy   TEWEN  =      8338.88239735
  -Hartree energ DENC   =    -11769.58250493
  -exchange      EXHF   =         0.00000000
  -V(xc)+E(xc)   XCENC  =      -121.70251965
  PAW double counting   =      2503.57041607    -2370.39444604
  entropy T*S    EENTRO =         0.00000000
  eigenvalues    EBANDS =      -421.83713838
  atomic energy  EATOM  =      3790.54222716
  Solvation  Ediel_sol  =         0.00000000
  ---------------------------------------------------
  free energy    TOTEN  =       -33.34133692 eV

  energy without entropy =      -33.34133692  energy(sigma->0) =      -33.34133692


--------------------------------------------------------------------------------------------------------




--------------------------------------- Iteration      1(  20)  ---------------------------------------


    POTLOK:  cpu time   50.4480: real time   50.8869
    SETDIJ:  cpu time    0.0480: real time    0.0481
     EDDAV:  cpu time   22.3480: real time   22.5300
 BZINTS: Fermi energy: -2.126332; 65.000000 electrons
         Band energy:-421.653504;  BLOECHL correction: -0.021965
       DOS:  cpu time    0.0040: real time    0.0071
    CHARGE:  cpu time    2.1920: real time    2.2155
    MIXING:  cpu time    0.0520: real time    0.0519
    --------------------------------------------
      LOOP:  cpu time   75.0920: real time   75.7395

 eigenvalue-minimisations  :   944
 total energy-change (2. order) : 0.1453707E-03  (-0.2406069E-04)
 number of electron      64.9999997 magnetization       2.8294206
 augmentation part        4.5615068 magnetization       1.1864199

 Broyden mixing:
  rms(total) = 0.21861E-01    rms(broyden)= 0.21861E-01
  rms(prec ) = 0.22755E-01
  weight for this iteration     100.00

 eigenvalues of (default mixing * dielectric matrix)
  average eigenvalue GAMMA=   1.5578
  9.3992  2.7514  2.4661  1.6886  1.1645  1.1645  0.4564  0.4564  0.9414  0.1671
  0.7220  0.7220  0.6076  0.6489  0.0112

 Free energy of the ion-electron system (eV)
  ---------------------------------------------------
  alpha Z        PSCENC =        17.18023149
  Ewald energy   TEWEN  =      8338.88239735
  -Hartree energ DENC   =    -11769.76234266
  -exchange      EXHF   =         0.00000000
  -V(xc)+E(xc)   XCENC  =      -121.70233340
  PAW double counting   =      2503.83650323    -2370.66437061
  entropy T*S    EENTRO =         0.00000000
  eigenvalues    EBANDS =      -421.65350412
  atomic energy  EATOM  =      3790.54222716
  Solvation  Ediel_sol  =         0.00000000
  ---------------------------------------------------
  free energy    TOTEN  =       -33.34119155 eV

  energy without entropy =      -33.34119155  energy(sigma->0) =      -33.34119155


--------------------------------------------------------------------------------------------------------




--------------------------------------- Iteration      1(  21)  ---------------------------------------


    POTLOK:  cpu time   50.6080: real time   50.7698
    SETDIJ:  cpu time    0.0480: real time    0.0481
     EDDAV:  cpu time   24.2280: real time   24.5259
 BZINTS: Fermi energy: -2.118140; 65.000000 electrons
         Band energy:-449.740554;  BLOECHL correction: -0.021618
       DOS:  cpu time    0.0040: real time    0.0069
    CHARGE:  cpu time    2.1680: real time    2.1854
    MIXING:  cpu time    0.0520: real time    0.0531
    --------------------------------------------
      LOOP:  cpu time   77.1080: real time   77.5892

 eigenvalue-minimisations  :  1040
 total energy-change (2. order) :-0.2842808E+02  (-0.2798171E+02)
 number of electron      64.9999997 magnetization       2.8296238
 augmentation part        4.4996494 magnetization       1.2454294

 Broyden mixing:
  rms(total) = 0.19850E+01    rms(broyden)= 0.19459E+01
  rms(prec ) = 0.19923E+01
  weight for this iteration     100.00

 eigenvalues of (default mixing * dielectric matrix)
  average eigenvalue GAMMA=   1.4605
  9.3992  2.7514  2.4663  1.6885  1.1645  1.1645  0.9414  0.4564  0.4564  0.7220
  0.7220  0.6489  0.6076  0.1671  0.0112  0.0000

 Free energy of the ion-electron system (eV)
  ---------------------------------------------------
  alpha Z        PSCENC =        17.18023149
  Ewald energy   TEWEN  =      8338.88239735
  -Hartree energ DENC   =    -11770.10324883
  -exchange      EXHF   =         0.00000000
  -V(xc)+E(xc)   XCENC  =      -121.70156650
  PAW double counting   =      2503.97982420    -2370.80858517
  entropy T*S    EENTRO =         0.00000000
  eigenvalues    EBANDS =      -449.74055445
  atomic energy  EATOM  =      3790.54222716
  Solvation  Ediel_sol  =         0.00000000
  ---------------------------------------------------
  free energy    TOTEN  =       -61.76927476 eV

  energy without entropy =      -61.76927476  energy(sigma->0) =      -61.76927476


--------------------------------------------------------------------------------------------------------




--------------------------------------- Iteration      1(  22)  ---------------------------------------


    POTLOK:  cpu time   50.2480: real time   50.8254
    SETDIJ:  cpu time    0.0480: real time    0.0483
     EDDAV:  cpu time   26.9640: real time   27.0600
 BZINTS: Fermi energy: -1.993048; 65.000000 electrons
         Band energy:-420.237222;  BLOECHL correction: -0.022642
       DOS:  cpu time    0.0080: real time    0.0065
    CHARGE:  cpu time    2.1600: real time    2.1666
    MIXING:  cpu time    0.0560: real time    0.0544
    --------------------------------------------
      LOOP:  cpu time   79.4840: real time   80.1612

 eigenvalue-minimisations  :  1168
 total energy-change (2. order) : 0.3003320E+02  (-0.1131541E+03)
 number of electron      64.9999997 magnetization       2.8899309
 augmentation part        4.6172262 magnetization       1.1021056

 Broyden mixing:
  rms(total) = 0.31749E+00    rms(broyden)= 0.49363E-01
  rms(prec ) = 0.52644E-01
  weight for this iteration     100.00
  WARNING: grid for Broyden might be to small

 eigenvalues of (default mixing * dielectric matrix)
  average eigenvalue GAMMA=   1.3766
  9.3970  2.7716  2.4527  1.7013  1.1711  1.1711  0.9320  0.4564  0.4564  0.7261
  0.7261  0.6487  0.6085  0.1671  0.0112  0.0053  0.0002

 Free energy of the ion-electron system (eV)
  ---------------------------------------------------
  alpha Z        PSCENC =        17.18023149
  Ewald energy   TEWEN  =      8338.88239735
  -Hartree energ DENC   =    -11770.12018195
  -exchange      EXHF   =         0.00000000
  -V(xc)+E(xc)   XCENC  =      -121.15412854
  PAW double counting   =      2503.97410227    -2370.80349772
  entropy T*S    EENTRO =         0.00000000
  eigenvalues    EBANDS =      -420.23722241
  atomic energy  EATOM  =      3790.54222716
[...]
     34      -1.1649      0.00000
     35      -0.8192      0.00000
     36      -0.5654      0.00000
     37       0.4017      0.00000
     38       0.7155      0.00000
     39       0.8860      0.00000
     40       1.6477      0.00000
     41       1.8390      0.00000
     42       1.8925      0.00000
     43       2.5312      0.00000
     44       2.6632      0.00000
     45       3.0882      0.00000
     46       3.2816      0.00000
     47       3.4137      0.00000
     48       4.0176      0.00000

 k-point     5 :      -0.4000    0.2000    0.0000
  band No.  band energies     occupation 
      1     -14.7357      1.00000
      2     -13.6830      1.00000
      3     -13.3269      1.00000
      4     -13.1201      1.00000
      5     -12.8575      1.00000
      6     -12.6807      1.00000
      7     -10.8538      1.00000
      8      -8.6217      1.00000
      9      -6.9032      1.00000
     10      -6.4392      1.00000
     11      -6.2389      1.00000
     12      -5.6752      1.00000
     13      -5.6370      1.00000
     14      -5.1471      1.00000
     15      -4.9206      1.00000
     16      -4.7605      1.00000
     17      -4.7169      1.00000
     18      -4.5008      1.00000
     19      -4.4029      1.00000
     20      -4.2219      1.00000
     21      -4.1056      1.00000
     22      -3.7435      1.00000
     23      -3.4611      1.00000
     24      -3.3226      1.00000
     25      -3.3028      1.00000
     26      -3.2200      1.00000
     27      -3.0624      1.00000
     28      -2.9484      1.00000
     29      -2.9037      1.00000
     30      -2.8045      1.00000
     31      -2.6598      1.00000
     32      -1.5925      1.00000
     33      -1.4840      0.97847
     34      -1.2969      0.00000
     35      -0.8401      0.00000
     36      -0.7289      0.00000
     37       0.0878      0.00000
     38       0.2381      0.00000
     39       0.7320      0.00000
     40       1.3574      0.00000
     41       1.6673      0.00000
     42       1.7555      0.00000
     43       2.7538      0.00000
     44       3.1669      0.00000
     45       3.1737      0.00000
     46       3.2207      0.00000
     47       3.4375      0.00000
     48       3.9801      0.00000


--------------------------------------------------------------------------------------------------------


 soft charge-density along one line, spin component           1
         0         1         2         3         4         5         6         7         8         9
 total charge-density along one line

 soft charge-density along one line, spin component           2
         0         1         2         3         4         5         6         7         8         9
 total charge-density along one line

 pseudopotential strength for first ion, spin component:           1
 -9.558  -0.003   0.000  -0.005   0.000   0.973   0.002  -0.000
 -0.003  -9.566   0.000  -0.000  -0.005   0.002   0.977  -0.000
  0.000   0.000  -9.553   0.000   0.000  -0.000  -0.000   0.969
 -0.005  -0.000   0.000  -9.566   0.003   0.002   0.000  -0.000
  0.000  -0.005   0.000   0.003  -9.558  -0.000   0.002  -0.000
  0.973   0.002  -0.000   0.002  -0.000   0.910  -0.002   0.000
  0.002   0.977  -0.000   0.000   0.002  -0.002   0.908   0.000
 -0.000  -0.000   0.969  -0.000  -0.000   0.000   0.000   0.913
  0.002   0.000  -0.000   0.977  -0.002  -0.001  -0.000   0.000
 -0.000   0.002  -0.000  -0.002   0.973   0.000  -0.001   0.000
  0.000  -0.000  -0.000  -0.000   0.000  -0.000  -0.000   0.001
 -0.000   0.000  -0.000   0.000  -0.000   0.000  -0.000  -0.000
  0.000   0.003   0.000  -0.000   0.000  -0.000  -0.001  -0.000
 -0.000  -0.000   0.003  -0.000  -0.000  -0.000   0.000  -0.001
  0.000  -0.000   0.000   0.003  -0.000   0.000  -0.000  -0.000
 -0.000  -0.001  -0.000   0.000  -0.001   0.000   0.000   0.000
  0.000   0.000  -0.001   0.000   0.000  -0.000  -0.000   0.000
 -0.001   0.000  -0.000  -0.001   0.000   0.000  -0.000   0.000
 pseudopotential strength for first ion, spin component:           2
 -9.775  -0.087   0.000  -0.002   0.000   1.066   0.036  -0.000
 -0.087  -9.858   0.000  -0.000  -0.002   0.036   1.100  -0.000
  0.000   0.000  -9.708   0.000   0.000  -0.000  -0.000   1.037
 -0.002  -0.000   0.000  -9.858   0.087   0.001   0.000  -0.000
  0.000  -0.002   0.000   0.087  -9.775  -0.000   0.001  -0.000
  1.066   0.036  -0.000   0.001  -0.000   0.870  -0.015   0.000
  0.036   1.100  -0.000   0.000   0.001  -0.015   0.856   0.000
 -0.000  -0.000   1.037  -0.000  -0.000   0.000   0.000   0.883
  0.001   0.000  -0.000   1.100  -0.036  -0.000  -0.000   0.000
 -0.000   0.001  -0.000  -0.036   1.066   0.000  -0.000   0.000
  0.000  -0.000   0.001  -0.000   0.000  -0.000  -0.000   0.000
 -0.000   0.000  -0.000   0.000  -0.000   0.000  -0.000   0.000
 -0.000   0.002   0.000  -0.000   0.001   0.000  -0.001  -0.000
 -0.000  -0.000   0.003  -0.000   0.000  -0.000   0.000  -0.001
  0.001  -0.000   0.000   0.002   0.000   0.000  -0.000  -0.000
 -0.000  -0.001  -0.000   0.000  -0.001   0.000   0.000   0.000
  0.000   0.000  -0.001   0.000  -0.000  -0.000  -0.000   0.000
 -0.001   0.000  -0.000  -0.001   0.000   0.000  -0.000   0.000
 total augmentation occupancy for first ion, spin component:           1
  1.827  -0.131   0.000  -0.009  -0.000   0.047   0.066   0.000   0.006  -0.000  -0.000  -0.000   0.001   0.000   0.009  -0.000
 -0.131   1.710  -0.000  -0.000  -0.009   0.065   0.111   0.000  -0.000   0.006   0.000   0.000   0.003   0.000   0.002   0.000
  0.000  -0.000   1.944  -0.000  -0.000   0.000   0.000  -0.011   0.000  -0.000  -0.004  -0.001  -0.000   0.004   0.000   0.000
 -0.009  -0.000  -0.000   1.710   0.131   0.006   0.000   0.000   0.111  -0.065  -0.000   0.000  -0.002   0.000   0.003   0.000
 -0.000  -0.009  -0.000   0.131   1.827   0.000   0.006  -0.000  -0.066   0.047   0.000   0.000   0.009  -0.000  -0.001  -0.000
  0.047   0.065   0.000   0.006   0.000   0.061   0.044   0.000  -0.003  -0.000   0.000  -0.000  -0.000  -0.000   0.011  -0.000
  0.066   0.111   0.000   0.000   0.006   0.044   0.105   0.000  -0.000  -0.003  -0.000   0.000   0.002   0.000  -0.001  -0.000
  0.000   0.000  -0.011   0.000  -0.000   0.000   0.000   0.043   0.000  -0.000   0.013  -0.008  -0.000  -0.000   0.000   0.000
  0.006  -0.000   0.000   0.111  -0.066  -0.003  -0.000   0.000   0.105  -0.044   0.000   0.000   0.001   0.000   0.002  -0.000
 -0.000   0.006  -0.000  -0.065   0.047  -0.000  -0.003  -0.000  -0.044   0.061  -0.000   0.000   0.011   0.000   0.000  -0.002
 -0.000   0.000  -0.004  -0.000   0.000   0.000  -0.000   0.013   0.000  -0.000   1.022  -0.282   0.000   0.003  -0.000   0.000
 -0.000   0.000  -0.001   0.000   0.000  -0.000   0.000  -0.008   0.000   0.000  -0.282   0.128   0.000  -0.002  -0.000   0.000
  0.001   0.003  -0.000  -0.002   0.009  -0.000   0.002  -0.000   0.001   0.011   0.000   0.000   0.184   0.000  -0.000  -0.013
  0.000   0.000   0.004   0.000  -0.000  -0.000   0.000  -0.000   0.000   0.000   0.003  -0.002   0.000   0.188  -0.000  -0.000
  0.009   0.002   0.000   0.003  -0.001   0.011  -0.001   0.000   0.002   0.000  -0.000  -0.000  -0.000  -0.000   0.184   0.000
 -0.000   0.000   0.000   0.000  -0.000  -0.000  -0.000   0.000  -0.000  -0.002   0.000   0.000  -0.013  -0.000   0.000   0.001
  0.000   0.000   0.000  -0.000  -0.000  -0.000  -0.000  -0.000  -0.000   0.000  -0.000   0.000  -0.000  -0.014   0.000   0.000
 -0.000  -0.000  -0.000   0.000   0.000  -0.002   0.000  -0.000  -0.000   0.000   0.000  -0.000  -0.000   0.000  -0.013  -0.000
 total augmentation occupancy for first ion, spin component:           2
 -0.031  -0.049  -0.000   0.002   0.000   0.027   0.024   0.000  -0.001   0.000   0.000   0.000  -0.001  -0.000   0.001  -0.000
 -0.049  -0.075  -0.000   0.000   0.002   0.023   0.049   0.000   0.000  -0.001   0.000  -0.000  -0.002   0.000   0.002  -0.000
 -0.000  -0.000   0.005  -0.000   0.000   0.000   0.000   0.010   0.000  -0.000   0.002   0.000  -0.000  -0.000  -0.000  -0.000
  0.002   0.000  -0.000  -0.075   0.049  -0.001  -0.000   0.000   0.049  -0.023   0.000   0.000  -0.002  -0.000  -0.002   0.000
  0.000   0.002   0.000   0.049  -0.031  -0.000  -0.001  -0.000  -0.024   0.027  -0.000  -0.000   0.001   0.000   0.001  -0.000
  0.027   0.023   0.000  -0.001  -0.000  -0.005  -0.008  -0.000   0.001   0.000  -0.000  -0.000   0.001   0.000  -0.000   0.000
  0.024   0.049   0.000  -0.000  -0.001  -0.008  -0.013  -0.000   0.000   0.001   0.000   0.000   0.001   0.000  -0.001  -0.000
  0.000   0.000   0.010   0.000  -0.000  -0.000  -0.000   0.000  -0.000   0.000  -0.001  -0.000   0.000   0.000   0.000   0.000
 -0.001   0.000   0.000   0.049  -0.024   0.001   0.000  -0.000  -0.013   0.008   0.000   0.000   0.001   0.000   0.001  -0.000
  0.000  -0.001  -0.000  -0.023   0.027   0.000   0.001   0.000   0.008  -0.005   0.000   0.000  -0.000  -0.000  -0.001  -0.000
  0.000  -0.000   0.002   0.000  -0.000  -0.000   0.000  -0.001   0.000   0.000  -0.005  -0.010   0.000  -0.000   0.000   0.000
  0.000   0.000   0.000  -0.000  -0.000  -0.000   0.000  -0.000   0.000   0.000  -0.010   0.005   0.000  -0.000  -0.000   0.000
 -0.001  -0.002  -0.000  -0.002   0.001   0.001   0.001   0.000   0.001  -0.000   0.000   0.000  -0.000   0.000   0.000  -0.000
 -0.000   0.000  -0.000  -0.000   0.000   0.000   0.000   0.000  -0.000  -0.000  -0.000  -0.000   0.000   0.000  -0.000  -0.000
  0.001   0.002  -0.000  -0.002   0.001  -0.000  -0.001   0.000   0.001  -0.001   0.000   0.000   0.000  -0.000  -0.000   0.000
 -0.000  -0.000  -0.000   0.000  -0.000   0.000  -0.000   0.000  -0.000  -0.000   0.000   0.000  -0.000  -0.000   0.000   0.000
 -0.000   0.000  -0.000   0.000   0.000   0.000   0.000   0.000  -0.000  -0.000  -0.000   0.000  -0.000  -0.000   0.000   0.000
 -0.000  -0.000  -0.000  -0.000   0.000  -0.000   0.000  -0.000  -0.000  -0.000   0.000   0.000  -0.000   0.000  -0.000  -0.000


------------------------ aborting loop because EDIFF is reached ----------------------------------------





 total charge     

# of ion       s       p       d       tot
------------------------------------------
    1        0.395   0.421   8.397   9.213
    2        0.395   0.421   8.400   9.216
    3        0.780   0.823   0.000   1.604
    4        1.076   1.379   0.000   2.455
    5        1.419   1.893   0.048   3.359
    6        1.403   1.862   0.051   3.316
    7        1.414   1.884   0.049   3.346
    8        1.407   1.915   0.044   3.365
    9        1.397   1.939   0.046   3.382
   10        1.403   1.919   0.045   3.366
--------------------------------------------------
tot         11.088  14.456  17.080  42.624



 magnetization (x)

# of ion       s       p       d       tot
------------------------------------------
    1       -0.000   0.001  -0.277  -0.276
    2        0.000  -0.001   0.277   0.277
    3       -0.000  -0.000   0.000  -0.000
    4        0.000   0.000   0.000   0.000
    5        0.001   0.006  -0.000   0.007
    6        0.000  -0.001  -0.000  -0.001
    7       -0.001  -0.005   0.000  -0.005
    8       -0.000   0.010   0.000   0.010
    9       -0.000   0.003   0.000   0.003
   10        0.000  -0.013  -0.000  -0.013
--------------------------------------------------
tot          0.000   0.001   0.001   0.001

    CHARGE:  cpu time    2.2880: real time    2.2918
    FORLOC:  cpu time    0.0640: real time    0.0641
    FORNL :  cpu time    6.4960: real time    6.5917
    STRESS:  cpu time   19.6960: real time   19.8593
    FORCOR:  cpu time   50.8840: real time   51.1201
    FORHAR:  cpu time    0.3280: real time    0.3301
    MIXING:  cpu time    0.0440: real time    0.0423
    OFIELD:  cpu time    0.0000: real time    0.0001

  FORCE on cell =-STRESS in cart. coord.  units (eV):
  Direction    XX          YY          ZZ          XY          YZ          ZX
  --------------------------------------------------------------------------------------
  Alpha Z    19.57169    19.57169    19.57169
  Ewald   10055.23825 10055.23568-12133.66973    -0.00221    -0.00060    -0.00110
  Hartree 10788.36017 10788.36129-10150.79636    -0.00039     0.00009     0.00015
  E(xc)    -284.17760  -284.17741  -284.07134    -0.00012     0.00002     0.00001
  Local  -21729.85370-21729.85320 21364.18481     0.00233     0.00038     0.00072
  n-local   687.53866   686.97425   699.66499    -0.53342     0.25425     0.44800
  augment   -71.53879   -71.53863   -79.11483     0.00001     0.00004     0.00005
  Kinetic   540.32480   530.51345   564.38368    -5.57276    -1.31946    -1.27168
  Fock        0.00000     0.00000     0.00000     0.00000     0.00000     0.00000
  -------------------------------------------------------------------------------------
  Total       0.27531     0.27531     0.15292     0.00000     0.00000     0.00000
  in kB       0.51866     0.51866     0.28808     0.00000     0.00000     0.00000
  external pressure =        0.44 kB  Pullay stress =        0.00 kB


 VOLUME and BASIS-vectors are now :
 -----------------------------------------------------------------------------
  energy-cutoff  :      520.00
  volume of cell :      850.45
      direct lattice vectors                 reciprocal lattice vectors
     6.719045231 -0.000000099 -0.000000000     0.148830668 -0.085927423  0.000000000
     3.359522245  5.818863476 -0.000000000     0.000000003  0.171854864 -0.000000000
    -0.000000000  0.000000000 21.752276226     0.000000000  0.000000000  0.045972200

  length of vectors
     6.719045231  6.719044713 21.752276226     0.171854851  0.171854864  0.045972200


 FORCES acting on ions
    electron-ion (+dipol)            ewald-force                    non-local-force                 convergence-correction
 -----------------------------------------------------------------------------------------------
   0.167E-03 0.852E-04 0.102E+02   0.735E-03 0.441E-03 -.105E+02   -.213E-18 0.218E-18 0.360E+00   0.261E-06 0.844E-06 0.214E-02
   -.177E-03 -.862E-04 0.740E+01   -.726E-03 -.436E-03 -.771E+01   -.183E-18 0.141E-16 0.309E+00   -.657E-06 0.458E-06 0.289E-02
   -.235E-04 -.802E-05 0.211E+03   -.148E-03 -.820E-04 -.210E+03   0.455E-18 -.467E-18 -.769E+00   0.297E-07 0.132E-07 0.312E-01
   0.570E-04 0.656E-05 -.253E+03   0.190E-03 0.105E-03 0.252E+03   0.274E-16 -.274E-16 0.662E+00   0.163E-07 -.526E-08 -.402E-01
   -.217E+02 0.106E+00 -.443E+03   0.192E+02 -.129E+00 0.446E+03   0.226E+01 -.392E-02 -.365E+01   -.174E-03 0.222E-01 -.545E-01
   0.110E+02 0.188E+02 -.443E+03   -.972E+01 -.166E+02 0.446E+03   -.113E+01 -.195E+01 -.365E+01   0.193E-01 -.109E-01 -.545E-01
   0.108E+02 -.189E+02 -.443E+03   -.950E+01 0.167E+02 0.446E+03   -.112E+01 0.196E+01 -.365E+01   -.191E-01 -.112E-01 -.545E-01
   0.292E+02 -.164E+00 0.450E+03   -.260E+02 0.135E+00 -.454E+03   -.331E+01 0.185E-01 0.401E+01   0.138E-02 0.220E-01 0.557E-01
   -.148E+02 -.252E+02 0.450E+03   0.131E+02 0.225E+02 -.454E+03   0.167E+01 0.286E+01 0.401E+01   0.184E-01 -.122E-01 0.557E-01
   -.145E+02 0.254E+02 0.450E+03   0.129E+02 -.226E+02 -.454E+03   0.164E+01 -.287E+01 0.401E+01   -.198E-01 -.981E-02 0.557E-01
 -----------------------------------------------------------------------------------------------
   0.649E-04 -.252E-07 -.165E+01   0.142E-13 -.213E-13 0.114E-12   -.666E-15 -.444E-15 0.164E+01   -.313E-06 0.135E-05 -.397E-03


 POSITION                                       TOTAL-FORCE (eV/Angst)
 -----------------------------------------------------------------------------------
      3.35952      1.93962     10.88438         0.000000      0.000000      0.000505
      6.71905      3.87924     10.88839         0.000000      0.000000      0.002114
     -0.00000      0.00000      9.75243         0.000000     -0.000000      0.003545
     -0.00000      0.00000     12.04693         0.000000      0.000000      0.074550
      4.20993      0.00244     12.48041        -0.248133     -0.003906      0.009345
      1.25668      2.17174     12.48041         0.120684      0.216842      0.009345
      4.61197      3.64469     12.48041         0.127449     -0.212936      0.009345
      5.86864      5.81642      9.27186        -0.091044      0.010331     -0.036250
      8.82189      3.64712      9.27186         0.054469      0.073680     -0.036250
      5.46660      2.17418      9.27186         0.036575     -0.084012     -0.036250
 -----------------------------------------------------------------------------------
    total drift:                                0.000065      0.000001     -0.014668


--------------------------------------------------------------------------------------------------------



  FREE ENERGIE OF THE ION-ELECTRON SYSTEM (eV)
  ---------------------------------------------------
  free  energy   TOTEN  =       -33.98065697 eV

  energy  without entropy=      -33.98065697  energy(sigma->0) =      -33.98065697

 d Force = 0.3958957E-03[ 0.359E-03, 0.432E-03]  d Energy =-0.3050818E-03 0.701E-03
 d Force = 0.2211441E+00[ 0.224E+00, 0.219E+00]  d Ewald  = 0.3725580E+02-0.370E+02


--------------------------------------------------------------------------------------------------------


    POTLOK:  cpu time   51.0240: real time   51.2473


--------------------------------------------------------------------------------------------------------




--------------------------------------------------------------------------------------------------------


  
 reached required accuracy - stopping structural energy minimisation
     LOOP+:  cpu time  599.2080: real time  601.7480
    4ORBIT:  cpu time    0.0000: real time    0.0000



 total charge     

# of ion       s       p       d       tot
------------------------------------------
    1        0.395   0.421   8.397   9.213
    2        0.395   0.421   8.400   9.216
    3        0.780   0.823   0.000   1.604
    4        1.076   1.379   0.000   2.455
    5        1.419   1.893   0.048   3.359
    6        1.403   1.862   0.051   3.316
    7        1.414   1.884   0.049   3.346
    8        1.407   1.915   0.044   3.365
    9        1.397   1.939   0.046   3.382
   10        1.403   1.919   0.045   3.366
--------------------------------------------------
tot         11.088  14.456  17.080  42.624



 magnetization (x)

# of ion       s       p       d       tot
------------------------------------------
    1       -0.000   0.001  -0.277  -0.276
    2        0.000  -0.001   0.277   0.277
    3       -0.000  -0.000   0.000  -0.000
    4        0.000   0.000   0.000   0.000
    5        0.001   0.006  -0.000   0.007
    6        0.000  -0.001  -0.000  -0.001
    7       -0.001  -0.005   0.000  -0.005
    8       -0.000   0.010   0.000   0.010
    9       -0.000   0.003   0.000   0.003
   10        0.000  -0.013  -0.000  -0.013
--------------------------------------------------
tot          0.000   0.001   0.001   0.001

 BZINTS: Fermi energy: -1.370606; 65.000000 electrons
         Band energy:-403.277030;  BLOECHL correction: -0.032178

 total amount of memory used by VASP MPI-rank0   131668. kBytes
=======================================================================

   base      :      30000. kBytes
   nonlr-proj:       9168. kBytes
   fftplans  :      11247. kBytes
   grid      :      68332. kBytes
   one-center:        311. kBytes
   wavefun   :      12610. kBytes

  
  
 General timing and accounting informations for this job:
 ========================================================
  
                  Total CPU time used (sec):    16094.428
                            User time (sec):    15738.360
                          System time (sec):      356.068
                         Elapsed time (sec):    16177.027
  
                   Maximum memory used (kb):      386260.
                   Average memory used (kb):           0.
  
                          Minor page faults:     15161156
                          Major page faults:            9
                 Voluntary context switches:         1093
