PROCAR lm decomposed
# of k-points:    5         # of bands:   48         # of ions:   10

 k-point     1 :    0.00000000 0.00000000 0.00000000     weight = 0.04000000

band     1 # energy  -15.21565982 # occ.  1.00000000

ion      s     py     pz     px    dxy    dyz    dz2    dxz  x2-y2    tot
    1  0.011  0.000  0.000  0.000  0.000  0.000  0.000  0.000  0.000  0.011
    2  0.011  0.000  0.000  0.000  0.000  0.000  0.000  0.000  0.000  0.011
    3  0.030  0.000  0.002  0.000  0.000  0.000  0.000  0.000  0.000  0.032
    4  0.163  0.000  0.001  0.000  0.000  0.000  0.000  0.000  0.000  0.164
    5  0.090  0.000  0.001  0.002  0.000  0.000  0.000  0.000  0.000  0.093
    6  0.090  0.001  0.001  0.000  0.000  0.000  0.000  0.000  0.000  0.093
    7  0.090  0.001  0.001  0.000  0.000  0.000  0.000  0.000  0.000  0.093
    8  0.029  0.000  0.001  0.000  0.000  0.000  0.000  0.000  0.000  0.030
    9  0.029  0.000  0.001  0.000  0.000  0.000  0.000  0.000  0.000  0.030
   10  0.029  0.000  0.001  0.000  0.000  0.000  0.000  0.000  0.000  0.030
tot    0.571  0.003  0.007  0.003  0.000  0.000  0.000  0.000  0.000  0.586

band     2 # energy  -13.73681559 # occ.  1.00000000

ion      s     py     pz     px    dxy    dyz    dz2    dxz  x2-y2    tot
    1  0.003  0.000  0.005  0.000  0.000  0.000  0.000  0.000  0.000  0.008
    2  0.003  0.000  0.005  0.000  0.000  0.000  0.000  0.000  0.000  0.008
    3  0.035  0.000  0.002  0.000  0.000  0.000  0.000  0.000  0.000  0.037
    4  0.037  0.000  0.001  0.000  0.000  0.000  0.000  0.000  0.000  0.039
    5  0.033  0.000  0.000  0.001  0.000  0.000  0.000  0.000  0.000  0.034
    6  0.033  0.001  0.000  0.000  0.000  0.000  0.000  0.000  0.000  0.034
    7  0.033  0.001  0.000  0.000  0.000  0.000  0.000  0.000  0.000  0.034
    8  0.148  0.000  0.000  0.001  0.000  0.000  0.000  0.000  0.000  0.149
    9  0.148  0.000  0.000  0.000  0.000  0.000  0.000  0.000  0.000  0.149
   10  0.148  0.000  0.000  0.000  0.000  0.000  0.000  0.000  0.000  0.149
tot    0.622  0.002  0.014  0.002  0.000  0.000  0.001  0.000  0.000  0.642

band     3 # energy  -12.68619928 # occ.  1.00000000

ion      s     py     pz     px    dxy    dyz    dz2    dxz  x2-y2    tot
    1  0.000  0.004  0.000  0.002  0.000  0.001  0.000  0.001  0.001  0.010
    2  0.000  0.006  0.000  0.000  0.001  0.002  0.000  0.000  0.001  0.010
    3  0.000  0.000  0.000  0.000  0.000  0.000  0.000  0.000  0.000  0.000
    4  0.000  0.001  0.000  0.016  0.000  0.000  0.000  0.000  0.000  0.017
    5  0.395  0.000  0.001  0.001  0.000  0.000  0.000  0.000  0.000  0.398
    6  0.220  0.001  0.001  0.000  0.000  0.000  0.000  0.000  0.000  0.222
    7  0.025  0.000  0.000  0.000  0.000  0.000  0.000  0.000  0.000  0.026
    8  0.020  0.000  0.000  0.000  0.000  0.000  0.000  0.000  0.000  0.020
    9  0.012  0.000  0.000  0.000  0.000  0.000  0.000  0.000  0.000  0.012
   10  0.001  0.000  0.000  0.000  0.000  0.000  0.000  0.000  0.000  0.001
tot    0.674  0.012  0.002  0.020  0.001  0.003  0.000  0.002  0.002  0.716

band     4 # energy  -12.68616564 # occ.  1.00000000

ion      s     py     pz     px    dxy    dyz    dz2    dxz  x2-y2    tot
    1  0.000  0.002  0.000  0.004  0.001  0.001  0.000  0.001  0.000  0.010
    2  0.000  0.000  0.000  0.006  0.001  0.000  0.000  0.002  0.001  0.010
    3  0.000  0.000  0.000  0.000  0.000  0.000  0.000  0.000  0.000  0.000
    4  0.000  0.016  0.000  0.001  0.000  0.000  0.000  0.000  0.000  0.017
    5  0.032  0.000  0.000  0.000  0.000  0.000  0.000  0.000  0.000  0.032
    6  0.207  0.001  0.001  0.000  0.000  0.000  0.000  0.000  0.000  0.208
    7  0.402  0.001  0.001  0.000  0.000  0.000  0.000  0.000  0.000  0.405
    8  0.002  0.000  0.000  0.000  0.000  0.000  0.000  0.000  0.000  0.002
    9  0.010  0.000  0.000  0.000  0.000  0.000  0.000  0.000  0.000  0.011
   10  0.021  0.000  0.000  0.000  0.000  0.000  0.000  0.000  0.000  0.021
tot    0.674  0.020  0.002  0.012  0.002  0.002  0.000  0.003  0.001  0.716

band     5 # energy  -12.41842279 # occ.  1.00000000

ion      s     py     pz     px    dxy    dyz    dz2    dxz  x2-y2    tot
    1  0.000  0.003  0.000  0.001  0.002  0.004  0.000  0.000  0.000  0.009
    2  0.000  0.002  0.000  0.002  0.001  0.003  0.000  0.001  0.001  0.010
    3  0.000  0.000  0.000  0.013  0.000  0.000  0.000  0.000  0.000  0.014
    4  0.000  0.000  0.000  0.003  0.000  0.000  0.000  0.000  0.000  0.003
    5  0.019  0.000  0.000  0.001  0.000  0.000  0.000  0.000  0.000  0.020
    6  0.008  0.000  0.000  0.000  0.000  0.000  0.000  0.000  0.000  0.009
    7  0.002  0.000  0.000  0.000  0.000  0.000  0.000  0.000  0.000  0.002
    8  0.414  0.000  0.001  0.002  0.000  0.000  0.000  0.000  0.000  0.417
    9  0.186  0.001  0.001  0.000  0.000  0.000  0.000  0.000  0.000  0.187
   10  0.045  0.000  0.000  0.000  0.000  0.000  0.000  0.000  0.000  0.045
tot    0.674  0.006  0.002  0.021  0.003  0.008  0.000  0.001  0.001  0.716

band     6 # energy  -12.41838670 # occ.  1.00000000

ion      s     py     pz     px    dxy    dyz    dz2    dxz  x2-y2    tot
    1  0.000  0.001  0.000  0.003  0.000  0.000  0.000  0.004  0.002  0.009
    2  0.000  0.002  0.000  0.002  0.001  0.001  0.000  0.003  0.001  0.010
    3  0.000  0.013  0.000  0.000  0.000  0.000  0.000  0.000  0.000  0.014
    4  0.000  0.003  0.000  0.000  0.000  0.000  0.000  0.000  0.000  0.003
    5  0.001  0.000  0.000  0.000  0.000  0.000  0.000  0.000  0.000  0.001
    6  0.011  0.000  0.000  0.000  0.000  0.000  0.000  0.000  0.000  0.012
    7  0.017  0.001  0.000  0.000  0.000  0.000  0.000  0.000  0.000  0.018
    8  0.016  0.000  0.000  0.000  0.000  0.000  0.000  0.000  0.000  0.016
    9  0.244  0.001  0.001  0.000  0.000  0.000  0.000  0.000  0.000  0.246
   10  0.385  0.001  0.001  0.000  0.000  0.000  0.000  0.000  0.000  0.388
tot    0.674  0.021  0.002  0.006  0.001  0.001  0.000  0.008  0.003  0.716

band     7 # energy  -11.74804993 # occ.  1.00000000

ion      s     py     pz     px    dxy    dyz    dz2    dxz  x2-y2    tot
    1  0.015  0.000  0.001  0.000  0.000  0.000  0.000  0.000  0.000  0.017
    2  0.015  0.000  0.001  0.000  0.000  0.000  0.000  0.000  0.000  0.016
    3  0.050  0.000  0.009  0.000  0.000  0.000  0.000  0.000  0.000  0.059
    4  0.236  0.000  0.007  0.000  0.000  0.000  0.000  0.000  0.000  0.243
    5  0.076  0.000  0.000  0.011  0.000  0.000  0.000  0.000  0.001  0.087
    6  0.076  0.008  0.000  0.003  0.001  0.000  0.000  0.000  0.000  0.087
    7  0.076  0.008  0.000  0.003  0.001  0.000  0.000  0.000  0.000  0.087
    8  0.005  0.000  0.000  0.002  0.000  0.000  0.000  0.000  0.000  0.007
    9  0.005  0.002  0.000  0.001  0.000  0.000  0.000  0.000  0.000  0.007
   10  0.005  0.002  0.000  0.001  0.000  0.000  0.000  0.000  0.000  0.007
tot    0.557  0.020  0.019  0.020  0.001  0.000  0.000  0.000  0.001  0.619

band     8 # energy   -8.65399252 # occ.  1.00000000

ion      s     py     pz     px    dxy    dyz    dz2    dxz  x2-y2    tot
    1  0.001  0.000  0.005  0.000  0.000  0.000  0.000  0.000  0.000  0.006
    2  0.001  0.000  0.005  0.000  0.000  0.000  0.000  0.000  0.000  0.007
    3  0.246  0.000  0.000  0.000  0.000  0.000  0.000  0.000  0.000  0.246
    4  0.064  0.000  0.033  0.000  0.000  0.000  0.000  0.000  0.000  0.097
    5  0.006  0.000  0.000  0.008  0.000  0.000  0.000  0.000  0.001  0.015
    6  0.006  0.006  0.000  0.002  0.000  0.000  0.000  0.000  0.000  0.015
    7  0.006  0.006  0.000  0.002  0.000  0.000  0.000  0.000  0.000  0.015
    8  0.022  0.000  0.001  0.028  0.000  0.000  0.000  0.000  0.002  0.053
    9  0.022  0.021  0.001  0.007  0.001  0.000  0.000  0.000  0.000  0.053
   10  0.022  0.021  0.001  0.007  0.001  0.000  0.000  0.000  0.000  0.053
tot    0.397  0.055  0.046  0.055  0.003  0.000  0.001  0.000  0.003  0.560

band     9 # energy   -6.88015743 # occ.  1.00000000

ion      s     py     pz     px    dxy    dyz    dz2    dxz  x2-y2    tot
    1  0.000  0.004  0.000  0.000  0.002  0.018  0.000  0.005  0.000  0.029
    2  0.000  0.000  0.000  0.004  0.000  0.011  0.000  0.016  0.002  0.033
    3  0.000  0.005  0.000  0.007  0.000  0.000  0.000  0.000  0.000  0.011
    4  0.000  0.043  0.000  0.063  0.000  0.000  0.000  0.000  0.000  0.106
    5  0.009  0.012  0.001  0.067  0.000  0.000  0.000  0.000  0.000  0.090
    6  0.013  0.092  0.001  0.011  0.000  0.001  0.000  0.000  0.000  0.118
    7  0.000  0.001  0.000  0.030  0.000  0.000  0.000  0.000  0.001  0.033
    8  0.005  0.002  0.004  0.007  0.000  0.000  0.000  0.000  0.000  0.018
    9  0.008  0.010  0.006  0.001  0.000  0.000  0.000  0.000  0.000  0.025
   10  0.000  0.000  0.000  0.004  0.000  0.000  0.000  0.000  0.000  0.005
tot    0.036  0.168  0.012  0.194  0.003  0.029  0.000  0.022  0.003  0.468

band    10 # energy   -6.88013660 # occ.  1.00000000

ion      s     py     pz     px    dxy    dyz    dz2    dxz  x2-y2    tot
    1  0.000  0.000  0.000  0.004  0.000  0.005  0.000  0.018  0.002  0.029
    2  0.000  0.004  0.000  0.000  0.002  0.016  0.000  0.011  0.000  0.033
    3  0.000  0.007  0.000  0.005  0.000  0.000  0.000  0.000  0.000  0.011
    4  0.000  0.063  0.000  0.043  0.000  0.000  0.000  0.000  0.000  0.106
    5  0.006  0.017  0.000  0.046  0.001  0.000  0.000  0.000  0.000  0.071
    6  0.002  0.000  0.000  0.039  0.000  0.000  0.000  0.000  0.001  0.042
    7  0.014  0.091  0.001  0.020  0.000  0.001  0.000  0.000  0.000  0.127
    8  0.004  0.002  0.003  0.005  0.000  0.000  0.000  0.000  0.000  0.014
    9  0.001  0.000  0.001  0.005  0.000  0.000  0.000  0.000  0.000  0.007
   10  0.009  0.009  0.007  0.002  0.000  0.000  0.000  0.000  0.000  0.027
tot    0.036  0.194  0.012  0.168  0.003  0.022  0.000  0.029  0.003  0.468

band    11 # energy   -6.81694111 # occ.  1.00000000

ion      s     py     pz     px    dxy    dyz    dz2    dxz  x2-y2    tot
    1  0.089  0.000  0.000  0.000  0.000  0.000  0.011  0.000  0.000  0.100
    2  0.098  0.000  0.000  0.000  0.000  0.000  0.011  0.000  0.000  0.108
    3  0.000  0.000  0.000  0.000  0.000  0.000  0.000  0.000  0.000  0.000
    4  0.000  0.000  0.000  0.000  0.000  0.000  0.000  0.000  0.000  0.000
    5  0.000  0.056  0.000  0.000  0.001  0.001  0.000  0.000  0.000  0.057
    6  0.000  0.014  0.000  0.042  0.000  0.000  0.000  0.000  0.000  0.057
    7  0.000  0.014  0.000  0.042  0.000  0.000  0.000  0.000  0.000  0.057
    8  0.000  0.044  0.000  0.000  0.000  0.001  0.000  0.000  0.000  0.045
    9  0.000  0.010  0.000  0.033  0.000  0.000  0.000  0.000  0.000  0.045
   10  0.000  0.011  0.000  0.032  0.000  0.000  0.000  0.000  0.000  0.045
tot    0.187  0.150  0.001  0.150  0.001  0.002  0.022  0.002  0.001  0.515

band    12 # energy   -6.64792206 # occ.  1.00000000

ion      s     py     pz     px    dxy    dyz    dz2    dxz  x2-y2    tot
    1  0.043  0.000  0.000  0.000  0.000  0.000  0.008  0.000  0.000  0.050
    2  0.034  0.000  0.000  0.000  0.000  0.000  0.010  0.000  0.000  0.044
    3  0.006  0.000  0.042  0.000  0.000  0.000  0.000  0.000  0.000  0.048
    4  0.000  0.000  0.060  0.000  0.000  0.000  0.000  0.000  0.000  0.060
    5  0.004  0.000  0.034  0.004  0.000  0.000  0.000  0.000  0.000  0.043
    6  0.004  0.003  0.034  0.002  0.000  0.000  0.000  0.000  0.000  0.043
    7  0.004  0.004  0.034  0.001  0.000  0.000  0.000  0.000  0.000  0.043
    8  0.003  0.000  0.027  0.010  0.000  0.000  0.000  0.000  0.000  0.041
    9  0.003  0.008  0.027  0.002  0.000  0.000  0.000  0.000  0.000  0.041
   10  0.003  0.007  0.027  0.003  0.000  0.000  0.000  0.000  0.000  0.041
tot    0.104  0.023  0.285  0.023  0.001  0.000  0.020  0.000  0.001  0.455

band    13 # energy   -6.17462832 # occ.  1.00000000

ion      s     py     pz     px    dxy    dyz    dz2    dxz  x2-y2    tot
    1  0.000  0.008  0.000  0.005  0.000  0.001  0.000  0.015  0.008  0.037
    2  0.000  0.013  0.000  0.000  0.004  0.015  0.000  0.004  0.005  0.040
    3  0.000  0.009  0.000  0.046  0.000  0.000  0.000  0.000  0.000  0.055
    4  0.000  0.001  0.000  0.008  0.000  0.000  0.000  0.000  0.000  0.009
    5  0.001  0.001  0.012  0.017  0.000  0.000  0.001  0.000  0.000  0.032
    6  0.001  0.014  0.009  0.001  0.000  0.000  0.000  0.000  0.000  0.026
    7  0.000  0.002  0.000  0.002  0.000  0.000  0.000  0.000  0.000  0.005
    8  0.001  0.006  0.002  0.105  0.000  0.000  0.000  0.001  0.000  0.116
    9  0.001  0.093  0.002  0.002  0.000  0.000  0.000  0.000  0.000  0.099
   10  0.000  0.016  0.000  0.022  0.000  0.000  0.000  0.000  0.001  0.040
tot    0.004  0.165  0.025  0.209  0.004  0.017  0.002  0.019  0.014  0.458

band    14 # energy   -6.17460442 # occ.  1.00000000

ion      s     py     pz     px    dxy    dyz    dz2    dxz  x2-y2    tot
    1  0.000  0.005  0.000  0.008  0.008  0.015  0.000  0.001  0.000  0.037
    2  0.000  0.000  0.000  0.013  0.005  0.004  0.000  0.015  0.004  0.040
    3  0.000  0.046  0.000  0.009  0.000  0.000  0.000  0.000  0.000  0.055
    4  0.000  0.008  0.000  0.001  0.000  0.000  0.000  0.000  0.000  0.009
    5  0.000  0.004  0.002  0.003  0.000  0.000  0.000  0.000  0.000  0.010
    6  0.000  0.002  0.005  0.008  0.000  0.000  0.000  0.000  0.000  0.016
    7  0.001  0.014  0.014  0.006  0.000  0.000  0.001  0.000  0.000  0.036
    8  0.000  0.032  0.000  0.021  0.001  0.000  0.000  0.000  0.000  0.054
    9  0.000  0.010  0.001  0.058  0.000  0.000  0.000  0.000  0.000  0.071
   10  0.001  0.087  0.002  0.037  0.000  0.000  0.000  0.000  0.000  0.130
tot    0.004  0.209  0.025  0.165  0.014  0.019  0.002  0.017  0.004  0.458

band    15 # energy   -5.25788386 # occ.  1.00000000

ion      s     py     pz     px    dxy    dyz    dz2    dxz  x2-y2    tot
    1  0.000  0.000  0.039  0.000  0.000  0.000  0.000  0.000  0.000  0.039
    2  0.000  0.000  0.039  0.000  0.000  0.000  0.000  0.000  0.000  0.039
    3  0.000  0.000  0.000  0.000  0.000  0.000  0.000  0.000  0.000  0.000
    4  0.000  0.000  0.000  0.000  0.000  0.000  0.000  0.000  0.000  0.000
    5  0.000  0.059  0.000  0.000  0.000  0.000  0.000  0.000  0.000  0.060
    6  0.000  0.015  0.000  0.045  0.000  0.000  0.000  0.000  0.000  0.060
    7  0.000  0.015  0.000  0.044  0.000  0.000  0.000  0.000  0.000  0.060
    8  0.000  0.071  0.000  0.000  0.001  0.000  0.000  0.000  0.000  0.071
    9  0.000  0.017  0.000  0.053  0.000  0.000  0.000  0.000  0.000  0.071
   10  0.000  0.018  0.000  0.053  0.000  0.000  0.000  0.000  0.000  0.071
tot    0.000  0.195  0.078  0.195  0.001  0.000  0.000  0.000  0.001  0.471

band    16 # energy   -4.45309797 # occ.  1.00000000

ion      s     py     pz     px    dxy    dyz    dz2    dxz  x2-y2    tot
    1  0.000  0.001  0.000  0.000  0.001  0.001  0.000  0.063  0.058  0.123
    2  0.000  0.000  0.000  0.000  0.002  0.002  0.000  0.261  0.241  0.507
    3  0.000  0.000  0.000  0.000  0.000  0.000  0.000  0.000  0.000  0.000
    4  0.000  0.000  0.000  0.000  0.000  0.000  0.000  0.000  0.000  0.000
    5  0.001  0.000  0.020  0.003  0.000  0.000  0.000  0.000  0.000  0.025
    6  0.000  0.004  0.000  0.021  0.000  0.000  0.000  0.001  0.000  0.026
    7  0.002  0.002  0.022  0.023  0.000  0.000  0.000  0.001  0.000  0.050
    8  0.001  0.001  0.020  0.002  0.000  0.000  0.000  0.000  0.000  0.025
    9  0.001  0.003  0.013  0.022  0.000  0.000  0.000  0.001  0.000  0.040
   10  0.000  0.002  0.001  0.014  0.000  0.000  0.000  0.001  0.000  0.017
tot    0.005  0.014  0.076  0.085  0.004  0.003  0.000  0.328  0.299  0.813

band    17 # energy   -4.45308967 # occ.  1.00000000

ion      s     py     pz     px    dxy    dyz    dz2    dxz  x2-y2    tot
    1  0.000  0.000  0.000  0.001  0.058  0.063  0.000  0.001  0.001  0.123
    2  0.000  0.000  0.000  0.000  0.241  0.261  0.000  0.002  0.002  0.507
    3  0.000  0.000  0.000  0.000  0.000  0.000  0.000  0.000  0.000  0.000
    4  0.000  0.000  0.000  0.000  0.000  0.000  0.000  0.000  0.000  0.000
    5  0.001  0.032  0.008  0.000  0.000  0.001  0.000  0.000  0.000  0.042
    6  0.001  0.008  0.028  0.003  0.000  0.000  0.000  0.000  0.000  0.041
    7  0.000  0.007  0.006  0.003  0.000  0.000  0.000  0.000  0.000  0.017
    8  0.000  0.026  0.002  0.000  0.000  0.001  0.000  0.000  0.000  0.030
    9  0.000  0.004  0.010  0.001  0.000  0.000  0.000  0.000  0.000  0.015
   10  0.002  0.008  0.022  0.006  0.000  0.000  0.000  0.000  0.000  0.038
tot    0.005  0.085  0.076  0.014  0.299  0.327  0.000  0.003  0.004  0.813

band    18 # energy   -4.32676263 # occ.  1.00000000

ion      s     py     pz     px    dxy    dyz    dz2    dxz  x2-y2    tot
    1  0.004  0.000  0.000  0.000  0.000  0.000  0.104  0.000  0.000  0.108
    2  0.004  0.000  0.000  0.000  0.000  0.000  0.140  0.000  0.000  0.144
    3  0.000  0.000  0.055  0.000  0.000  0.000  0.000  0.000  0.000  0.055
    4  0.001  0.000  0.118  0.000  0.000  0.000  0.000  0.000  0.000  0.119
    5  0.000  0.000  0.009  0.010  0.000  0.000  0.000  0.001  0.000  0.021
    6  0.000  0.008  0.009  0.002  0.000  0.000  0.000  0.000  0.000  0.021
    7  0.000  0.008  0.009  0.003  0.000  0.000  0.000  0.000  0.000  0.021
    8  0.001  0.000  0.018  0.012  0.000  0.000  0.000  0.000  0.001  0.031
    9  0.001  0.009  0.018  0.003  0.000  0.000  0.000  0.000  0.000  0.031
   10  0.001  0.008  0.018  0.003  0.000  0.000  0.000  0.000  0.000  0.031
tot    0.013  0.033  0.253  0.033  0.001  0.001  0.245  0.001  0.001  0.581

band    19 # energy   -4.05152259 # occ.  1.00000000

ion      s     py     pz     px    dxy    dyz    dz2    dxz  x2-y2    tot
    1  0.000  0.000  0.000  0.000  0.148  0.153  0.000  0.061  0.073  0.435
    2  0.000  0.000  0.000  0.000  0.031  0.039  0.000  0.028  0.018  0.117
    3  0.000  0.000  0.000  0.000  0.000  0.000  0.000  0.000  0.000  0.000
    4  0.000  0.000  0.000  0.001  0.000  0.000  0.000  0.000  0.000  0.001
    5  0.004  0.009  0.059  0.001  0.000  0.000  0.000  0.000  0.000  0.073
    6  0.003  0.000  0.039  0.001  0.000  0.000  0.000  0.000  0.000  0.043
    7  0.000  0.002  0.002  0.003  0.000  0.000  0.000  0.000  0.000  0.007
    8  0.002  0.000  0.018  0.001  0.000  0.000  0.000  0.000  0.000  0.021
    9  0.004  0.006  0.048  0.002  0.000  0.000  0.000  0.000  0.000  0.060
   10  0.000  0.000  0.007  0.003  0.000  0.000  0.000  0.000  0.000  0.012
tot    0.013  0.018  0.174  0.012  0.179  0.192  0.000  0.090  0.091  0.770

band    20 # energy   -4.05151501 # occ.  1.00000000

ion      s     py     pz     px    dxy    dyz    dz2    dxz  x2-y2    tot
    1  0.000  0.000  0.000  0.000  0.073  0.061  0.000  0.153  0.148  0.435
    2  0.000  0.000  0.000  0.000  0.018  0.028  0.000  0.039  0.031  0.117
    3  0.000  0.000  0.000  0.000  0.000  0.000  0.000  0.000  0.000  0.000
    4  0.000  0.001  0.000  0.000  0.000  0.000  0.000  0.000  0.000  0.001
    5  0.001  0.001  0.008  0.000  0.000  0.000  0.000  0.000  0.000  0.009
    6  0.002  0.001  0.028  0.008  0.000  0.000  0.000  0.000  0.000  0.039
    7  0.005  0.003  0.065  0.002  0.000  0.000  0.000  0.000  0.000  0.075
    8  0.002  0.006  0.031  0.001  0.000  0.000  0.000  0.000  0.000  0.041
    9  0.000  0.000  0.001  0.001  0.000  0.000  0.000  0.000  0.000  0.002
   10  0.003  0.000  0.042  0.005  0.000  0.000  0.000  0.000  0.000  0.050
tot    0.013  0.012  0.174  0.018  0.091  0.090  0.000  0.192  0.179  0.770

band    21 # energy   -3.48702741 # occ.  1.00000000

ion      s     py     pz     px    dxy    dyz    dz2    dxz  x2-y2    tot
    1  0.000  0.005  0.000  0.000  0.022  0.013  0.000  0.083  0.004  0.128
    2  0.000  0.004  0.000  0.002  0.016  0.001  0.000  0.167  0.101  0.292
    3  0.000  0.000  0.000  0.009  0.000  0.000  0.000  0.000  0.000  0.009
    4  0.000  0.002  0.000  0.036  0.000  0.000  0.000  0.000  0.000  0.038
    5  0.006  0.000  0.046  0.015  0.000  0.000  0.000  0.000  0.002  0.068
    6  0.003  0.001  0.020  0.012  0.000  0.000  0.000  0.000  0.001  0.038
    7  0.000  0.000  0.005  0.008  0.000  0.000  0.000  0.000  0.000  0.015
    8  0.003  0.000  0.055  0.015  0.000  0.000  0.000  0.000  0.000  0.074
    9  0.001  0.003  0.030  0.002  0.000  0.000  0.000  0.000  0.000  0.037
   10  0.000  0.001  0.004  0.003  0.000  0.000  0.000  0.000  0.001  0.009
tot    0.014  0.018  0.160  0.101  0.039  0.015  0.000  0.252  0.110  0.708

band    22 # energy   -3.48701568 # occ.  1.00000000

ion      s     py     pz     px    dxy    dyz    dz2    dxz  x2-y2    tot
    1  0.000  0.000  0.000  0.005  0.004  0.083  0.000  0.013  0.022  0.128
    2  0.000  0.002  0.000  0.004  0.101  0.167  0.000  0.001  0.016  0.292
    3  0.000  0.009  0.000  0.000  0.000  0.000  0.000  0.000  0.000  0.009
    4  0.000  0.036  0.000  0.002  0.000  0.000  0.000  0.000  0.000  0.038
    5  0.000  0.009  0.002  0.001  0.000  0.000  0.000  0.000  0.000  0.013
    6  0.003  0.011  0.027  0.000  0.001  0.000  0.000  0.000  0.000  0.043
    7  0.006  0.015  0.042  0.001  0.002  0.000  0.000  0.000  0.000  0.066
    8  0.000  0.001  0.004  0.000  0.001  0.000  0.000  0.000  0.000  0.006
    9  0.002  0.010  0.029  0.001  0.001  0.000  0.000  0.000  0.000  0.043
   10  0.003  0.009  0.055  0.003  0.000  0.000  0.000  0.000  0.000  0.071
tot    0.014  0.101  0.160  0.018  0.110  0.252  0.000  0.015  0.039  0.708

band    23 # energy   -3.24307544 # occ.  1.00000000

ion      s     py     pz     px    dxy    dyz    dz2    dxz  x2-y2    tot
    1  0.015  0.000  0.001  0.000  0.000  0.000  0.203  0.000  0.000  0.219
    2  0.002  0.000  0.001  0.000  0.000  0.000  0.620  0.000  0.000  0.622
    3  0.001  0.000  0.001  0.000  0.000  0.000  0.000  0.000  0.000  0.001
    4  0.000  0.000  0.007  0.000  0.000  0.000  0.000  0.000  0.000  0.007
    5  0.000  0.001  0.001  0.000  0.000  0.000  0.000  0.000  0.000  0.002
    6  0.000  0.000  0.001  0.000  0.000  0.000  0.000  0.000  0.000  0.002
    7  0.000  0.000  0.001  0.001  0.000  0.000  0.000  0.000  0.000  0.002
    8  0.000  0.001  0.009  0.000  0.000  0.000  0.000  0.000  0.000  0.010
    9  0.000  0.000  0.009  0.001  0.000  0.000  0.000  0.000  0.000  0.010
   10  0.000  0.000  0.009  0.000  0.000  0.000  0.000  0.000  0.000  0.010
tot    0.020  0.002  0.038  0.002  0.000  0.001  0.823  0.001  0.000  0.887

band    24 # energy   -3.22430957 # occ.  1.00000000

ion      s     py     pz     px    dxy    dyz    dz2    dxz  x2-y2    tot
    1  0.000  0.002  0.000  0.006  0.002  0.010  0.000  0.005  0.008  0.033
    2  0.000  0.001  0.000  0.006  0.281  0.119  0.000  0.084  0.109  0.599
    3  0.000  0.003  0.000  0.004  0.000  0.000  0.000  0.000  0.000  0.007
    4  0.000  0.000  0.000  0.002  0.000  0.000  0.000  0.000  0.000  0.003
    5  0.001  0.005  0.008  0.000  0.000  0.000  0.000  0.000  0.000  0.015
    6  0.002  0.002  0.035  0.000  0.000  0.000  0.000  0.000  0.000  0.039
    7  0.000  0.004  0.009  0.001  0.000  0.000  0.000  0.000  0.000  0.015
    8  0.000  0.002  0.000  0.001  0.000  0.000  0.000  0.000  0.000  0.004
    9  0.001  0.002  0.034  0.001  0.000  0.000  0.000  0.000  0.000  0.038
   10  0.003  0.009  0.029  0.000  0.000  0.000  0.000  0.000  0.000  0.041
tot    0.008  0.029  0.115  0.022  0.283  0.129  0.000  0.089  0.118  0.793

band    25 # energy   -3.22430491 # occ.  1.00000000

ion      s     py     pz     px    dxy    dyz    dz2    dxz  x2-y2    tot
    1  0.000  0.006  0.000  0.002  0.008  0.005  0.000  0.010  0.002  0.033
    2  0.000  0.006  0.000  0.001  0.109  0.084  0.000  0.119  0.281  0.599
    3  0.000  0.004  0.000  0.003  0.000  0.000  0.000  0.000  0.000  0.007
    4  0.000  0.002  0.000  0.000  0.000  0.000  0.000  0.000  0.000  0.003
    5  0.001  0.001  0.027  0.002  0.000  0.000  0.000  0.000  0.000  0.031
    6  0.000  0.001  0.000  0.005  0.000  0.000  0.000  0.000  0.000  0.007
    7  0.002  0.000  0.025  0.003  0.000  0.000  0.000  0.000  0.000  0.031
    8  0.003  0.001  0.042  0.006  0.000  0.000  0.000  0.000  0.000  0.051
    9  0.002  0.001  0.008  0.006  0.000  0.000  0.000  0.000  0.000  0.017
   10  0.000  0.000  0.013  0.001  0.000  0.000  0.000  0.000  0.000  0.015
tot    0.008  0.022  0.115  0.029  0.118  0.089  0.000  0.129  0.283  0.793

band    26 # energy   -3.16205502 # occ.  1.00000000

ion      s     py     pz     px    dxy    dyz    dz2    dxz  x2-y2    tot
    1  0.000  0.000  0.011  0.000  0.000  0.000  0.115  0.000  0.000  0.126
    2  0.002  0.000  0.010  0.000  0.000  0.000  0.005  0.000  0.000  0.017
    3  0.003  0.000  0.007  0.000  0.000  0.000  0.000  0.000  0.000  0.010
    4  0.001  0.000  0.006  0.000  0.000  0.000  0.000  0.000  0.000  0.006
    5  0.001  0.000  0.051  0.000  0.000  0.000  0.000  0.000  0.000  0.053
    6  0.001  0.000  0.051  0.000  0.000  0.000  0.000  0.000  0.000  0.053
    7  0.001  0.000  0.051  0.000  0.000  0.000  0.000  0.000  0.000  0.053
    8  0.000  0.000  0.063  0.000  0.000  0.000  0.000  0.000  0.000  0.064
    9  0.000  0.000  0.063  0.000  0.000  0.000  0.000  0.000  0.000  0.064
   10  0.000  0.000  0.063  0.000  0.000  0.000  0.000  0.000  0.000  0.064
tot    0.010  0.001  0.376  0.001  0.000  0.000  0.121  0.000  0.000  0.510

band    27 # energy   -3.08609972 # occ.  1.00000000

ion      s     py     pz     px    dxy    dyz    dz2    dxz  x2-y2    tot
    1  0.000  0.001  0.000  0.002  0.462  0.281  0.000  0.000  0.009  0.755
    2  0.000  0.001  0.000  0.003  0.006  0.003  0.000  0.001  0.000  0.015
    3  0.000  0.000  0.000  0.008  0.000  0.000  0.000  0.000  0.000  0.009
    4  0.000  0.000  0.000  0.003  0.000  0.000  0.000  0.000  0.000  0.003
    5  0.000  0.001  0.001  0.000  0.000  0.000  0.000  0.000  0.000  0.004
    6  0.000  0.001  0.011  0.000  0.000  0.000  0.000  0.000  0.000  0.012
    7  0.001  0.001  0.006  0.001  0.000  0.000  0.000  0.000  0.000  0.008
    8  0.002  0.002  0.015  0.005  0.000  0.000  0.000  0.000  0.000  0.025
    9  0.002  0.002  0.022  0.000  0.000  0.000  0.000  0.000  0.000  0.026
   10  0.000  0.000  0.001  0.002  0.000  0.000  0.000  0.000  0.000  0.003
tot    0.005  0.008  0.055  0.026  0.470  0.285  0.001  0.001  0.009  0.859

band    28 # energy   -3.08609317 # occ.  1.00000000

ion      s     py     pz     px    dxy    dyz    dz2    dxz  x2-y2    tot
    1  0.000  0.002  0.000  0.001  0.009  0.000  0.000  0.281  0.462  0.755
    2  0.000  0.003  0.000  0.001  0.000  0.001  0.000  0.003  0.006  0.015
    3  0.000  0.008  0.000  0.000  0.000  0.000  0.000  0.000  0.000  0.009
    4  0.000  0.003  0.000  0.000  0.000  0.000  0.000  0.000  0.000  0.003
    5  0.000  0.000  0.011  0.000  0.000  0.000  0.000  0.000  0.000  0.012
    6  0.001  0.000  0.001  0.001  0.000  0.000  0.000  0.000  0.000  0.004
    7  0.000  0.000  0.006  0.001  0.000  0.000  0.000  0.000  0.001  0.008
    8  0.000  0.000  0.010  0.000  0.000  0.000  0.000  0.000  0.000  0.011
    9  0.001  0.005  0.003  0.000  0.000  0.000  0.000  0.000  0.001  0.010
   10  0.003  0.002  0.024  0.003  0.000  0.000  0.000  0.000  0.000  0.033
tot    0.005  0.026  0.055  0.008  0.009  0.001  0.001  0.285  0.470  0.859

band    29 # energy   -2.95185943 # occ.  1.00000000

ion      s     py     pz     px    dxy    dyz    dz2    dxz  x2-y2    tot
    1  0.008  0.000  0.002  0.000  0.000  0.000  0.467  0.000  0.000  0.476
    2  0.018  0.000  0.001  0.000  0.000  0.000  0.128  0.000  0.000  0.147
    3  0.001  0.000  0.025  0.000  0.000  0.000  0.000  0.000  0.000  0.026
    4  0.002  0.000  0.028  0.000  0.000  0.000  0.000  0.000  0.000  0.030
    5  0.001  0.000  0.027  0.000  0.000  0.000  0.001  0.000  0.000  0.029
    6  0.001  0.000  0.027  0.000  0.000  0.000  0.001  0.000  0.000  0.029
    7  0.001  0.000  0.027  0.000  0.000  0.000  0.001  0.000  0.000  0.029
    8  0.002  0.000  0.001  0.002  0.000  0.000  0.000  0.000  0.000  0.005
    9  0.002  0.002  0.001  0.000  0.000  0.000  0.000  0.000  0.000  0.005
   10  0.002  0.001  0.001  0.001  0.000  0.000  0.000  0.000  0.000  0.005
tot    0.040  0.003  0.138  0.003  0.000  0.001  0.598  0.001  0.000  0.784

band    30 # energy   -2.04086526 # occ.  1.00000000

ion      s     py     pz     px    dxy    dyz    dz2    dxz  x2-y2    tot
    1  0.000  0.003  0.000  0.028  0.011  0.002  0.000  0.002  0.000  0.046
    2  0.000  0.002  0.000  0.028  0.009  0.000  0.000  0.004  0.002  0.045
    3  0.000  0.001  0.000  0.017  0.000  0.000  0.000  0.000  0.000  0.018
    4  0.000  0.002  0.000  0.025  0.000  0.000  0.000  0.000  0.000  0.027
    5  0.003  0.008  0.022  0.018  0.000  0.000  0.000  0.000  0.003  0.054
    6  0.000  0.018  0.001  0.089  0.000  0.000  0.000  0.000  0.000  0.109
    7  0.002  0.001  0.013  0.066  0.001  0.000  0.000  0.000  0.000  0.084
    8  0.002  0.008  0.009  0.037  0.000  0.000  0.000  0.000  0.002  0.059
    9  0.000  0.012  0.000  0.079  0.000  0.000  0.000  0.001  0.000  0.093
   10  0.001  0.001  0.006  0.066  0.001  0.000  0.000  0.000  0.001  0.076
tot    0.009  0.056  0.052  0.452  0.022  0.002  0.001  0.008  0.009  0.611

band    31 # energy   -2.04082955 # occ.  1.00000000

ion      s     py     pz     px    dxy    dyz    dz2    dxz  x2-y2    tot
    1  0.000  0.028  0.000  0.003  0.000  0.002  0.000  0.002  0.011  0.046
    2  0.000  0.028  0.000  0.002  0.002  0.004  0.000  0.000  0.009  0.045
    3  0.000  0.017  0.000  0.001  0.000  0.000  0.000  0.000  0.000  0.018
    4  0.000  0.025  0.000  0.002  0.000  0.000  0.000  0.000  0.000  0.027
    5  0.000  0.106  0.002  0.002  0.000  0.000  0.000  0.000  0.000  0.111
    6  0.003  0.026  0.023  0.000  0.002  0.000  0.000  0.000  0.001  0.055
    7  0.002  0.041  0.011  0.025  0.001  0.000  0.000  0.000  0.000  0.081
    8  0.000  0.086  0.001  0.004  0.000  0.001  0.000  0.000  0.000  0.093
    9  0.002  0.042  0.010  0.001  0.002  0.000  0.000  0.000  0.000  0.059