<?xml version="1.0" encoding="ISO-8859-1"?>
<modeling>
 <generator>
  <i name="program" type="string">vasp </i>
  <i name="version" type="string">5.4.4.18Apr17-6-g9f103f2a35  </i>
  <i name="subversion" type="string">(build May  1 2020 15:48:39) complex            parallel </i>
  <i name="platform" type="string">LinuxGNU </i>
  <i name="date" type="string">2020 06 20 </i>
  <i name="time" type="string">05:30:26 </i>
 </generator>
 <incar>
  <i type="int" name="ISTART">     1</i>
  <i type="string" name="PREC">accurate</i>
  <i type="string" name="ALGO"> Normal</i>
  <i type="int" name="ISPIN">     2</i>
  <i name="AMIN">      0.01000000</i>
  <i type="int" name="NELM">   400</i>
  <i type="int" name="IBRION">     2</i>
  <i name="EDIFF">      0.00010000</i>
  <i type="int" name="NSW">    99</i>
  <i type="int" name="ISIF">     3</i>
  <i name="ENCUT">    520.00000000</i>
  <v name="MAGMOM">      1.26000000      1.26000000      0.60000000      0.60000000      0.60000000      0.60000000      0.60000000      0.60000000      0.60000000      0.60000000</v>
  <i type="string" name="LREAL"> Auto</i>
  <i type="int" name="ISMEAR">    -5</i>
  <i name="SIGMA">      0.05000000</i>
  <i type="logical" name="LWAVE"> F  </i>
  <i type="int" name="LORBIT">    11</i>
  <v type="int" name="KPOINT_BSE">    -1     0     0     0</v>
  <i type="int" name="NELM">   400</i>
  <i type="string" name="GGA"> Bo</i>
  <i name="PARAM1">      0.18333333</i>
  <i name="PARAM2">      0.22000000</i>
  <i type="logical" name="LUSE_VDW"> T  </i>
  <i name="AGGAC">      0.00000000</i>
 </incar>
 <structure name="primitive_cell" >
  <crystal>
   <varray name="basis" >
    <v>       6.90777700      -0.00000000       0.00000000 </v>
    <v>       3.45388800       5.98231000       0.00000000 </v>
    <v>       0.00000000       0.00000000      23.44458800 </v>
   </varray>
   <i name="volume">    968.83501932 </i>
   <varray name="rec_basis" >
    <v>       0.14476437      -0.08357974       0.00000000 </v>
    <v>       0.00000000       0.16715951      -0.00000000 </v>
    <v>      -0.00000000       0.00000000       0.04265377 </v>
   </varray>
  </crystal>
  <varray name="positions" >
   <v>       0.33333300       0.33333300       0.49992500 </v>
   <v>       0.00042000       0.37322400      -0.42624800 </v>
   <v>      -0.37364300       0.00042000      -0.42624800 </v>
   <v>       0.37322400      -0.37364300      -0.42624800 </v>
   <v>       0.37364300      -0.00042000       0.42624800 </v>
   <v>      -0.37322400       0.37364300       0.42624800 </v>
   <v>      -0.00042000      -0.37322400       0.42624800 </v>
   <v>      -0.33333300      -0.33333300      -0.49992500 </v>
   <v>       0.00000000       0.00000000       0.44821600 </v>
   <v>       0.00000000       0.00000000      -0.44821600 </v>
  </varray>
 </structure>
 <varray name="primitive_index" >
  <v type="int" >        1 </v>
  <v type="int" >        6 </v>
  <v type="int" >        5 </v>
  <v type="int" >        7 </v>
  <v type="int" >        8 </v>
  <v type="int" >       10 </v>
  <v type="int" >        9 </v>
  <v type="int" >        2 </v>
  <v type="int" >        3 </v>
  <v type="int" >        4 </v>
 </varray>
 <kpoints>
  <generation param="Gamma">
   <v type="int" name="divisions">       5        5        1 </v>
   <v name="usershift">      0.00000000       0.00000000       0.00000000 </v>
   <v name="genvec1">      0.20000000       0.00000000       0.00000000 </v>
   <v name="genvec2">      0.00000000       0.20000000       0.00000000 </v>
   <v name="genvec3">      0.00000000       0.00000000       1.00000000 </v>
   <v name="shift">      0.00000000       0.00000000       0.00000000 </v>
  </generation>
  <varray name="kpointlist" >
   <v>       0.00000000       0.00000000       0.00000000 </v>
   <v>       0.20000000       0.00000000       0.00000000 </v>
   <v>       0.40000000       0.00000000       0.00000000 </v>
   <v>       0.40000000       0.20000000       0.00000000 </v>
   <v>      -0.40000000       0.20000000       0.00000000 </v>
  </varray>
  <varray name="weights" >
   <v>       0.04000000 </v>
   <v>       0.24000000 </v>
   <v>       0.24000000 </v>
   <v>       0.24000000 </v>
   <v>       0.24000000 </v>
  </varray>
  <varray name="tetrahedronlist"  type="int" >
   <v type="int" >        6        1        1        2        2 </v>
   <v type="int" >       12        1        2        2        2 </v>
   <v type="int" >       12        2        2        3        4 </v>
   <v type="int" >       12        2        2        2        4 </v>
   <v type="int" >       12        2        3        3        4 </v>
   <v type="int" >       12        2        3        4        4 </v>
   <v type="int" >        6        2        2        4        4 </v>
   <v type="int" >       12        3        3        3        5 </v>
   <v type="int" >       12        3        3        4        5 </v>
   <v type="int" >       12        3        4        4        5 </v>
   <v type="int" >        6        3        3        5        5 </v>
   <v type="int" >       12        3        4        5        5 </v>
   <v type="int" >        6        4        4        5        5 </v>
   <v type="int" >       12        4        5        5        5 </v>
   <v type="int" >        6        5        5        5        5 </v>
  </varray>
  <i name="volumeweight">      0.00666667 </i>
 </kpoints>
 <parameters>
  <separator name="general" >
   <i type="string" name="SYSTEM">unknown system</i>
   <i type="logical" name="LCOMPAT"> F  </i>
  </separator>
  <separator name="electronic" >
   <i type="string" name="PREC">accura</i>
   <i name="ENMAX">    520.00000000</i>
   <i name="ENAUG">    544.56500000</i>
   <i name="EDIFF">      0.00010000</i>
   <i type="int" name="IALGO">    38</i>
   <i type="int" name="IWAVPR">    11</i>
   <i type="int" name="NBANDS">    48</i>
   <i name="NELECT">     65.00000000</i>
   <i type="int" name="TURBO">     0</i>
   <i type="int" name="IRESTART">     0</i>
   <i type="int" name="NREBOOT">     0</i>
   <i type="int" name="NMIN">     0</i>
   <i name="EREF">      0.00000000</i>
   <separator name="electronic smearing" >
    <i type="int" name="ISMEAR">    -5</i>
    <i name="SIGMA">      0.05000000</i>
    <i name="KSPACING">      0.50000000</i>
    <i type="logical" name="KGAMMA"> T  </i>
   </separator>
   <separator name="electronic projectors" >
    <i type="logical" name="LREAL"> T  </i>
    <v name="ROPT">     -0.00025000     -0.00025000     -0.00025000     -0.00025000</v>
    <i type="int" name="LMAXPAW">  -100</i>
    <i type="int" name="LMAXMIX">     2</i>
    <i type="logical" name="NLSPLINE"> F  </i>
   </separator>
   <separator name="electronic startup" >
    <i type="int" name="ISTART">     0</i>
    <i type="int" name="ICHARG">     2</i>
    <i type="int" name="INIWAV">     1</i>
   </separator>
   <separator name="electronic spin" >
    <i type="int" name="ISPIN">     2</i>
    <i type="logical" name="LNONCOLLINEAR"> F  </i>
    <v name="MAGMOM">      1.26000000      1.26000000      0.60000000      0.60000000      0.60000000      0.60000000      0.60000000      0.60000000      0.60000000      0.60000000</v>
    <i name="NUPDOWN">     -1.00000000</i>
    <i type="logical" name="LSORBIT"> F  </i>
    <v name="SAXIS">      0.00000000      0.00000000      1.00000000</v>
    <i type="logical" name="LSPIRAL"> F  </i>
    <v name="QSPIRAL">      0.00000000      0.00000000      0.00000000</v>
    <i type="logical" name="LZEROZ"> F  </i>
   </separator>
   <separator name="electronic exchange-correlation" >
    <i type="logical" name="LASPH"> F  </i>
    <i type="logical" name="LMETAGGA"> F  </i>
   </separator>
   <separator name="electronic convergence" >
    <i type="int" name="NELM">   400</i>
    <i type="int" name="NELMDL">     0</i>
    <i type="int" name="NELMIN">     2</i>
    <i name="ENINI">    520.00000000</i>
    <separator name="electronic convergence detail" >
     <i type="logical" name="LDIAG"> T  </i>
     <i type="logical" name="LSUBROT"> F  </i>
     <i name="WEIMIN">      0.00100000</i>
     <i name="EBREAK">      0.00000052</i>
     <i name="DEPER">      0.30000000</i>
     <i type="int" name="NRMM">     4</i>
     <i name="TIME">      0.40000000</i>
    </separator>
   </separator>
   <separator name="electronic mixer" >
    <i name="AMIX">      0.40000000</i>
    <i name="BMIX">      1.00000000</i>
    <i name="AMIN">      0.01000000</i>
    <i name="AMIX_MAG">      1.60000000</i>
    <i name="BMIX_MAG">      1.00000000</i>
    <separator name="electronic mixer details" >
     <i type="int" name="IMIX">     4</i>
     <i type="logical" name="MIXFIRST"> F  </i>
     <i type="int" name="MAXMIX">   -45</i>
     <i name="WC">    100.00000000</i>
     <i type="int" name="INIMIX">     1</i>
     <i type="int" name="MIXPRE">     1</i>
     <i type="int" name="MREMOVE">     5</i>
    </separator>
   </separator>
   <separator name="electronic dipolcorrection" >
    <i type="logical" name="LDIPOL"> F  </i>
    <i type="logical" name="LMONO"> F  </i>
    <i type="int" name="IDIPOL">     0</i>
    <i name="EPSILON">      1.00000000</i>
    <v name="DIPOL">   -100.00000000   -100.00000000   -100.00000000</v>
    <i name="EFIELD">      0.00000000</i>
   </separator>
  </separator>
  <separator name="grids" >
   <i type="int" name="NGX">    54</i>
   <i type="int" name="NGY">    54</i>
   <i type="int" name="NGZ">   180</i>
   <i type="int" name="NGXF">   108</i>
   <i type="int" name="NGYF">   108</i>
   <i type="int" name="NGZF">   360</i>
   <i type="logical" name="ADDGRID"> F  </i>
  </separator>
  <separator name="ionic" >
   <i type="int" name="NSW">    99</i>
   <i type="int" name="IBRION">     2</i>
   <i type="int" name="MDALGO">     0</i>
   <i type="int" name="ISIF">     3</i>
   <i name="PSTRESS">      0.00000000</i>
   <i name="EDIFFG">      0.00100000</i>
   <i type="int" name="NFREE">     1</i>
   <i name="POTIM">      0.50000000</i>
   <i name="SMASS">     -3.00000000</i>
   <i name="SCALEE">      1.00000000</i>
  </separator>
  <separator name="ionic md" >
   <i name="TEBEG">      0.00010000</i>
   <i name="TEEND">      0.00010000</i>
   <i type="int" name="NBLOCK">     1</i>
   <i type="int" name="KBLOCK">    99</i>
   <i type="int" name="NPACO">   256</i>
   <i name="APACO">     16.00000000</i>
  </separator>
  <separator name="symmetry" >
   <i type="int" name="ISYM">     2</i>
   <i name="SYMPREC">      0.00001000</i>
  </separator>
  <separator name="dos" >
   <i type="int" name="LORBIT">    11</i>
   <v name="RWIGS">     -1.00000000     -1.00000000     -1.00000000     -1.00000000</v>
   <i type="int" name="NEDOS">   301</i>
   <i name="EMIN">     10.00000000</i>
   <i name="EMAX">    -10.00000000</i>
   <i name="EFERMI">      0.00000000</i>
  </separator>
  <separator name="writing" >
   <i type="int" name="NWRITE">     2</i>
   <i type="logical" name="LWAVE"> F  </i>
   <i type="logical" name="LDOWNSAMPLE"> F  </i>
   <i type="logical" name="LCHARG"> T  </i>
   <i type="logical" name="LPARD"> F  </i>
   <i type="logical" name="LVTOT"> F  </i>
   <i type="logical" name="LVHAR"> F  </i>
   <i type="logical" name="LELF"> F  </i>
   <i type="logical" name="LOPTICS"> F  </i>
   <v name="STM">      0.00000000      0.00000000      0.00000000      0.00000000      0.00000000      0.00000000      0.00000000</v>
  </separator>
  <separator name="performance" >
   <i type="int" name="NPAR">    16</i>
   <i type="int" name="NSIM">     4</i>
   <i type="int" name="NBLK">    -1</i>
   <i type="logical" name="LPLANE"> T  </i>
   <i type="logical" name="LSCALAPACK"> T  </i>
   <i type="logical" name="LSCAAWARE"> F  </i>
   <i type="logical" name="LSCALU"> F  </i>
   <i type="logical" name="LASYNC"> F  </i>
   <i type="logical" name="LORBITALREAL"> F  </i>
  </separator>
  <separator name="miscellaneous" >
   <i type="int" name="IDIOT">     3</i>
   <i type="int" name="ISPECIAL">     0</i>
   <i type="logical" name="LMUSIC"> F  </i>
   <v name="POMASS">     58.69000000     28.08500000     30.97400000    127.60000000</v>
   <v name="DARWINR">      0.00000000      0.00000000      0.00000000      0.00000000</v>
   <v name="DARWINV">      1.00000000      1.00000000      1.00000000      1.00000000</v>
   <i type="logical" name="LCORR"> T  </i>
  </separator>
  <i type="logical" name="GGA_COMPAT"> T  </i>
  <i type="logical" name="LBERRY"> F  </i>
  <i type="int" name="ICORELEVEL">     0</i>
  <i type="logical" name="LDAU"> F  </i>
  <i type="int" name="I_CONSTRAINED_M">     0</i>
  <separator name="electronic exchange-correlation" >
   <i type="string" name="GGA">BO</i>
   <i type="int" name="VOSKOWN">     0</i>
   <i type="logical" name="LHFCALC"> F  </i>
   <i type="string" name="PRECFOCK"></i>
   <i type="logical" name="LSYMGRAD"> F  </i>
   <i type="logical" name="LHFONE"> F  </i>
   <i type="logical" name="LRHFCALC"> F  </i>
   <i type="logical" name="LTHOMAS"> F  </i>
   <i type="logical" name="LMODELHF"> F  </i>
   <i name="ENCUT4O">     -1.00000000</i>
   <i type="int" name="EXXOEP">     0</i>
   <i type="int" name="FOURORBIT">     0</i>
   <i name="AEXX">      0.00000000</i>
   <i name="HFALPHA">      0.00000000</i>
   <i name="MCALPHA">      0.00000000</i>
   <i name="ALDAX">      1.00000000</i>
   <i name="AGGAX">      1.00000000</i>
   <i name="ALDAC">      1.00000000</i>
   <i name="AGGAC">      0.00000000</i>
   <i type="int" name="NKREDX">     1</i>
   <i type="int" name="NKREDY">     1</i>
   <i type="int" name="NKREDZ">     1</i>
   <i type="logical" name="SHIFTRED"> F  </i>
   <i type="logical" name="ODDONLY"> F  </i>
   <i type="logical" name="EVENONLY"> F  </i>
   <i type="int" name="LMAXFOCK">     0</i>
   <i type="int" name="NMAXFOCKAE">     0</i>
   <i type="logical" name="LFOCKAEDFT"> F  </i>
   <i name="HFSCREEN">      0.00000000</i>
   <i name="HFSCREENC">      0.00000000</i>
   <i type="int" name="NBANDSGWLOW">     0</i>
  </separator>
  <separator name="vdW DFT" >
   <i type="logical" name="LUSE_VDW"> T  </i>
   <i name="Zab_VDW">     -0.84910000</i>
   <i name="PARAM1">      0.18333333</i>
   <i name="PARAM2">      0.22000000</i>
   <i name="PARAM3">      0.00000000</i>
  </separator>
  <separator name="model GW" >
   <i type="int" name="MODEL_GW">     0</i>
   <i name="MODEL_EPS0">     58.13010116</i>
   <i name="MODEL_ALPHA">      1.00000000</i>
  </separator>
  <separator name="linear response parameters" >
   <i type="logical" name="LEPSILON"> F  </i>
   <i type="logical" name="LRPA"> F  </i>
   <i type="logical" name="LNABLA"> F  </i>
   <i type="logical" name="LVEL"> F  </i>
   <i type="int" name="KINTER">     0</i>
   <i name="CSHIFT">      0.10000000</i>
   <i name="OMEGAMAX">     -1.00000000</i>
   <i name="DEG_THRESHOLD">      0.00200000</i>
   <i name="RTIME">     -0.10000000</i>
   <i name="WPLASMAI">      0.00000000</i>
   <v name="DFIELD">      0.00000000      0.00000000      0.00000000</v>
   <v name="WPLASMA">      0.00000000      0.00000000      0.00000000      0.00000000      0.00000000      0.00000000      0.00000000      0.00000000      0.00000000</v>
  </separator>
  <separator name="orbital magnetization" >
   <i type="logical" name="NUCIND"> F  </i>
   <v name="MAGPOS">      0.00000000      0.00000000      0.00000000</v>
   <i type="logical" name="LNICSALL"> T  </i>
   <i type="logical" name="ORBITALMAG"> F  </i>
   <i type="logical" name="LMAGBLOCH"> F  </i>
   <i type="logical" name="LCHIMAG"> F  </i>
   <i type="logical" name="LGAUGE"> T  </i>
   <i type="int" name="MAGATOM">     0</i>
   <v name="MAGDIPOL">      0.00000000      0.00000000      0.00000000</v>
   <v name="AVECCONST">      0.00000000      0.00000000      0.00000000</v>
  </separator>
  <separator name="response functions" >
   <i type="logical" name="LADDER"> F  </i>
   <i type="logical" name="LRPAFORCE"> F  </i>
   <i type="logical" name="LFXC"> F  </i>
   <i type="logical" name="LHARTREE"> T  </i>
   <i type="int" name="IBSE">     0</i>
   <v type="int" name="KPOINT">    -1     0     0     0</v>
   <i type="logical" name="LTCTE"> F  </i>
   <i type="logical" name="LTETE"> F  </i>
   <i type="logical" name="LTRIPLET"> F  </i>
   <i type="logical" name="LFXCEPS"> F  </i>
   <i type="logical" name="LFXHEG"> F  </i>
   <i type="int" name="NATURALO">     2</i>
   <i type="logical" name="L2ORDER"> F  </i>
   <i type="logical" name="LMP2LT"> F  </i>
   <i type="logical" name="LUSEW"> F  </i>
   <i name="ENCUTGW">     -2.00000000</i>
   <i name="ENCUTGWSOFT">     -2.00000000</i>
   <i name="ENCUTLF">     -1.00000000</i>
   <i type="int" name="LMAXMP2">    -1</i>
   <i name="SCISSOR">      0.00000000</i>
   <i type="int" name="NOMEGA">     0</i>
   <i type="int" name="NOMEGAR">     0</i>
   <i type="int" name="NBANDSGW">    -1</i>
   <i type="int" name="NBANDSO">    -1</i>
   <i type="int" name="NBANDSV">    -1</i>
   <i type="int" name="NELM">   400</i>
   <i type="int" name="NELMHF">     1</i>
   <i type="int" name="DIM">     3</i>
   <i type="int" name="ANTIRES">     0</i>
   <i name="OMEGAMAX">    -30.00000000</i>
   <i name="OMEGAMIN">    -30.00000000</i>
   <i name="OMEGATL">   -200.00000000</i>
   <i type="int" name="OMEGAGRID">   140</i>
   <i name="CSHIFT">     -0.10000000</i>
   <i type="logical" name="SELFENERGY"> F  </i>
   <i type="logical" name="LSPECTRAL"> F  </i>
   <i type="logical" name="LSPECTRALGW"> F  </i>
   <i type="logical" name="LSINGLES"> F  </i>
   <i type="logical" name="LFERMIGW"> F  </i>
   <i type="logical" name="ODDONLYGW"> F  </i>
   <i type="logical" name="EVENONLYGW"> F  </i>
   <i type="int" name="NKREDLFX">     1</i>
   <i type="int" name="NKREDLFY">     1</i>
   <i type="int" name="NKREDLFZ">     1</i>
   <i type="int" name="MAXMEM">  2800</i>
   <i type="int" name="TELESCOPE">     0</i>
   <i type="int" name="TAUPAR">     1</i>
   <i type="int" name="OMEGAPAR">    -1</i>
   <i name="LAMBDA">      1.00000000</i>
  </separator>
  <separator name="External order field" >
   <i name="OFIELD_KAPPA">      0.00000000</i>
   <v name="OFIELD_K">      0.00000000      0.00000000      0.00000000</v>
   <i name="OFIELD_Q6_NEAR">      0.00000000</i>
   <i name="OFIELD_Q6_FAR">      0.00000000</i>
   <i name="OFIELD_A">      0.00000000</i>
  </separator>
 </parameters>
 <atominfo>
  <atoms>      10 </atoms>
  <types>       4 </types>
  <array name="atoms" >
   <dimension dim="1">ion</dimension>
   <field type="string">element</field>
   <field type="int">atomtype</field>
   <set>
    <rc><c>Ni</c><c>   1</c></rc>
    <rc><c>Ni</c><c>   1</c></rc>
    <rc><c>Si</c><c>   2</c></rc>
    <rc><c>P </c><c>   3</c></rc>
    <rc><c>Te</c><c>   4</c></rc>
    <rc><c>Te</c><c>   4</c></rc>
    <rc><c>Te</c><c>   4</c></rc>
    <rc><c>Te</c><c>   4</c></rc>
    <rc><c>Te</c><c>   4</c></rc>
    <rc><c>Te</c><c>   4</c></rc>
   </set>
  </array>
  <array name="atomtypes" >
   <dimension dim="1">type</dimension>
   <field type="int">atomspertype</field>
   <field type="string">element</field>
   <field>mass</field>
   <field>valence</field>
   <field type="string">pseudopotential</field>
   <set>
    <rc><c>   2</c><c>Ni</c><c>     58.69000000</c><c>     10.00000000</c><c> PAW_PBE Ni 06Sep2000                   </c></rc>
    <rc><c>   1</c><c>Si</c><c>     28.08500000</c><c>      4.00000000</c><c> PAW_PBE Si 05Jan2001                   </c></rc>
    <rc><c>   1</c><c>P </c><c>     30.97400000</c><c>      5.00000000</c><c>  PAW_PBE P 17Jan2003                   </c></rc>
    <rc><c>   6</c><c>Te</c><c>    127.60000000</c><c>      6.00000000</c><c> PAW_PBE Te 08Apr2002                   </c></rc>
   </set>
  </array>
 </atominfo>
 <structure name="initialpos" >
  <crystal>
   <varray name="basis" >
    <v>       6.90777700      -0.00000000       0.00000000 </v>
    <v>       3.45388800       5.98231000       0.00000000 </v>
    <v>       0.00000000       0.00000000      23.44458800 </v>
   </varray>
   <i name="volume">    968.83501932 </i>
   <varray name="rec_basis" >
    <v>       0.14476437      -0.08357974       0.00000000 </v>
    <v>       0.00000000       0.16715951      -0.00000000 </v>
    <v>      -0.00000000       0.00000000       0.04265377 </v>
   </varray>
  </crystal>
  <varray name="positions" >
   <v>       0.33333300       0.33333300       0.49992500 </v>
   <v>       0.66666700       0.66666700       0.50007500 </v>
   <v>       0.00000000       0.00000000       0.44821600 </v>
   <v>       0.00000000       0.00000000       0.55178400 </v>
   <v>       0.62635700       0.00042000       0.57375200 </v>
   <v>       0.00042000       0.37322400       0.57375200 </v>
   <v>       0.37322400       0.62635700       0.57375200 </v>
   <v>       0.37364300       0.99958000       0.42624800 </v>
   <v>       0.99958000       0.62677600       0.42624800 </v>
   <v>       0.62677600       0.37364300       0.42624800 </v>
  </varray>
  <varray name="selective"  type="logical" >
   <v type="logical" >  T  T  T </v>
   <v type="logical" >  T  T  T </v>
   <v type="logical" >  T  T  T </v>
   <v type="logical" >  T  T  T </v>
   <v type="logical" >  F  F  F </v>
   <v type="logical" >  F  F  F </v>
   <v type="logical" >  F  F  F </v>
   <v type="logical" >  F  F  F </v>
   <v type="logical" >  F  F  F </v>
   <v type="logical" >  F  F  F </v>
  </varray>
  <nose>
   <v>      -3.00000000       0.00000000       0.00010000       0.00010000 </v>
  </nose>
 </structure>
 <calculation>
  <scstep>
   <time name="dav">   22.76   22.91</time>
   <time name="total">   75.06   75.65</time>
   <energy>
    <i name="alphaZ">     17.18023149 </i>
    <i name="ewald">   8338.88239735 </i>
    <i name="hartreedc"> -11774.72595537 </i>
    <i name="XCdc">   -121.08023381 </i>
    <i name="pawpsdc">   2450.34611652 </i>
    <i name="pawaedc">  -2315.48973293 </i>
    <i name="eentropy">      0.00000000 </i>
    <i name="bandstr">     10.78822744 </i>
    <i name="atom">   3790.54222716 </i>
    <i name="e_fr_energy">    396.44327785 </i>
    <i name="e_wo_entrp">    396.44327785 </i>
    <i name="e_0_energy">    396.44327785 </i>
   </energy>
  </scstep>
  <scstep>
   <time name="dav">   32.92   33.08</time>
   <time name="total">   32.92   33.09</time>
   <energy>
    <i name="e_fr_energy">      9.67812143 </i>
    <i name="e_wo_entrp">      9.67812143 </i>
    <i name="e_0_energy">      9.67812143 </i>
   </energy>
  </scstep>
  <scstep>
   <time name="dav">   29.30   29.46</time>
   <time name="total">   29.30   29.46</time>
   <energy>
    <i name="e_fr_energy">    -32.86304099 </i>
    <i name="e_wo_entrp">    -32.86304099 </i>
    <i name="e_0_energy">    -32.86304099 </i>
   </energy>
  </scstep>
  <scstep>
   <time name="dav">   30.54   30.61</time>
   <time name="total">   30.54   30.61</time>
   <energy>
    <i name="e_fr_energy">    -34.50099790 </i>
    <i name="e_wo_entrp">    -34.50099790 </i>
    <i name="e_0_energy">    -34.50099790 </i>
   </energy>
  </scstep>
  <scstep>
   <time name="dav">   32.20   32.31</time>
   <time name="total">   34.36   34.47</time>
   <energy>
    <i name="e_fr_energy">    -34.52981494 </i>
    <i name="e_wo_entrp">    -34.52981494 </i>
    <i name="e_0_energy">    -34.52981494 </i>
   </energy>
  </scstep>
  <scstep>
   <time name="dav">   25.29   26.05</time>
   <time name="total">   78.92   79.97</time>
   <energy>
    <i name="e_fr_energy">    -44.34475901 </i>
    <i name="e_wo_entrp">    -44.34475901 </i>
    <i name="e_0_energy">    -44.34475901 </i>
   </energy>
  </scstep>
  <scstep>
   <time name="dav">   26.11   26.28</time>
   <time name="total">   79.55   80.06</time>
   <energy>
    <i name="e_fr_energy">    -33.19844730 </i>
    <i name="e_wo_entrp">    -33.19844730 </i>
    <i name="e_0_energy">    -33.19844730 </i>
   </energy>
  </scstep>
  <scstep>
   <time name="dav">   33.64   33.79</time>
   <time name="total">   87.84   88.09</time>
   <energy>
    <i name="e_fr_energy">    -33.26291981 </i>
    <i name="e_wo_entrp">    -33.26291981 </i>
    <i name="e_0_energy">    -33.26291981 </i>
   </energy>
  </scstep>
  <scstep>
   <time name="dav">   26.93   27.21</time>
   <time name="total">   80.30   80.81</time>
   <energy>
    <i name="e_fr_energy">    -33.18330891 </i>
    <i name="e_wo_entrp">    -33.18330891 </i>
    <i name="e_0_energy">    -33.18330891 </i>
   </energy>
  </scstep>
  <scstep>
   <time name="dav">   27.04   27.26</time>
   <time name="total">   79.97   80.61</time>
   <energy>
    <i name="e_fr_energy">    -33.14793833 </i>
    <i name="e_wo_entrp">    -33.14793833 </i>
    <i name="e_0_energy">    -33.14793833 </i>
   </energy>
  </scstep>
  <scstep>
   <time name="dav">   30.65   30.88</time>
   <time name="total">   83.63   84.00</time>
   <energy>
    <i name="e_fr_energy">    -33.23703753 </i>
    <i name="e_wo_entrp">    -33.23703753 </i>
    <i name="e_0_energy">    -33.23703753 </i>
   </energy>
  </scstep>
  <scstep>
   <time name="dav">   31.40   31.58</time>
   <time name="total">   84.28   84.69</time>
   <energy>
    <i name="e_fr_energy">    -33.74619590 </i>
    <i name="e_wo_entrp">    -33.74619590 </i>
    <i name="e_0_energy">    -33.74619590 </i>
   </energy>
  </scstep>
  <scstep>
   <time name="dav">   25.72   25.90</time>
   <time name="total">   78.64   79.01</time>
   <energy>
    <i name="e_fr_energy">    -33.02989577 </i>
    <i name="e_wo_entrp">    -33.02989577 </i>
    <i name="e_0_energy">    -33.02989577 </i>
   </energy>
  </scstep>
  <scstep>
   <time name="dav">   26.09   26.23</time>
   <time name="total">   79.07   79.40</time>
   <energy>
    <i name="e_fr_energy">    -33.30389476 </i>
    <i name="e_wo_entrp">    -33.30389476 </i>
    <i name="e_0_energy">    -33.30389476 </i>
   </energy>
  </scstep>
  <scstep>
   <time name="dav">   28.54   29.03</time>
   <time name="total">   81.44   82.06</time>
   <energy>
    <i name="e_fr_energy">    -33.33857198 </i>
    <i name="e_wo_entrp">    -33.33857198 </i>
    <i name="e_0_energy">    -33.33857198 </i>
   </energy>
  </scstep>
  <scstep>
   <time name="dav">   26.52   26.66</time>
   <time name="total">   79.57   79.87</time>
   <energy>
    <i name="e_fr_energy">    -33.34302486 </i>
    <i name="e_wo_entrp">    -33.34302486 </i>
    <i name="e_0_energy">    -33.34302486 </i>
   </energy>
  </scstep>
  <scstep>
   <time name="dav">   24.21   24.33</time>
   <time name="total">   76.81   77.52</time>
   <energy>
    <i name="e_fr_energy">    -33.34195849 </i>
    <i name="e_wo_entrp">    -33.34195849 </i>
    <i name="e_0_energy">    -33.34195849 </i>
   </energy>
  </scstep>
  <scstep>
   <time name="dav">   24.81   24.93</time>
   <time name="total">   77.80   78.08</time>
   <energy>
    <i name="e_fr_energy">    -33.34175074 </i>
    <i name="e_wo_entrp">    -33.34175074 </i>
    <i name="e_0_energy">    -33.34175074 </i>
   </energy>
  </scstep>
  <scstep>
   <time name="dav">   23.30   23.55</time>
   <time name="total">   76.41   76.81</time>
   <energy>
    <i name="e_fr_energy">    -33.34133692 </i>
    <i name="e_wo_entrp">    -33.34133692 </i>
    <i name="e_0_energy">    -33.34133692 </i>
   </energy>
  </scstep>
  <scstep>
   <time name="dav">   22.35   22.53</time>
   <time name="total">   75.09   75.74</time>
   <energy>
    <i name="e_fr_energy">    -33.34119155 </i>
    <i name="e_wo_entrp">    -33.34119155 </i>
    <i name="e_0_energy">    -33.34119155 </i>
   </energy>
  </scstep>
  <scstep>
   <time name="dav">   24.23   24.53</time>
   <time name="total">   77.11   77.59</time>
   <energy>
    <i name="e_fr_energy">    -61.76927476 </i>
    <i name="e_wo_entrp">    -61.76927476 </i>
    <i name="e_0_energy">    -61.76927476 </i>
   </energy>
  </scstep>
  <scstep>
   <time name="dav">   26.96   27.06</time>
   <time name="total">   79.48   80.16</time>
   <energy>
    <i name="e_fr_energy">    -31.73607234 </i>
    <i name="e_wo_entrp">    -31.73607234 </i>
    <i name="e_0_energy">    -31.73607234 </i>
   </energy>
  </scstep>
  <scstep>
   <time name="dav">   25.77   25.94</time>
   <time name="total">   78.84   79.07</time>
   <energy>
    <i name="e_fr_energy">    -33.22552445 </i>
    <i name="e_wo_entrp">    -33.22552445 </i>
    <i name="e_0_energy">    -33.22552445 </i>
   </energy>
  </scstep>
  <scstep>
   <time name="dav">   25.46   25.59</time>
   <time name="total">   78.46   78.71</time>
   <energy>
    <i name="e_fr_energy">    -33.32525033 </i>
    <i name="e_wo_entrp">    -33.32525033 </i>
    <i name="e_0_energy">    -33.32525033 </i>
   </energy>
  </scstep>
  <scstep>
   <time name="dav">   25.51   25.66</time>
   <time name="total">   78.50   78.81</time>
   <energy>
    <i name="e_fr_energy">    -33.34075550 </i>
    <i name="e_wo_entrp">    -33.34075550 </i>
    <i name="e_0_energy">    -33.34075550 </i>
   </energy>
  </scstep>
  <scstep>
   <time name="dav">   22.97   23.03</time>
   <time name="total">   75.80   76.30</time>
   <energy>
    <i name="e_fr_energy">    -33.34256660 </i>
    <i name="e_wo_entrp">    -33.34256660 </i>
    <i name="e_0_energy">    -33.34256660 </i>
   </energy>
  </scstep>
  <scstep>
   <time name="dav">   20.82   21.05</time>
   <time name="total">   73.76   74.36</time>
   <energy>
    <i name="e_fr_energy">    -33.34530070 </i>
    <i name="e_wo_entrp">    -33.34530070 </i>
    <i name="e_0_energy">    -33.34530070 </i>
   </energy>
  </scstep>
  <scstep>
   <time name="dav">   20.71   20.88</time>
   <time name="total">   73.55   74.00</time>
   <energy>
    <i name="e_fr_energy">    -33.34344021 </i>
    <i name="e_wo_entrp">    -33.34344021 </i>
    <i name="e_0_energy">    -33.34344021 </i>
   </energy>
  </scstep>
  <scstep>
   <time name="dav">   23.81   23.87</time>
   <time name="total">   76.83   77.07</time>
   <energy>
    <i name="e_fr_energy">    -33.34349196 </i>
    <i name="e_wo_entrp">    -33.34349196 </i>
    <i name="e_0_energy">    -33.34349196 </i>
   </energy>
  </scstep>
  <scstep>
   <time name="dav">   22.01   22.16</time>
   <time name="total">   74.91   75.26</time>
   <energy>
    <i name="e_fr_energy">    -33.34390172 </i>
    <i name="e_wo_entrp">    -33.34390172 </i>
    <i name="e_0_energy">    -33.34390172 </i>
   </energy>
  </scstep>
  <scstep>
   <time name="dav">   22.43   22.58</time>
   <time name="total">   75.54   75.77</time>
   <energy>
    <i name="e_fr_energy">    -33.34279364 </i>
    <i name="e_wo_entrp">    -33.34279364 </i>
    <i name="e_0_energy">    -33.34279364 </i>
   </energy>
  </scstep>
  <scstep>
   <time name="dav">   23.79   23.99</time>
   <time name="total">   76.74   77.30</time>
   <energy>
    <i name="e_fr_energy">    -33.34200368 </i>
    <i name="e_wo_entrp">    -33.34200368 </i>
    <i name="e_0_energy">    -33.34200368 </i>
   </energy>
  </scstep>
  <scstep>
   <time name="dav">   23.08   23.35</time>
   <time name="total">   75.88   76.62</time>
   <energy>
    <i name="e_fr_energy">    -33.34300780 </i>
    <i name="e_wo_entrp">    -33.34300780 </i>
    <i name="e_0_energy">    -33.34300780 </i>
   </energy>
  </scstep>
  <scstep>
   <time name="dav">   20.76   21.15</time>
   <time name="total">   78.04   81.00</time>
   <energy>
    <i name="e_fr_energy">    -33.34312535 </i>
    <i name="e_wo_entrp">    -33.34312535 </i>
    <i name="e_0_energy">    -33.34312535 </i>
   </energy>
  </scstep>
  <scstep>
   <time name="dav">   19.89   20.14</time>
   <time name="total">   72.65   73.52</time>
   <energy>
    <i name="e_fr_energy">    -33.34198410 </i>
    <i name="e_wo_entrp">    -33.34198410 </i>
    <i name="e_0_energy">    -33.34198410 </i>
   </energy>
  </scstep>
  <scstep>
   <time name="dav">   20.34   20.67</time>
   <time name="total">   72.90   74.03</time>
   <energy>
    <i name="e_fr_energy">    -33.34254560 </i>
    <i name="e_wo_entrp">    -33.34254560 </i>
    <i name="e_0_energy">    -33.34254560 </i>
   </energy>
  </scstep>
  <scstep>
   <time name="dav">   21.38   21.88</time>
   <time name="total">   74.31   75.18</time>
   <energy>
    <i name="e_fr_energy">    -33.34210916 </i>
    <i name="e_wo_entrp">    -33.34210916 </i>
    <i name="e_0_energy">    -33.34210916 </i>
   </energy>
  </scstep>
  <scstep>
   <time name="dav">   21.77   21.84</time>
   <time name="total">   72.38   73.03</time>
   <energy>
    <i name="alphaZ">     17.18023149 </i>
    <i name="ewald">   8338.88239735 </i>
    <i name="hartreedc"> -11773.47439526 </i>
    <i name="XCdc">   -121.68957871 </i>
    <i name="pawpsdc">   2503.69493514 </i>
    <i name="pawaedc">  -2370.51547534 </i>
    <i name="eentropy">      0.00000000 </i>
    <i name="bandstr">   -417.96240431 </i>
    <i name="atom">   3790.54222716 </i>
    <i name="e_fr_energy">    -33.34206247 </i>
    <i name="e_wo_entrp">    -33.34206247 </i>
    <i name="e_0_energy">    -33.34206247 </i>
   </energy>
  </scstep>
  <structure>
   <crystal>
    <varray name="basis" >
     <v>       6.90777700      -0.00000000       0.00000000 </v>
     <v>       3.45388800       5.98231000       0.00000000 </v>
     <v>       0.00000000       0.00000000      23.44458800 </v>
    </varray>
    <i name="volume">    968.83501932 </i>
    <varray name="rec_basis" >
     <v>       0.14476437      -0.08357974       0.00000000 </v>
     <v>       0.00000000       0.16715951      -0.00000000 </v>
     <v>      -0.00000000       0.00000000       0.04265377 </v>
    </varray>
   </crystal>
   <varray name="positions" >
    <v>       0.33333300       0.33333300       0.49992500 </v>
    <v>       0.66666700       0.66666700       0.50007500 </v>
    <v>       0.00000000       0.00000000       0.44821600 </v>
    <v>       0.00000000       0.00000000       0.55178400 </v>
    <v>       0.62635700       0.00042000       0.57375200 </v>
    <v>       0.00042000       0.37322400       0.57375200 </v>
    <v>       0.37322400       0.62635700       0.57375200 </v>
    <v>       0.37364300       0.99958000       0.42624800 </v>
    <v>       0.99958000       0.62677600       0.42624800 </v>
    <v>       0.62677600       0.37364300       0.42624800 </v>
   </varray>
  </structure>
  <varray name="forces" >
   <v>       0.00000000       0.00000000      -0.00072634 </v>
   <v>      -0.00000000       0.00000000      -0.00410892 </v>
   <v>       0.00000000       0.00000000       0.69716198 </v>
   <v>       0.00000000       0.00000000      -0.68312330 </v>
   <v>       0.16432904      -0.00491730      -0.62805182 </v>
   <v>      -0.08642301      -0.13985446      -0.62805182 </v>
   <v>      -0.07790602       0.14477176      -0.62805182 </v>
   <v>      -0.27482613       0.00864738       0.62498401 </v>
   <v>       0.14490190       0.23368271       0.62498401 </v>
   <v>       0.12992424      -0.24233009       0.62498401 </v>
  </varray>
  <varray name="stress" >
   <v>     -16.82003091       0.00000085       0.00000000 </v>
   <v>       0.00000196     -16.82002886       0.00000000 </v>
   <v>       0.00000000       0.00000000     -14.91032148 </v>
  </varray>
  <energy>
   <i name="e_fr_energy">    -33.34206247 </i>
   <i name="e_wo_entrp">    -33.34206247 </i>
   <i name="e_0_energy">      0.00000000 </i>
  </energy>
  <time name="totalsc"> 2915.85 2936.90</time>
 </calculation>
 <calculation>
  <scstep>
   <time name="dav">   27.52   27.60</time>
   <time name="total">   80.51   81.07</time>
   <energy>
    <i name="alphaZ">     19.86294074 </i>
    <i name="ewald">   8860.24462563 </i>
    <i name="hartreedc"> -12460.14832694 </i>
    <i name="XCdc">   -114.92470897 </i>
    <i name="pawpsdc">   2503.69882256 </i>
    <i name="pawaedc">  -2370.52078171 </i>
    <i name="eentropy">      0.00000000 </i>
    <i name="bandstr">   -280.36465001 </i>
    <i name="atom">   3790.54222716 </i>
    <i name="e_fr_energy">    -51.60985153 </i>
    <i name="e_wo_entrp">    -51.60985153 </i>
    <i name="e_0_energy">    -51.60985153 </i>
   </energy>
  </scstep>
  <scstep>
   <time name="dav">   23.28   23.31</time>
   <time name="total">   76.32   76.89</time>
   <energy>
    <i name="e_fr_energy">   -135.32984265 </i>
    <i name="e_wo_entrp">   -135.32984265 </i>
    <i name="e_0_energy">   -135.32984265 </i>
   </energy>
  </scstep>
  <scstep>
   <time name="dav">   24.17   24.39</time>
   <time name="total">   77.42   78.01</time>
   <energy>
    <i name="e_fr_energy">    -49.37132054 </i>
    <i name="e_wo_entrp">    -49.37132054 </i>
    <i name="e_0_energy">    -49.37132054 </i>
   </energy>
  </scstep>
  <scstep>
   <time name="dav">   27.36   27.59</time>
   <time name="total">   80.84   81.25</time>
   <energy>
    <i name="e_fr_energy">    -33.52250815 </i>
    <i name="e_wo_entrp">    -33.52250815 </i>
    <i name="e_0_energy">    -33.52250815 </i>
   </energy>
  </scstep>
  <scstep>
   <time name="dav">   24.73   25.13</time>
   <time name="total">   78.05   78.69</time>
   <energy>
    <i name="e_fr_energy">    -34.32750602 </i>
    <i name="e_wo_entrp">    -34.32750602 </i>
    <i name="e_0_energy">    -34.32750602 </i>
   </energy>
  </scstep>
  <scstep>
   <time name="dav">   24.86   25.00</time>
   <time name="total">   78.21   78.54</time>
   <energy>
    <i name="e_fr_energy">    -35.47210344 </i>
    <i name="e_wo_entrp">    -35.47210344 </i>
    <i name="e_0_energy">    -35.47210344 </i>
   </energy>
  </scstep>
  <scstep>
   <time name="dav">   25.08   25.39</time>
   <time name="total">   78.20   79.14</time>
   <energy>
    <i name="e_fr_energy">    -34.07465046 </i>
    <i name="e_wo_entrp">    -34.07465046 </i>
    <i name="e_0_energy">    -34.07465046 </i>
   </energy>
  </scstep>
  <scstep>
   <time name="dav">   30.27   30.88</time>
   <time name="total">   83.27   84.43</time>
   <energy>
    <i name="e_fr_energy">    -33.89581470 </i>
    <i name="e_wo_entrp">    -33.89581470 </i>
    <i name="e_0_energy">    -33.89581470 </i>
   </energy>
  </scstep>
  <scstep>
   <time name="dav">   30.94   31.25</time>
   <time name="total">   84.19   84.95</time>
   <energy>
    <i name="e_fr_energy">    -33.84086768 </i>
    <i name="e_wo_entrp">    -33.84086768 </i>
    <i name="e_0_energy">    -33.84086768 </i>
   </energy>
  </scstep>
  <scstep>
   <time name="dav">   28.88   28.91</time>
   <time name="total">   82.44   82.58</time>
   <energy>
    <i name="e_fr_energy">    -33.83311111 </i>
    <i name="e_wo_entrp">    -33.83311111 </i>
    <i name="e_0_energy">    -33.83311111 </i>
   </energy>
  </scstep>
  <scstep>
   <time name="dav">   29.53   29.87</time>
   <time name="total">   82.87   83.36</time>
   <energy>
    <i name="e_fr_energy">    -33.89012977 </i>
    <i name="e_wo_entrp">    -33.89012977 </i>
    <i name="e_0_energy">    -33.89012977 </i>
   </energy>
  </scstep>
  <scstep>
   <time name="dav">   22.93   23.34</time>
   <time name="total">   76.04   77.08</time>
   <energy>
    <i name="e_fr_energy">    -33.86902023 </i>
    <i name="e_wo_entrp">    -33.86902023 </i>
    <i name="e_0_energy">    -33.86902023 </i>
   </energy>
  </scstep>
  <scstep>
   <time name="dav">   23.66   23.77</time>
   <time name="total">   77.11   77.45</time>
   <energy>
    <i name="e_fr_energy">    -33.86969733 </i>
    <i name="e_wo_entrp">    -33.86969733 </i>
    <i name="e_0_energy">    -33.86969733 </i>
   </energy>
  </scstep>
  <scstep>
   <time name="dav">   24.96   25.09</time>
   <time name="total">   78.53   78.73</time>
   <energy>
    <i name="e_fr_energy">    -33.86693760 </i>
    <i name="e_wo_entrp">    -33.86693760 </i>
    <i name="e_0_energy">    -33.86693760 </i>
   </energy>
  </scstep>
  <scstep>
   <time name="dav">   25.93   26.08</time>
   <time name="total">   79.34   79.59</time>
   <energy>
    <i name="e_fr_energy">    -33.85875562 </i>
    <i name="e_wo_entrp">    -33.85875562 </i>
    <i name="e_0_energy">    -33.85875562 </i>
   </energy>
  </scstep>
  <scstep>
   <time name="dav">   26.06   26.28</time>
   <time name="total">   79.38   79.95</time>
   <energy>
    <i name="e_fr_energy">    -33.87043234 </i>
    <i name="e_wo_entrp">    -33.87043234 </i>
    <i name="e_0_energy">    -33.87043234 </i>
   </energy>
  </scstep>
  <scstep>
   <time name="dav">   31.06   31.27</time>
   <time name="total">   84.41   84.92</time>
   <energy>
    <i name="e_fr_energy">    -33.86922754 </i>
    <i name="e_wo_entrp">    -33.86922754 </i>
    <i name="e_0_energy">    -33.86922754 </i>
   </energy>
  </scstep>
  <scstep>
   <time name="dav">   27.39   27.60</time>
   <time name="total">   80.72   81.12</time>
   <energy>
    <i name="e_fr_energy">    -33.86956786 </i>
    <i name="e_wo_entrp">    -33.86956786 </i>
    <i name="e_0_energy">    -33.86956786 </i>
   </energy>
  </scstep>
  <scstep>
   <time name="dav">   29.52   29.74</time>
   <time name="total">   80.76   80.99</time>
   <energy>
    <i name="alphaZ">     19.86294074 </i>
    <i name="ewald">   8860.24462563 </i>
    <i name="hartreedc"> -12322.39171910 </i>
    <i name="XCdc">   -118.94653113 </i>
    <i name="pawpsdc">   2576.26671444 </i>
    <i name="pawaedc">  -2444.24476451 </i>
    <i name="eentropy">      0.00000000 </i>
    <i name="bandstr">   -395.20315656 </i>
    <i name="atom">   3790.54222716 </i>
    <i name="e_fr_energy">    -33.86966333 </i>
    <i name="e_wo_entrp">    -33.86966333 </i>
    <i name="e_0_energy">    -33.86966333 </i>
   </energy>
  </scstep>
  <structure>
   <crystal>
    <varray name="basis" >
     <v>       6.56882708       0.00000002       0.00000000 </v>
     <v>       3.28441310       5.68877082       0.00000000 </v>
     <v>       0.00000000       0.00000000      22.42482312 </v>
    </varray>
    <i name="volume">    837.98316322 </i>
    <varray name="rec_basis" >
     <v>       0.15223418      -0.08789244      -0.00000000 </v>
     <v>      -0.00000000       0.17578490       0.00000000 </v>
     <v>      -0.00000000       0.00000000       0.04459344 </v>
    </varray>
   </crystal>
   <varray name="positions" >
    <v>       0.33333300       0.33333300       0.49992351 </v>
    <v>       0.66666700       0.66666700       0.50006654 </v>
    <v>       0.00000000       0.00000000       0.44965057 </v>
    <v>       0.00000000       0.00000000       0.55037832 </v>
    <v>       0.62635700       0.00042000       0.57375200 </v>
    <v>       0.00042000       0.37322400       0.57375200 </v>
    <v>       0.37322400       0.62635700       0.57375200 </v>
    <v>       0.37364300       0.99958000       0.42624800 </v>
    <v>       0.99958000       0.62677600       0.42624800 </v>
    <v>       0.62677600       0.37364300       0.42624800 </v>
   </varray>
  </structure>
  <varray name="forces" >
   <v>      -0.00000000      -0.00000000       0.04266144 </v>
   <v>      -0.00000000      -0.00000000       0.04888166 </v>
   <v>      -0.00000000      -0.00000000      -0.18851407 </v>
   <v>      -0.00000000      -0.00000000       0.30563400 </v>
   <v>      -0.19509637      -0.00489545      -0.05982523 </v>
   <v>       0.09330858       0.17140613      -0.05982523 </v>
   <v>       0.10178778      -0.16651068      -0.05982523 </v>
   <v>       0.05155058       0.01231873      -0.00972911 </v>
   <v>      -0.01510695      -0.05080347      -0.00972911 </v>
   <v>      -0.03644363       0.03848474      -0.00972911 </v>
  </varray>
  <varray name="stress" >
   <v>       9.95498359      -0.00000175       0.00000000 </v>
   <v>       0.00000026       9.95498250      -0.00000000 </v>
   <v>      -0.00000000      -0.00000000       1.10122877 </v>
  </varray>
  <energy>
   <i name="e_fr_energy">    -33.86966333 </i>
   <i name="e_wo_entrp">    -33.86966333 </i>
   <i name="e_0_energy">      0.00000000 </i>
  </energy>
  <time name="totalsc"> 1652.40 1663.06</time>
 </calculation>
 <calculation>
  <scstep>
   <time name="dav">   27.87   28.28</time>
   <time name="total">   81.22   81.83</time>
   <energy>
    <i name="alphaZ">     19.19396074 </i>
    <i name="ewald">   8733.84203646 </i>
    <i name="hartreedc"> -12157.48306900 </i>
    <i name="XCdc">   -120.53471016 </i>
    <i name="pawpsdc">   2575.46235060 </i>
    <i name="pawaedc">  -2443.49667410 </i>
    <i name="eentropy">      0.00000000 </i>
    <i name="bandstr">   -432.29242976 </i>
    <i name="atom">   3790.54222716 </i>
    <i name="e_fr_energy">    -34.76630806 </i>
    <i name="e_wo_entrp">    -34.76630806 </i>
    <i name="e_0_energy">    -34.76630806 </i>
   </energy>
  </scstep>
  <scstep>
   <time name="dav">   29.30   29.42</time>
   <time name="total">   82.52   82.79</time>
   <energy>
    <i name="e_fr_energy">    -40.12992469 </i>
    <i name="e_wo_entrp">    -40.12992469 </i>
    <i name="e_0_energy">    -40.12992469 </i>
   </energy>
  </scstep>
  <scstep>
   <time name="dav">   25.38   25.60</time>
   <time name="total">   78.52   79.14</time>
   <energy>
    <i name="e_fr_energy">    -34.22602250 </i>
    <i name="e_wo_entrp">    -34.22602250 </i>
    <i name="e_0_energy">    -34.22602250 </i>
   </energy>
  </scstep>
  <scstep>
   <time name="dav">   28.40   28.51</time>
   <time name="total">   81.82   82.02</time>
   <energy>
    <i name="e_fr_energy">    -34.05631956 </i>
    <i name="e_wo_entrp">    -34.05631956 </i>
    <i name="e_0_energy">    -34.05631956 </i>
   </energy>
  </scstep>
  <scstep>
   <time name="dav">   28.74   28.85</time>
   <time name="total">   82.02   82.24</time>
   <energy>
    <i name="e_fr_energy">    -33.95461412 </i>
    <i name="e_wo_entrp">    -33.95461412 </i>
    <i name="e_0_energy">    -33.95461412 </i>
   </energy>
  </scstep>
  <scstep>
   <time name="dav">   29.00   29.11</time>
   <time name="total">   82.30   82.52</time>
   <energy>
    <i name="e_fr_energy">    -33.92598256 </i>
    <i name="e_wo_entrp">    -33.92598256 </i>
    <i name="e_0_energy">    -33.92598256 </i>
   </energy>
  </scstep>
  <scstep>
   <time name="dav">   30.49   30.55</time>
   <time name="total">   83.94   84.15</time>
   <energy>
    <i name="e_fr_energy">    -33.91855114 </i>
    <i name="e_wo_entrp">    -33.91855114 </i>
    <i name="e_0_energy">    -33.91855114 </i>
   </energy>
  </scstep>
  <scstep>
   <time name="dav">   30.40   30.47</time>
   <time name="total">   83.63   83.92</time>
   <energy>
    <i name="e_fr_energy">    -33.91729576 </i>
    <i name="e_wo_entrp">    -33.91729576 </i>
    <i name="e_0_energy">    -33.91729576 </i>
   </energy>
  </scstep>
  <scstep>
   <time name="dav">   25.84   25.89</time>
   <time name="total">   79.26   79.37</time>
   <energy>
    <i name="e_fr_energy">    -33.91703352 </i>
    <i name="e_wo_entrp">    -33.91703352 </i>
    <i name="e_0_energy">    -33.91703352 </i>
   </energy>
  </scstep>
  <scstep>
   <time name="dav">   24.42   24.56</time>
   <time name="total">   77.59   78.20</time>
   <energy>
    <i name="e_fr_energy">    -33.91770980 </i>
    <i name="e_wo_entrp">    -33.91770980 </i>
    <i name="e_0_energy">    -33.91770980 </i>
   </energy>
  </scstep>
  <scstep>
   <time name="dav">   28.58   28.66</time>
   <time name="total">   81.98   82.16</time>
   <energy>
    <i name="e_fr_energy">    -33.91846406 </i>
    <i name="e_wo_entrp">    -33.91846406 </i>
    <i name="e_0_energy">    -33.91846406 </i>
   </energy>
  </scstep>
  <scstep>
   <time name="dav">   20.86   21.00</time>
   <time name="total">   74.21   74.63</time>
   <energy>
    <i name="e_fr_energy">    -33.91746190 </i>
    <i name="e_wo_entrp">    -33.91746190 </i>
    <i name="e_0_energy">    -33.91746190 </i>
   </energy>
  </scstep>
  <scstep>
   <time name="dav">   20.18   20.23</time>
   <time name="total">   73.54   73.77</time>
   <energy>
    <i name="e_fr_energy">    -33.91697872 </i>
    <i name="e_wo_entrp">    -33.91697872 </i>
    <i name="e_0_energy">    -33.91697872 </i>
   </energy>
  </scstep>
  <scstep>
   <time name="dav">   17.64   17.77</time>
   <time name="total">   68.70   68.99</time>
   <energy>
    <i name="alphaZ">     19.19396074 </i>
    <i name="ewald">   8733.84203646 </i>
    <i name="hartreedc"> -12184.96830558 </i>
    <i name="XCdc">   -119.72248120 </i>
    <i name="pawpsdc">   2558.26915104 </i>
    <i name="pawaedc">  -2425.79330316 </i>
    <i name="eentropy">      0.00000000 </i>
    <i name="bandstr">   -405.28023791 </i>
    <i name="atom">   3790.54222716 </i>
    <i name="e_fr_energy">    -33.91695245 </i>
    <i name="e_wo_entrp">    -33.91695245 </i>
    <i name="e_0_energy">    -33.91695245 </i>
   </energy>
  </scstep>
  <structure>
   <crystal>
    <varray name="basis" >
     <v>       6.64738281       0.00000001       0.00000000 </v>
     <v>       3.32369095       5.75680207       0.00000000 </v>
     <v>       0.00000000       0.00000000      22.66116593 </v>
    </varray>
    <i name="volume">    867.18995304 </i>
    <varray name="rec_basis" >
     <v>       0.15043515      -0.08685376      -0.00000000 </v>
     <v>      -0.00000000       0.17370755       0.00000000 </v>
     <v>      -0.00000000       0.00000000       0.04412836 </v>
    </varray>
   </crystal>
   <varray name="positions" >
    <v>       0.33333300       0.33333300       0.49992387 </v>
    <v>       0.66666700       0.66666700       0.50006859 </v>
    <v>       0.00000000      -0.00000000       0.44930297 </v>
    <v>      -0.00000000       0.00000000       0.55071892 </v>
    <v>       0.62635700       0.00042000       0.57375200 </v>
    <v>       0.00042000       0.37322400       0.57375200 </v>
    <v>       0.37322400       0.62635700       0.57375200 </v>
    <v>       0.37364300       0.99958000       0.42624800 </v>
    <v>       0.99958000       0.62677600       0.42624800 </v>
    <v>       0.62677600       0.37364300       0.42624800 </v>
   </varray>
  </structure>
  <varray name="forces" >
   <v>      -0.00000000       0.00000000       0.04985625 </v>
   <v>      -0.00000000       0.00000000       0.05391049 </v>
   <v>      -0.00000000       0.00000000       0.02781212 </v>
   <v>      -0.00000000       0.00000000       0.09175913 </v>
   <v>      -0.12612666      -0.00097917      -0.29273693 </v>
   <v>       0.06221534       0.10971847      -0.29273693 </v>
   <v>       0.06391132      -0.10873930      -0.29273693 </v>
   <v>      -0.04817558       0.01295827       0.21829094 </v>
   <v>       0.03530998       0.03524213       0.21829094 </v>
   <v>       0.01286560      -0.04820041       0.21829094 </v>
  </varray>
  <varray name="stress" >
   <v>       0.72183138      -0.00000127       0.00000000 </v>
   <v>       0.00000116       0.72183130      -0.00000000 </v>
   <v>       0.00000000      -0.00000000      -4.94750207 </v>
  </varray>
  <energy>
   <i name="e_fr_energy">    -33.91695245 </i>
   <i name="e_wo_entrp">    -33.91695245 </i>
   <i name="e_0_energy">      0.00000000 </i>
  </energy>
  <time name="totalsc"> 1245.24 1249.89</time>
 </calculation>
 <calculation>
  <scstep>
   <time name="dav">   27.64   27.72</time>
   <time name="total">   81.09   81.37</time>
   <energy>
    <i name="alphaZ">     19.27328263 </i>
    <i name="ewald">   8748.94844311 </i>
    <i name="hartreedc"> -12204.76973768 </i>
    <i name="XCdc">   -119.52440256 </i>
    <i name="pawpsdc">   2557.92529002 </i>
    <i name="pawaedc">  -2425.45470844 </i>
    <i name="eentropy">      0.00000000 </i>
    <i name="bandstr">   -400.87263963 </i>
    <i name="atom">   3790.54222716 </i>
    <i name="e_fr_energy">    -33.93224540 </i>
    <i name="e_wo_entrp">    -33.93224540 </i>
    <i name="e_0_energy">    -33.93224540 </i>
   </energy>
  </scstep>
  <scstep>
   <time name="dav">   24.81   24.94</time>
   <time name="total">   78.25   78.46</time>
   <energy>
    <i name="e_fr_energy">    -34.02397042 </i>
    <i name="e_wo_entrp">    -34.02397042 </i>
    <i name="e_0_energy">    -34.02397042 </i>
   </energy>
  </scstep>
  <scstep>
   <time name="dav">   23.54   23.61</time>
   <time name="total">   76.96   77.19</time>
   <energy>
    <i name="e_fr_energy">    -33.93892146 </i>
    <i name="e_wo_entrp">    -33.93892146 </i>
    <i name="e_0_energy">    -33.93892146 </i>
   </energy>
  </scstep>
  <scstep>
   <time name="dav">   28.41   28.54</time>
   <time name="total">   81.69   81.98</time>
   <energy>
    <i name="e_fr_energy">    -33.92467574 </i>
    <i name="e_wo_entrp">    -33.92467574 </i>
    <i name="e_0_energy">    -33.92467574 </i>
   </energy>
  </scstep>
  <scstep>
   <time name="dav">   28.46   28.50</time>
   <time name="total">   81.51   81.92</time>
   <energy>
    <i name="e_fr_energy">    -33.92372415 </i>
    <i name="e_wo_entrp">    -33.92372415 </i>
    <i name="e_0_energy">    -33.92372415 </i>
   </energy>
  </scstep>
  <scstep>
   <time name="dav">   27.20   27.46</time>
   <time name="total">   80.48   80.94</time>
   <energy>
    <i name="e_fr_energy">    -33.92759538 </i>
    <i name="e_wo_entrp">    -33.92759538 </i>
    <i name="e_0_energy">    -33.92759538 </i>
   </energy>
  </scstep>
  <scstep>
   <time name="dav">   29.20   29.42</time>
   <time name="total">   82.11   82.88</time>
   <energy>
    <i name="e_fr_energy">    -33.92958388 </i>
    <i name="e_wo_entrp">    -33.92958388 </i>
    <i name="e_0_energy">    -33.92958388 </i>
   </energy>
  </scstep>
  <scstep>
   <time name="dav">   29.34   29.44</time>
   <time name="total">   82.45   82.82</time>
   <energy>
    <i name="e_fr_energy">    -33.93141760 </i>
    <i name="e_wo_entrp">    -33.93141760 </i>
    <i name="e_0_energy">    -33.93141760 </i>
   </energy>
  </scstep>
  <scstep>
   <time name="dav">   25.99   26.06</time>
   <time name="total">   79.34   79.56</time>
   <energy>
    <i name="e_fr_energy">    -33.93351315 </i>
    <i name="e_wo_entrp">    -33.93351315 </i>
    <i name="e_0_energy">    -33.93351315 </i>
   </energy>
  </scstep>
  <scstep>
   <time name="dav">   23.54   23.57</time>
   <time name="total">   74.64   74.73</time>
   <energy>
    <i name="alphaZ">     19.27328263 </i>
    <i name="ewald">   8748.94844311 </i>
    <i name="hartreedc"> -12200.44728997 </i>
    <i name="XCdc">   -119.60180196 </i>
    <i name="pawpsdc">   2559.73455678 </i>
    <i name="pawaedc">  -2427.37709695 </i>
    <i name="eentropy">      0.00000000 </i>
    <i name="bandstr">   -405.00587248 </i>
    <i name="atom">   3790.54222716 </i>
    <i name="e_fr_energy">    -33.93355169 </i>
    <i name="e_wo_entrp">    -33.93355169 </i>
    <i name="e_0_energy">    -33.93355169 </i>
   </energy>
  </scstep>
  <structure>
   <crystal>
    <varray name="basis" >
     <v>       6.63787876       0.00000001       0.00000000 </v>
     <v>       3.31893892       5.74857131       0.00000000 </v>
     <v>       0.00000000       0.00000000      22.63257203 </v>
    </varray>
    <i name="volume">    863.62091138 </i>
    <varray name="rec_basis" >
     <v>       0.15065054      -0.08697812      -0.00000000 </v>
     <v>      -0.00000000       0.17395627       0.00000000 </v>
     <v>      -0.00000000       0.00000000       0.04418411 </v>
    </varray>
   </crystal>
   <varray name="positions" >
    <v>       0.33333300       0.33333300       0.49992382 </v>
    <v>       0.66666700       0.66666700       0.50006835 </v>
    <v>       0.00000000      -0.00000000       0.44934459 </v>
    <v>      -0.00000000       0.00000000       0.55067814 </v>
    <v>       0.62635700       0.00042000       0.57375200 </v>
    <v>       0.00042000       0.37322400       0.57375200 </v>
    <v>       0.37322400       0.62635700       0.57375200 </v>
    <v>       0.37364300       0.99958000       0.42624800 </v>
    <v>       0.99958000       0.62677600       0.42624800 </v>
    <v>       0.62677600       0.37364300       0.42624800 </v>
   </varray>
  </structure>
  <varray name="forces" >
   <v>      -0.00000000       0.00000000       0.03906627 </v>
   <v>      -0.00000000       0.00000000       0.04812732 </v>
   <v>      -0.00000000       0.00000000       0.01014594 </v>
   <v>      -0.00000000       0.00000000       0.10359752 </v>
   <v>      -0.13418267       0.04309603      -0.24611442 </v>
   <v>       0.10441358       0.09465758      -0.24611442 </v>
   <v>       0.02976909      -0.13775361      -0.24611442 </v>
   <v>      -0.02862473       0.05288845       0.17913540 </v>
   <v>       0.06011511      -0.00165449       0.17913540 </v>
   <v>      -0.03149038      -0.05123397       0.17913540 </v>
  </varray>
  <varray name="stress" >
   <v>       0.53616358      -0.00000430       0.00000000 </v>
   <v>       0.00000422       0.53616352       0.00000000 </v>
   <v>       0.00000000       0.00000000      -5.29951871 </v>
  </varray>
  <energy>
   <i name="e_fr_energy">    -33.93355169 </i>
   <i name="e_wo_entrp">    -33.93355169 </i>
   <i name="e_0_energy">      0.00000000 </i>
  </energy>
  <time name="totalsc">  931.94  936.08</time>
 </calculation>
 <calculation>
  <scstep>
   <time name="dav">   28.46   28.64</time>
   <time name="total">   81.58   82.08</time>
   <energy>
    <i name="alphaZ">     19.56514763 </i>
    <i name="ewald">   8804.24683213 </i>
    <i name="hartreedc"> -12272.33423203 </i>
    <i name="XCdc">   -118.90485543 </i>
    <i name="pawpsdc">   2559.66958901 </i>
    <i name="pawaedc">  -2427.31768701 </i>
    <i name="eentropy">      0.00000000 </i>
    <i name="bandstr">   -389.56151036 </i>
    <i name="atom">   3790.54222716 </i>
    <i name="e_fr_energy">    -34.09448890 </i>
    <i name="e_wo_entrp">    -34.09448890 </i>
    <i name="e_0_energy">    -34.09448890 </i>
   </energy>
  </scstep>
  <scstep>
   <time name="dav">   26.48   26.61</time>
   <time name="total">   79.93   80.26</time>
   <energy>
    <i name="e_fr_energy">    -35.44184280 </i>
    <i name="e_wo_entrp">    -35.44184280 </i>
    <i name="e_0_energy">    -35.44184280 </i>
   </energy>
  </scstep>
  <scstep>
   <time name="dav">   23.90   23.94</time>
   <time name="total">   77.31   77.44</time>
   <energy>
    <i name="e_fr_energy">    -33.97683334 </i>
    <i name="e_wo_entrp">    -33.97683334 </i>
    <i name="e_0_energy">    -33.97683334 </i>
   </energy>
  </scstep>
  <scstep>
   <time name="dav">   27.74   27.89</time>
   <time name="total">   81.03   81.33</time>
   <energy>
    <i name="e_fr_energy">    -33.93771802 </i>
    <i name="e_wo_entrp">    -33.93771802 </i>
    <i name="e_0_energy">    -33.93771802 </i>
   </energy>
  </scstep>
  <scstep>
   <time name="dav">   29.13   29.18</time>
   <time name="total">   82.54   82.68</time>
   <energy>
    <i name="e_fr_energy">    -33.93017084 </i>
    <i name="e_wo_entrp">    -33.93017084 </i>
    <i name="e_0_energy">    -33.93017084 </i>
   </energy>
  </scstep>
  <scstep>
   <time name="dav">   28.45   28.56</time>
   <time name="total">   81.92   82.10</time>
   <energy>
    <i name="e_fr_energy">    -33.91289714 </i>
    <i name="e_wo_entrp">    -33.91289714 </i>
    <i name="e_0_energy">    -33.91289714 </i>
   </energy>
  </scstep>
  <scstep>
   <time name="dav">   26.67   27.00</time>
   <time name="total">   79.98   80.48</time>
   <energy>
    <i name="e_fr_energy">    -33.91230790 </i>
    <i name="e_wo_entrp">    -33.91230790 </i>
    <i name="e_0_energy">    -33.91230790 </i>
   </energy>
  </scstep>
  <scstep>
   <time name="dav">   24.57   24.62</time>
   <time name="total">   77.88   78.15</time>
   <energy>
    <i name="e_fr_energy">    -33.91001512 </i>
    <i name="e_wo_entrp">    -33.91001512 </i>
    <i name="e_0_energy">    -33.91001512 </i>
   </energy>
  </scstep>
  <scstep>
   <time name="dav">   27.89   28.02</time>
   <time name="total">   81.34   81.64</time>
   <energy>
    <i name="e_fr_energy">    -33.91434204 </i>
    <i name="e_wo_entrp">    -33.91434204 </i>
    <i name="e_0_energy">    -33.91434204 </i>
   </energy>
  </scstep>
  <scstep>
   <time name="dav">   30.20   30.28</time>
   <time name="total">   83.59   83.78</time>
   <energy>
    <i name="e_fr_energy">    -33.91410015 </i>
    <i name="e_wo_entrp">    -33.91410015 </i>
    <i name="e_0_energy">    -33.91410015 </i>
   </energy>
  </scstep>
  <scstep>
   <time name="dav">   27.99   28.04</time>
   <time name="total">   79.22   79.30</time>
   <energy>
    <i name="alphaZ">     19.56514763 </i>
    <i name="ewald">   8804.24683213 </i>
    <i name="hartreedc"> -12258.68873378 </i>
    <i name="XCdc">   -119.24051401 </i>
    <i name="pawpsdc">   2566.90995272 </i>
    <i name="pawaedc">  -2434.80153483 </i>
    <i name="eentropy">      0.00000000 </i>
    <i name="bandstr">   -402.44738742 </i>
    <i name="atom">   3790.54222716 </i>
    <i name="e_fr_energy">    -33.91401039 </i>
    <i name="e_wo_entrp">    -33.91401039 </i>
    <i name="e_0_energy">    -33.91401039 </i>
   </energy>
  </scstep>
  <structure>
   <crystal>
    <varray name="basis" >
     <v>       6.60335292       0.00000002       0.00000000 </v>
     <v>       3.30167601       5.71867107       0.00000000 </v>
     <v>       0.00000000       0.00000000      22.52869757 </v>
    </varray>
    <i name="volume">    850.73776189 </i>
    <varray name="rec_basis" >
     <v>       0.15143822      -0.08743289      -0.00000000 </v>
     <v>      -0.00000000       0.17486580       0.00000000 </v>
     <v>      -0.00000000       0.00000000       0.04438783 </v>
    </varray>
   </crystal>
   <varray name="positions" >
    <v>       0.33333300       0.33333300       0.49992367 </v>
    <v>       0.66666700       0.66666700       0.50006746 </v>
    <v>       0.00000000      -0.00000000       0.44949596 </v>
    <v>      -0.00000000       0.00000000       0.55052982 </v>
    <v>       0.62635700       0.00042000       0.57375200 </v>
    <v>       0.00042000       0.37322400       0.57375200 </v>
    <v>       0.37322400       0.62635700       0.57375200 </v>
    <v>       0.37364300       0.99958000       0.42624800 </v>
    <v>       0.99958000       0.62677600       0.42624800 </v>
    <v>       0.62677600       0.37364300       0.42624800 </v>
   </varray>
  </structure>
  <varray name="forces" >
   <v>       0.00000000       0.00000000       0.03316702 </v>
   <v>       0.00000000       0.00000000       0.03846284 </v>
   <v>       0.00000000       0.00000000      -0.07466927 </v>
   <v>       0.00000000       0.00000000       0.18283925 </v>
   <v>      -0.16410845      -0.01808205      -0.12623584 </v>
   <v>       0.06639470       0.15116311      -0.12623584 </v>
   <v>       0.09771375      -0.13308105      -0.12623584 </v>
   <v>       0.02396423       0.00180741       0.06630256 </v>
   <v>      -0.01041685      -0.02165734       0.06630256 </v>
   <v>      -0.01354738       0.01984992       0.06630256 </v>
  </varray>
  <varray name="stress" >
   <v>       4.42966418      -0.00000071       0.00000000 </v>
   <v>       0.00000004       4.42966369       0.00000000 </v>
   <v>       0.00000000       0.00000000      -2.69599538 </v>
  </varray>
  <energy>
   <i name="e_fr_energy">    -33.91401039 </i>
   <i name="e_wo_entrp">    -33.91401039 </i>
   <i name="e_0_energy">      0.00000000 </i>
  </energy>
  <time name="totalsc"> 1020.38 1023.66</time>
 </calculation>
 <calculation>
  <scstep>
   <time name="dav">   26.82   26.88</time>
   <time name="total">   80.16   80.28</time>
   <energy>
    <i name="alphaZ">     19.37297916 </i>
    <i name="ewald">   8767.88336688 </i>
    <i name="hartreedc"> -12211.08712487 </i>
    <i name="XCdc">   -119.69594426 </i>
    <i name="pawpsdc">   2566.86531861 </i>
    <i name="pawaedc">  -2434.75334508 </i>
    <i name="eentropy">      0.00000000 </i>
    <i name="bandstr">   -413.12200369 </i>
    <i name="atom">   3790.54222716 </i>
    <i name="e_fr_energy">    -33.99452609 </i>
    <i name="e_wo_entrp">    -33.99452609 </i>
    <i name="e_0_energy">    -33.99452609 </i>
   </energy>
  </scstep>
  <scstep>
   <time name="dav">   26.58   26.87</time>
   <time name="total">   80.02   80.40</time>
   <energy>
    <i name="e_fr_energy">    -34.41069627 </i>
    <i name="e_wo_entrp">    -34.41069627 </i>
    <i name="e_0_energy">    -34.41069627 </i>
   </energy>
  </scstep>
  <scstep>
   <time name="dav">   24.49   24.55</time>
   <time name="total">   77.71   78.01</time>
   <energy>
    <i name="e_fr_energy">    -33.97475666 </i>
    <i name="e_wo_entrp">    -33.97475666 </i>
    <i name="e_0_energy">    -33.97475666 </i>
   </energy>
  </scstep>
  <scstep>
   <time name="dav">   27.62   27.88</time>
   <time name="total">   80.96   81.30</time>
   <energy>
    <i name="e_fr_energy">    -33.93985506 </i>
    <i name="e_wo_entrp">    -33.93985506 </i>
    <i name="e_0_energy">    -33.93985506 </i>
   </energy>
  </scstep>
  <scstep>
   <time name="dav">   25.77   25.83</time>
   <time name="total">   79.20   79.47</time>
   <energy>
    <i name="e_fr_energy">    -33.92723255 </i>
    <i name="e_wo_entrp">    -33.92723255 </i>
    <i name="e_0_energy">    -33.92723255 </i>
   </energy>
  </scstep>
  <scstep>
   <time name="dav">   34.01   34.23</time>
   <time name="total">   87.62   87.87</time>
   <energy>
    <i name="e_fr_energy">    -33.92692193 </i>
    <i name="e_wo_entrp">    -33.92692193 </i>
    <i name="e_0_energy">    -33.92692193 </i>
   </energy>
  </scstep>
  <scstep>
   <time name="dav">   24.69   24.81</time>
   <time name="total">   75.90   76.05</time>
   <energy>
    <i name="alphaZ">     19.37297916 </i>
    <i name="ewald">   8767.88336688 </i>
    <i name="hartreedc"> -12218.37170546 </i>
    <i name="XCdc">   -119.47468713 </i>
    <i name="pawpsdc">   2562.09292463 </i>
    <i name="pawaedc">  -2429.86289228 </i>
    <i name="eentropy">      0.00000000 </i>
    <i name="bandstr">   -406.10911471 </i>
    <i name="atom">   3790.54222716 </i>
    <i name="e_fr_energy">    -33.92690176 </i>
    <i name="e_wo_entrp">    -33.92690176 </i>
    <i name="e_0_energy">    -33.92690176 </i>
   </energy>
  </scstep>
  <structure>
   <crystal>
    <varray name="basis" >
     <v>       6.62600725       0.00000001       0.00000000 </v>
     <v>       3.31300318       5.73829029       0.00000000 </v>
     <v>       0.00000000       0.00000000      22.59685542 </v>
    </varray>
    <i name="volume">    859.17657632 </i>
    <varray name="rec_basis" >
     <v>       0.15092045      -0.08713396      -0.00000000 </v>
     <v>      -0.00000000       0.17426794       0.00000000 </v>
     <v>      -0.00000000       0.00000000       0.04425395 </v>
    </varray>
   </crystal>
   <varray name="positions" >
    <v>       0.33333300       0.33333300       0.49992377 </v>
    <v>       0.66666700       0.66666700       0.50006804 </v>
    <v>       0.00000000      -0.00000000       0.44939618 </v>
    <v>      -0.00000000       0.00000000       0.55062759 </v>
    <v>       0.62635700       0.00042000       0.57375200 </v>
    <v>       0.00042000       0.37322400       0.57375200 </v>
    <v>       0.37322400       0.62635700       0.57375200 </v>
    <v>       0.37364300       0.99958000       0.42624800 </v>
    <v>       0.99958000       0.62677600       0.42624800 </v>
    <v>       0.62677600       0.37364300       0.42624800 </v>
   </varray>
  </structure>
  <varray name="forces" >
   <v>       0.00000000       0.00000000       0.03442705 </v>
   <v>       0.00000000       0.00000000       0.03823817 </v>
   <v>       0.00000000       0.00000000      -0.01725214 </v>
   <v>       0.00000000       0.00000000       0.12267892 </v>
   <v>      -0.14156134      -0.00476685      -0.19258999 </v>
   <v>       0.06665245       0.12497913      -0.19258999 </v>
   <v>       0.07490889      -0.12021229      -0.19258999 </v>
   <v>      -0.00556942       0.00981429       0.13322599 </v>
   <v>       0.01128413      -0.00008388       0.13322599 </v>
   <v>      -0.00571471      -0.00973040       0.13322599 </v>
  </varray>
  <varray name="stress" >
   <v>       3.82457346      -0.00000035       0.00000000 </v>
   <v>      -0.00000023       3.82457304      -0.00000000 </v>
   <v>       0.00000000       0.00000000      -2.19339816 </v>
  </varray>
  <energy>
   <i name="e_fr_energy">    -33.92690176 </i>
   <i name="e_wo_entrp">    -33.92690176 </i>
   <i name="e_0_energy">      0.00000000 </i>
  </energy>
  <time name="totalsc">  695.38  697.75</time>
 </calculation>
 <calculation>
  <scstep>
   <time name="dav">   27.11   27.38</time>
   <time name="total">   80.54   81.03</time>
   <energy>
    <i name="alphaZ">     19.31057891 </i>
    <i name="ewald">   8756.03464400 </i>
    <i name="hartreedc"> -12203.01473195 </i>
    <i name="XCdc">   -119.61955056 </i>
    <i name="pawpsdc">   2561.63062522 </i>
    <i name="pawaedc">  -2429.37716958 </i>
    <i name="eentropy">      0.00000000 </i>
    <i name="bandstr">   -409.44303437 </i>
    <i name="atom">   3790.54222716 </i>
    <i name="e_fr_energy">    -33.93641116 </i>
    <i name="e_wo_entrp">    -33.93641116 </i>
    <i name="e_0_energy">    -33.93641116 </i>
   </energy>
  </scstep>
  <scstep>
   <time name="dav">   24.76   24.91</time>
   <time name="total">   78.12   78.48</time>
   <energy>
    <i name="e_fr_energy">    -33.98034894 </i>
    <i name="e_wo_entrp">    -33.98034894 </i>
    <i name="e_0_energy">    -33.98034894 </i>
   </energy>
  </scstep>
  <scstep>
   <time name="dav">   25.64   25.71</time>
   <time name="total">   78.82   79.18</time>
   <energy>
    <i name="e_fr_energy">    -33.92911690 </i>
    <i name="e_wo_entrp">    -33.92911690 </i>
    <i name="e_0_energy">    -33.92911690 </i>
   </energy>
  </scstep>
  <scstep>
   <time name="dav">   30.58   30.74</time>
   <time name="total">   83.98   84.31</time>
   <energy>
    <i name="e_fr_energy">    -33.93059609 </i>
    <i name="e_wo_entrp">    -33.93059609 </i>
    <i name="e_0_energy">    -33.93059609 </i>
   </energy>
  </scstep>
  <scstep>
   <time name="dav">   25.81   25.99</time>
   <time name="total">   78.95   79.59</time>
   <energy>
    <i name="e_fr_energy">    -33.92888049 </i>
    <i name="e_wo_entrp">    -33.92888049 </i>
    <i name="e_0_energy">    -33.92888049 </i>
   </energy>
  </scstep>
  <scstep>
   <time name="dav">   21.20   21.33</time>
   <time name="total">   72.33   72.58</time>
   <energy>
    <i name="alphaZ">     19.31057891 </i>
    <i name="ewald">   8756.03464400 </i>
    <i name="hartreedc"> -12205.46175556 </i>
    <i name="XCdc">   -119.53837356 </i>
    <i name="pawpsdc">   2560.18669967 </i>
    <i name="pawaedc">  -2427.93976774 </i>
    <i name="eentropy">      0.00000000 </i>
    <i name="bandstr">   -407.06321909 </i>
    <i name="atom">   3790.54222716 </i>
    <i name="e_fr_energy">    -33.92896621 </i>
    <i name="e_wo_entrp">    -33.92896621 </i>
    <i name="e_0_energy">    -33.92896621 </i>
   </energy>
  </scstep>
  <structure>
   <crystal>
    <varray name="basis" >
     <v>       6.63342808       0.00000001       0.00000000 </v>
     <v>       3.31671359       5.74471691       0.00000000 </v>
     <v>       0.00000000       0.00000000      22.61918171 </v>
    </varray>
    <i name="volume">    861.95292166 </i>
    <varray name="rec_basis" >
     <v>       0.15075162      -0.08703648      -0.00000000 </v>
     <v>      -0.00000000       0.17407298       0.00000000 </v>
     <v>      -0.00000000       0.00000000       0.04421026 </v>
    </varray>
   </crystal>
   <varray name="positions" >
    <v>       0.33333300       0.33333300       0.49992380 </v>
    <v>       0.66666700       0.66666700       0.50006824 </v>
    <v>       0.00000000      -0.00000000       0.44936359 </v>
    <v>      -0.00000000       0.00000000       0.55065952 </v>
    <v>       0.62635700       0.00042000       0.57375200 </v>
    <v>       0.00042000       0.37322400       0.57375200 </v>
    <v>       0.37322400       0.62635700       0.57375200 </v>
    <v>       0.37364300       0.99958000       0.42624800 </v>
    <v>       0.99958000       0.62677600       0.42624800 </v>
    <v>       0.62677600       0.37364300       0.42624800 </v>
   </varray>
  </structure>
  <varray name="forces" >
   <v>       0.00000000       0.00000000       0.03459076 </v>
   <v>       0.00000000       0.00000000       0.03691719 </v>
   <v>       0.00000000       0.00000000       0.00304287 </v>
   <v>       0.00000000       0.00000000       0.10204860 </v>
   <v>      -0.13451438      -0.00328366      -0.21162863 </v>
   <v>       0.06441345       0.11813469      -0.21162863 </v>
   <v>       0.07010093      -0.11485104      -0.21162863 </v>
   <v>      -0.01427136       0.00973887       0.15276216 </v>
   <v>       0.01556978       0.00748993       0.15276216 </v>
   <v>      -0.00129842      -0.01722879       0.15276216 </v>
  </varray>
  <varray name="stress" >
   <v>       2.59160345      -0.00000034       0.00000000 </v>
   <v>      -0.00000005       2.59160316      -0.00000000 </v>
   <v>       0.00000000       0.00000000      -3.13654827 </v>
  </varray>
  <energy>
   <i name="e_fr_energy">    -33.92896621 </i>
   <i name="e_wo_entrp">    -33.92896621 </i>
   <i name="e_0_energy">      0.00000000 </i>
  </energy>
  <time name="totalsc">  606.52  609.66</time>
 </calculation>
 <calculation>
  <scstep>
   <time name="dav">   28.34   28.40</time>
   <time name="total">   81.71   81.91</time>
   <energy>
    <i name="alphaZ">     19.39624821 </i>
    <i name="ewald">   8549.32870092 </i>
    <i name="hartreedc"> -12015.26956166 </i>
    <i name="XCdc">   -119.32855990 </i>
    <i name="pawpsdc">   2560.00474676 </i>
    <i name="pawaedc">  -2427.74363746 </i>
    <i name="eentropy">      0.00000000 </i>
    <i name="bandstr">   -390.93783269 </i>
    <i name="atom">   3790.54222716 </i>
    <i name="e_fr_energy">    -34.00766866 </i>
    <i name="e_wo_entrp">    -34.00766866 </i>
    <i name="e_0_energy">    -34.00766866 </i>
   </energy>
  </scstep>
  <scstep>
   <time name="dav">   24.67   24.90</time>
   <time name="total">   78.00   78.35</time>
   <energy>
    <i name="e_fr_energy">    -34.09079820 </i>
    <i name="e_wo_entrp">    -34.09079820 </i>
    <i name="e_0_energy">    -34.09079820 </i>
   </energy>
  </scstep>
  <scstep>
   <time name="dav">   27.04   27.36</time>
   <time name="total">   80.00   80.85</time>
   <energy>
    <i name="e_fr_energy">    -33.96133061 </i>
    <i name="e_wo_entrp">    -33.96133061 </i>
    <i name="e_0_energy">    -33.96133061 </i>
   </energy>
  </scstep>
  <scstep>
   <time name="dav">   25.32   25.53</time>
   <time name="total">   78.68   79.17</time>
   <energy>
    <i name="e_fr_energy">    -33.94710112 </i>
    <i name="e_wo_entrp">    -33.94710112 </i>
    <i name="e_0_energy">    -33.94710112 </i>
   </energy>
  </scstep>
  <scstep>
   <time name="dav">   26.96   27.01</time>
   <time name="total">   80.26   80.57</time>
   <energy>
    <i name="e_fr_energy">    -33.94771399 </i>
    <i name="e_wo_entrp">    -33.94771399 </i>
    <i name="e_0_energy">    -33.94771399 </i>
   </energy>
  </scstep>
  <scstep>
   <time name="dav">   27.37   27.57</time>
   <time name="total">   80.64   81.00</time>
   <energy>
    <i name="e_fr_energy">    -33.94652978 </i>
    <i name="e_wo_entrp">    -33.94652978 </i>
    <i name="e_0_energy">    -33.94652978 </i>
   </energy>
  </scstep>
  <scstep>
   <time name="dav">   24.63   24.67</time>
   <time name="total">   77.94   78.21</time>
   <energy>
    <i name="e_fr_energy">    -33.94690514 </i>
    <i name="e_wo_entrp">    -33.94690514 </i>
    <i name="e_0_energy">    -33.94690514 </i>
   </energy>
  </scstep>
  <scstep>
   <time name="dav">   24.95   25.12</time>
   <time name="total">   78.51   78.83</time>
   <energy>
    <i name="e_fr_energy">    -33.94753490 </i>
    <i name="e_wo_entrp">    -33.94753490 </i>
    <i name="e_0_energy">    -33.94753490 </i>
   </energy>
  </scstep>
  <scstep>
   <time name="dav">   23.75   23.85</time>
   <time name="total">   77.09   77.37</time>
   <energy>
    <i name="e_fr_energy">    -33.94827370 </i>
    <i name="e_wo_entrp">    -33.94827370 </i>
    <i name="e_0_energy">    -33.94827370 </i>
   </energy>
  </scstep>
  <scstep>
   <time name="dav">   24.50   24.64</time>
   <time name="total">   77.69   78.00</time>
   <energy>
    <i name="e_fr_energy">    -33.94913875 </i>
    <i name="e_wo_entrp">    -33.94913875 </i>
    <i name="e_0_energy">    -33.94913875 </i>
   </energy>
  </scstep>
  <scstep>
   <time name="dav">   24.18   24.43</time>
   <time name="total">   77.36   77.88</time>
   <energy>
    <i name="e_fr_energy">    -33.94957494 </i>
    <i name="e_wo_entrp">    -33.94957494 </i>
    <i name="e_0_energy">    -33.94957494 </i>
   </energy>
  </scstep>
  <scstep>
   <time name="dav">   23.03   23.08</time>
   <time name="total">   76.33   76.60</time>
   <energy>
    <i name="e_fr_energy">    -33.94974107 </i>
    <i name="e_wo_entrp">    -33.94974107 </i>
    <i name="e_0_energy">    -33.94974107 </i>
   </energy>
  </scstep>
  <scstep>
   <time name="dav">   22.09   22.37</time>
   <time name="total">   75.34   75.95</time>
   <energy>
    <i name="e_fr_energy">    -33.94960121 </i>
    <i name="e_wo_entrp">    -33.94960121 </i>
    <i name="e_0_energy">    -33.94960121 </i>
   </energy>
  </scstep>
  <scstep>
   <time name="dav">   20.00   20.06</time>
   <time name="total">   73.14   73.47</time>
   <energy>
    <i name="e_fr_energy">    -33.94948023 </i>
    <i name="e_wo_entrp">    -33.94948023 </i>
    <i name="e_0_energy">    -33.94948023 </i>
   </energy>
  </scstep>
  <scstep>
   <time name="dav">   21.73   21.86</time>
   <time name="total">   72.56   73.03</time>
   <energy>
    <i name="alphaZ">     19.39624821 </i>
    <i name="ewald">   8549.32870092 </i>
    <i name="hartreedc"> -11999.21372167 </i>
    <i name="XCdc">   -119.52462092 </i>
    <i name="pawpsdc">   2561.80129538 </i>
    <i name="pawaedc">  -2429.58207357 </i>
    <i name="eentropy">      0.00000000 </i>
    <i name="bandstr">   -406.69760396 </i>
    <i name="atom">   3790.54222716 </i>
    <i name="e_fr_energy">    -33.94954847 </i>
    <i name="e_wo_entrp">    -33.94954847 </i>
    <i name="e_0_energy">    -33.94954847 </i>
   </energy>
  </scstep>
  <structure>
   <crystal>
    <varray name="basis" >
     <v>       6.65458732       0.00000001       0.00000000 </v>
     <v>       3.32729321       5.76304135       0.00000000 </v>
     <v>       0.00000000       0.00000000      22.37629830 </v>
    </varray>
    <i name="volume">    858.14585011 </i>
    <varray name="rec_basis" >
     <v>       0.15027228      -0.08675973      -0.00000000 </v>
     <v>      -0.00000000       0.17351949      -0.00000000 </v>
     <v>      -0.00000000       0.00000000       0.04469014 </v>
    </varray>
   </crystal>
   <varray name="positions" >
    <v>       0.33333300       0.33333300       0.49999466 </v>
    <v>       0.66666700       0.66666700       0.50014339 </v>
    <v>       0.00000000       0.00000000       0.44946923 </v>
    <v>       0.00000000       0.00000000       0.55077148 </v>
    <v>       0.62635700       0.00042000       0.57375200 </v>
    <v>       0.00042000       0.37322400       0.57375200 </v>
    <v>       0.37322400       0.62635700       0.57375200 </v>
    <v>       0.37364300       0.99958000       0.42624800 </v>
    <v>       0.99958000       0.62677600       0.42624800 </v>
    <v>       0.62677600       0.37364300       0.42624800 </v>
   </varray>
  </structure>
  <varray name="forces" >
   <v>      -0.00000000      -0.00000000       0.03252770 </v>
   <v>      -0.00000000      -0.00000000       0.03602459 </v>
   <v>      -0.00000000      -0.00000000      -0.21316920 </v>
   <v>      -0.00000000      -0.00000000       0.33040893 </v>
   <v>      -0.14299188      -0.00391308      -0.15718893 </v>
   <v>       0.06810710       0.12579113      -0.15718893 </v>
   <v>       0.07488477      -0.12187805      -0.15718893 </v>
   <v>      -0.04383846       0.00829135       0.09525826 </v>
   <v>       0.02909975       0.03381954       0.09525826 </v>
   <v>       0.01473871      -0.04211089       0.09525826 </v>
  </varray>
[...]
        <r>  0.0016  0.0200  0.0035  0.0070  0.0001  0.0000  0.0002  0.0000  0.0000 </r>
        <r>  0.0066  0.0207  0.0612  0.0004  0.0004  0.0000  0.0013  0.0000  0.0001 </r>
        <r>  0.0014  0.0104  0.0073  0.0127  0.0001  0.0000  0.0002  0.0001  0.0001 </r>
       </set>
       <set comment="band 30">
        <r>  0.0012  0.0049  0.0048  0.0112  0.0244  0.0043  0.0465  0.0037  0.0115 </r>
        <r>  0.0007  0.0049  0.0039  0.0080  0.0079  0.0103  0.2034  0.0053  0.0175 </r>
        <r>  0.0000  0.0012  0.0000  0.0044  0.0000  0.0000  0.0000  0.0000  0.0000 </r>
        <r>  0.0001  0.0010  0.0001  0.0028  0.0000  0.0000  0.0000  0.0000  0.0000 </r>
        <r>  0.0009  0.0181  0.0205  0.0000  0.0003  0.0001  0.0002  0.0000  0.0000 </r>
        <r>  0.0001  0.0175  0.0012  0.0451  0.0001  0.0000  0.0000  0.0002  0.0003 </r>
        <r>  0.0007  0.0025  0.0234  0.0117  0.0000  0.0001  0.0002  0.0000  0.0001 </r>
        <r>  0.0011  0.0123  0.0288  0.0008  0.0002  0.0001  0.0003  0.0000  0.0000 </r>
        <r>  0.0001  0.0129  0.0009  0.0540  0.0001  0.0001  0.0000  0.0002  0.0002 </r>
        <r>  0.0010  0.0085  0.0248  0.0111  0.0002  0.0001  0.0002  0.0001  0.0001 </r>
       </set>
       <set comment="band 31">
        <r>  0.0000  0.0059  0.0103  0.0056  0.0093  0.0063  0.0047  0.0090  0.0354 </r>
        <r>  0.0001  0.0060  0.0090  0.0045  0.0241  0.0102  0.0079  0.0217  0.0491 </r>
        <r>  0.0000  0.0015  0.0000  0.0021  0.0000  0.0000  0.0000  0.0000  0.0000 </r>
        <r>  0.0000  0.0002  0.0000  0.0018  0.0000  0.0000  0.0000  0.0000  0.0000 </r>
        <r>  0.0002  0.0286  0.0513  0.0001  0.0002  0.0001  0.0003  0.0000  0.0000 </r>
        <r>  0.0000  0.0046  0.0000  0.0131  0.0001  0.0000  0.0000  0.0001  0.0002 </r>
        <r>  0.0002  0.0062  0.0529  0.0258  0.0001  0.0000  0.0003  0.0001  0.0002 </r>
        <r>  0.0004  0.0367  0.0562  0.0004  0.0002  0.0002  0.0003  0.0000  0.0001 </r>
        <r>  0.0000  0.0028  0.0001  0.0110  0.0001  0.0001  0.0000  0.0001  0.0002 </r>
        <r>  0.0005  0.0068  0.0559  0.0269  0.0000  0.0001  0.0003  0.0001  0.0002 </r>
       </set>
       <set comment="band 32">
        <r>  0.0000  0.0000  0.0001  0.0004  0.0646  0.0262  0.0001  0.0572  0.0409 </r>
        <r>  0.0000  0.0001  0.0005  0.0003  0.0491  0.0120  0.0013  0.0202  0.0732 </r>
        <r>  0.0009  0.0007  0.0098  0.0009  0.0000  0.0000  0.0000  0.0000  0.0000 </r>
        <r>  0.0176  0.0018  0.0097  0.0001  0.0000  0.0000  0.0000  0.0000  0.0000 </r>
        <r>  0.0052  0.0046  0.0369  0.0226  0.0001  0.0003  0.0000  0.0005  0.0004 </r>
        <r>  0.0070  0.0129  0.0416  0.0018  0.0005  0.0002  0.0000  0.0001  0.0001 </r>
        <r>  0.0024  0.0166  0.0164  0.0100  0.0003  0.0001  0.0000  0.0005  0.0001 </r>
        <r>  0.0001  0.0019  0.0029  0.0020  0.0000  0.0002  0.0000  0.0005  0.0000 </r>
        <r>  0.0065  0.0064  0.0470  0.0001  0.0000  0.0005  0.0000  0.0001  0.0000 </r>
        <r>  0.0016  0.0026  0.0121  0.0063  0.0000  0.0002  0.0000  0.0004  0.0000 </r>
       </set>
       <set comment="band 33">
        <r>  0.0004  0.0002  0.0005  0.0003  0.0391  0.0843  0.0018  0.0926  0.0395 </r>
        <r>  0.0004  0.0008  0.0018  0.0003  0.0010  0.0244  0.0203  0.0373  0.0217 </r>
        <r>  0.0014  0.0016  0.0006  0.0055  0.0000  0.0000  0.0000  0.0000  0.0000 </r>
        <r>  0.0032  0.0025  0.0001  0.0065  0.0000  0.0000  0.0000  0.0000  0.0000 </r>
        <r>  0.0021  0.0083  0.0075  0.0034  0.0005  0.0002  0.0000  0.0001  0.0002 </r>
        <r>  0.0014  0.0018  0.0075  0.0147  0.0000  0.0001  0.0000  0.0011  0.0009 </r>
        <r>  0.0082  0.0034  0.0406  0.0327  0.0000  0.0002  0.0001  0.0004  0.0005 </r>
        <r>  0.0062  0.0261  0.0261  0.0160  0.0004  0.0002  0.0000  0.0001  0.0000 </r>
        <r>  0.0000  0.0057  0.0008  0.0050  0.0003  0.0001  0.0000  0.0008  0.0007 </r>
        <r>  0.0038  0.0012  0.0253  0.0258  0.0001  0.0001  0.0000  0.0004  0.0007 </r>
       </set>
       <set comment="band 34">
        <r>  0.0002  0.0002  0.0017  0.0007  0.0122  0.0003  0.0128  0.0206  0.0158 </r>
        <r>  0.0002  0.0000  0.0002  0.0001  0.0899  0.1248  0.0021  0.0588  0.0110 </r>
        <r>  0.0069  0.0011  0.0011  0.0009  0.0000  0.0000  0.0000  0.0000  0.0000 </r>
        <r>  0.0149  0.0022  0.0049  0.0022  0.0000  0.0000  0.0000  0.0000  0.0000 </r>
        <r>  0.0052  0.0189  0.0226  0.0256  0.0001  0.0006  0.0001  0.0001  0.0006 </r>
        <r>  0.0029  0.0239  0.0271  0.0036  0.0008  0.0005  0.0001  0.0000  0.0001 </r>
        <r>  0.0020  0.0125  0.0094  0.0009  0.0009  0.0002  0.0001  0.0003  0.0003 </r>
        <r>  0.0042  0.0039  0.0351  0.0055  0.0001  0.0003  0.0000  0.0006  0.0006 </r>
        <r>  0.0016  0.0003  0.0151  0.0059  0.0003  0.0002  0.0000  0.0001  0.0002 </r>
        <r>  0.0044  0.0188  0.0237  0.0039  0.0003  0.0005  0.0000  0.0002  0.0000 </r>
       </set>
       <set comment="band 35">
        <r>  0.0001  0.0006  0.0001  0.0001  0.0085  0.0755  0.0023  0.0100  0.0020 </r>
        <r>  0.0003  0.0005  0.0004  0.0004  0.0133  0.0190  0.0016  0.0252  0.0051 </r>
        <r>  0.0117  0.0014  0.0019  0.0004  0.0000  0.0000  0.0000  0.0000  0.0000 </r>
        <r>  0.0372  0.0029  0.0269  0.0028  0.0000  0.0000  0.0000  0.0000  0.0000 </r>
        <r>  0.0015  0.0149  0.0122  0.0484  0.0001  0.0001  0.0004  0.0003  0.0025 </r>
        <r>  0.0063  0.0395  0.0037  0.0234  0.0018  0.0000  0.0004  0.0003  0.0003 </r>
        <r>  0.0004  0.0243  0.0095  0.0220  0.0020  0.0003  0.0004  0.0000  0.0002 </r>
        <r>  0.0036  0.0170  0.0242  0.0027  0.0002  0.0002  0.0001  0.0001  0.0002 </r>
        <r>  0.0052  0.0299  0.0147  0.0056  0.0008  0.0006  0.0000  0.0001  0.0001 </r>
        <r>  0.0022  0.0007  0.0235  0.0142  0.0004  0.0002  0.0001  0.0001  0.0002 </r>
       </set>
       <set comment="band 36">
        <r>  0.0014  0.0005  0.0007  0.0007  0.0011  0.0217  0.0001  0.0503  0.0080 </r>
        <r>  0.0012  0.0005  0.0005  0.0004  0.0050  0.0539  0.0002  0.1323  0.0212 </r>
        <r>  0.0020  0.0007  0.0004  0.0018  0.0000  0.0000  0.0000  0.0000  0.0000 </r>
        <r>  0.0030  0.0018  0.0022  0.0015  0.0000  0.0000  0.0000  0.0000  0.0000 </r>
        <r>  0.0014  0.0430  0.0014  0.0002  0.0006  0.0002  0.0001  0.0000  0.0003 </r>
        <r>  0.0004  0.0187  0.0002  0.0296  0.0002  0.0004  0.0000  0.0006  0.0014 </r>
        <r>  0.0025  0.0070  0.0052  0.0604  0.0002  0.0000  0.0001  0.0005  0.0011 </r>
        <r>  0.0014  0.0502  0.0026  0.0006  0.0005  0.0001  0.0000  0.0002  0.0005 </r>
        <r>  0.0010  0.0100  0.0023  0.0498  0.0001  0.0001  0.0000  0.0010  0.0015 </r>
        <r>  0.0036  0.0071  0.0067  0.0479  0.0000  0.0000  0.0001  0.0001  0.0006 </r>
       </set>
       <set comment="band 37">
        <r>  0.0021  0.0001  0.0002  0.0013  0.0074  0.0140  0.0003  0.0118  0.0044 </r>
        <r>  0.0017  0.0008  0.0002  0.0007  0.0075  0.0265  0.0004  0.0059  0.0049 </r>
        <r>  0.0998  0.0009  0.0352  0.0003  0.0000  0.0000  0.0000  0.0000  0.0000 </r>
        <r>  0.0001  0.0022  0.0240  0.0005  0.0000  0.0000  0.0000  0.0000  0.0000 </r>
        <r>  0.0006  0.0005  0.0160  0.0042  0.0002  0.0001  0.0004  0.0001  0.0003 </r>
        <r>  0.0003  0.0015  0.0046  0.0006  0.0000  0.0007  0.0002  0.0002  0.0000 </r>
        <r>  0.0006  0.0043  0.0156  0.0012  0.0005  0.0001  0.0004  0.0002  0.0000 </r>
        <r>  0.0046  0.0038  0.0035  0.0656  0.0005  0.0002  0.0017  0.0002  0.0054 </r>
        <r>  0.0030  0.0508  0.0000  0.0172  0.0055  0.0002  0.0006  0.0001  0.0017 </r>
        <r>  0.0046  0.0357  0.0034  0.0308  0.0055  0.0003  0.0018  0.0001  0.0005 </r>
       </set>
       <set comment="band 38">
        <r>  0.0301  0.0004  0.0014  0.0010  0.0058  0.0018  0.0017  0.0028  0.0043 </r>
        <r>  0.0299  0.0003  0.0015  0.0010  0.0043  0.0008  0.0019  0.0049  0.0070 </r>
        <r>  0.0021  0.0114  0.0011  0.0039  0.0000  0.0000  0.0000  0.0000  0.0000 </r>
        <r>  0.0006  0.0709  0.0006  0.0244  0.0000  0.0000  0.0000  0.0000  0.0000 </r>
        <r>  0.0029  0.0016  0.0025  0.0135  0.0072  0.0012  0.0002  0.0008  0.0019 </r>
        <r>  0.0183  0.0746  0.0036  0.0247  0.0044  0.0016  0.0016  0.0005  0.0015 </r>
        <r>  0.0027  0.0072  0.0024  0.0073  0.0045  0.0009  0.0002  0.0010  0.0046 </r>
        <r>  0.0006  0.0008  0.0004  0.0079  0.0017  0.0013  0.0000  0.0005  0.0010 </r>
        <r>  0.0039  0.0077  0.0005  0.0027  0.0004  0.0014  0.0005  0.0005  0.0001 </r>
        <r>  0.0006  0.0061  0.0003  0.0024  0.0015  0.0006  0.0000  0.0012  0.0012 </r>
       </set>
       <set comment="band 39">
        <r>  0.0286  0.0033  0.0010  0.0023  0.0099  0.0012  0.0016  0.0068  0.0029 </r>
        <r>  0.0286  0.0043  0.0010  0.0013  0.0083  0.0097  0.0018  0.0008  0.0065 </r>
        <r>  0.0000  0.0031  0.0000  0.0091  0.0000  0.0000  0.0000  0.0000  0.0000 </r>
        <r>  0.0000  0.0185  0.0000  0.0538  0.0000  0.0000  0.0000  0.0000  0.0000 </r>
        <r>  0.0087  0.0232  0.0005  0.0661  0.0030  0.0004  0.0011  0.0016  0.0032 </r>
        <r>  0.0000  0.0047  0.0000  0.0151  0.0022  0.0002  0.0000  0.0006  0.0065 </r>
        <r>  0.0088  0.0885  0.0006  0.0003  0.0023  0.0014  0.0011  0.0006  0.0037 </r>
        <r>  0.0025  0.0077  0.0000  0.0120  0.0013  0.0007  0.0006  0.0012  0.0007 </r>
        <r>  0.0000  0.0004  0.0000  0.0013  0.0005  0.0003  0.0000  0.0009  0.0016 </r>
        <r>  0.0026  0.0187  0.0000  0.0019  0.0008  0.0012  0.0006  0.0007  0.0012 </r>
       </set>
       <set comment="band 40">
        <r>  0.0190  0.0007  0.0038  0.0005  0.0010  0.0008  0.0040  0.0012  0.0024 </r>
        <r>  0.0191  0.0001  0.0037  0.0011  0.0011  0.0005  0.0045  0.0015  0.0023 </r>
        <r>  0.0017  0.0567  0.0030  0.0188  0.0000  0.0000  0.0000  0.0000  0.0000 </r>
        <r>  0.0008  0.0279  0.0024  0.0096  0.0000  0.0000  0.0000  0.0000  0.0000 </r>
        <r>  0.0002  0.0049  0.0013  0.0022  0.0031  0.0017  0.0005  0.0004  0.0007 </r>
        <r>  0.0070  0.0155  0.0009  0.0051  0.0007  0.0013  0.0012  0.0004  0.0002 </r>
        <r>  0.0003  0.0001  0.0013  0.0071  0.0024  0.0001  0.0005  0.0021  0.0015 </r>
        <r>  0.0022  0.0006  0.0020  0.0021  0.0122  0.0005  0.0003  0.0008  0.0023 </r>
        <r>  0.0229  0.0348  0.0029  0.0116  0.0050  0.0004  0.0018  0.0001  0.0018 </r>
        <r>  0.0024  0.0010  0.0021  0.0018  0.0066  0.0011  0.0003  0.0003  0.0079 </r>
       </set>
       <set comment="band 41">
        <r>  0.0117  0.0019  0.0030  0.0000  0.0004  0.0067  0.0024  0.0024  0.0036 </r>
        <r>  0.0106  0.0005  0.0028  0.0014  0.0025  0.0051  0.0026  0.0054  0.0016 </r>
        <r>  0.0000  0.0154  0.0000  0.0464  0.0000  0.0000  0.0000  0.0000  0.0000 </r>
        <r>  0.0000  0.0072  0.0000  0.0209  0.0000  0.0000  0.0000  0.0000  0.0000 </r>
        <r>  0.0025  0.0083  0.0014  0.0115  0.0011  0.0007  0.0015  0.0011  0.0012 </r>
        <r>  0.0000  0.0034  0.0000  0.0098  0.0010  0.0005  0.0000  0.0016  0.0030 </r>
        <r>  0.0026  0.0188  0.0014  0.0008  0.0004  0.0013  0.0015  0.0004  0.0019 </r>
        <r>  0.0105  0.0181  0.0015  0.0320  0.0038  0.0001  0.0014  0.0006  0.0051 </r>
        <r>  0.0000  0.0033  0.0000  0.0102  0.0040  0.0000  0.0000  0.0001  0.0119 </r>
        <r>  0.0103  0.0495  0.0014  0.0008  0.0029  0.0006  0.0013  0.0001  0.0060 </r>
       </set>
       <set comment="band 42">
        <r>  0.0000  0.0030  0.0004  0.0020  0.0040  0.0012  0.0003  0.0029  0.0044 </r>
        <r>  0.0000  0.0039  0.0004  0.0009  0.0045  0.0027  0.0003  0.0026  0.0051 </r>
        <r>  0.0196  0.0018  0.0785  0.0007  0.0000  0.0000  0.0000  0.0000  0.0000 </r>
        <r>  0.0172  0.0005  0.0515  0.0002  0.0000  0.0000  0.0000  0.0000  0.0000 </r>
        <r>  0.0015  0.0002  0.0070  0.0003  0.0001  0.0007  0.0006  0.0049  0.0000 </r>
        <r>  0.0008  0.0010  0.0204  0.0003  0.0002  0.0022  0.0009  0.0008  0.0001 </r>
        <r>  0.0015  0.0004  0.0071  0.0000  0.0000  0.0053  0.0006  0.0003  0.0001 </r>
        <r>  0.0011  0.0002  0.0134  0.0003  0.0003  0.0006  0.0002  0.0068  0.0001 </r>
        <r>  0.0002  0.0035  0.0267  0.0012  0.0006  0.0043  0.0007  0.0014  0.0002 </r>
        <r>  0.0011  0.0006  0.0133  0.0000  0.0000  0.0066  0.0002  0.0009  0.0004 </r>
       </set>
       <set comment="band 43">
        <r>  0.0480  0.0035  0.0023  0.0048  0.0011  0.0008  0.0027  0.0006  0.0025 </r>
        <r>  0.0464  0.0043  0.0023  0.0038  0.0015  0.0013  0.0026  0.0003  0.0024 </r>
        <r>  0.0011  0.0168  0.0023  0.0053  0.0000  0.0000  0.0000  0.0000  0.0000 </r>
        <r>  0.0009  0.0138  0.0016  0.0049  0.0000  0.0000  0.0000  0.0000  0.0000 </r>
        <r>  0.0005  0.0106  0.0014  0.0027  0.0008  0.0121  0.0005  0.0012  0.0004 </r>
        <r>  0.0014  0.0095  0.0145  0.0030  0.0013  0.0007  0.0047  0.0002  0.0005 </r>
        <r>  0.0004  0.0012  0.0015  0.0122  0.0004  0.0068  0.0004  0.0066  0.0008 </r>
        <r>  0.0001  0.0115  0.0005  0.0017  0.0020  0.0160  0.0005  0.0006  0.0005 </r>
        <r>  0.0025  0.0086  0.0166  0.0031  0.0002  0.0027  0.0022  0.0009  0.0001 </r>
        <r>  0.0001  0.0007  0.0005  0.0126  0.0018  0.0060  0.0006  0.0107  0.0007 </r>
       </set>
       <set comment="band 44">
        <r>  0.0205  0.0013  0.0018  0.0006  0.0032  0.0001  0.0001  0.0001  0.0044 </r>
        <r>  0.0003  0.0044  0.0216  0.0022  0.0006  0.0002  0.0012  0.0001  0.0001 </r>
        <r>  0.0000  0.0016  0.0014  0.0067  0.0000  0.0000  0.0000  0.0000  0.0000 </r>
        <r>  0.0001  0.0074  0.0007  0.0007  0.0000  0.0000  0.0000  0.0000  0.0000 </r>
        <r>  0.0026  0.0031  0.0128  0.0012  0.0019  0.0005  0.0014  0.0006  0.0004 </r>
        <r>  0.0002  0.0022  0.0028  0.0022  0.0043  0.0102  0.0016  0.0014  0.0003 </r>
        <r>  0.0006  0.0022  0.0003  0.0024  0.0007  0.0001  0.0025  0.0106  0.0046 </r>
        <r>  0.0004  0.0000  0.0012  0.0029  0.0038  0.0059  0.0009  0.0026  0.0015 </r>
        <r>  0.0012  0.0016  0.0013  0.0028  0.0013  0.0031  0.0034  0.0079  0.0036 </r>
        <r>  0.0014  0.0013  0.0123  0.0026  0.0021  0.0009  0.0012  0.0007  0.0005 </r>
       </set>
       <set comment="band 45">
        <r>  0.0004  0.0041  0.0213  0.0033  0.0001  0.0003  0.0013  0.0001  0.0006 </r>
        <r>  0.0207  0.0014  0.0013  0.0005  0.0025  0.0002  0.0001  0.0001  0.0055 </r>
        <r>  0.0000  0.0074  0.0012  0.0003  0.0000  0.0000  0.0000  0.0000  0.0000 </r>
        <r>  0.0002  0.0009  0.0005  0.0072  0.0000  0.0000  0.0000  0.0000  0.0000 </r>
        <r>  0.0006  0.0008  0.0005  0.0038  0.0040  0.0081  0.0026  0.0026  0.0013 </r>
        <r>  0.0002  0.0006  0.0028  0.0041  0.0021  0.0019  0.0013  0.0096  0.0024 </r>
        <r>  0.0027  0.0037  0.0127  0.0009  0.0009  0.0010  0.0016  0.0001  0.0013 </r>
        <r>  0.0014  0.0035  0.0123  0.0004  0.0014  0.0001  0.0012  0.0017  0.0011 </r>
        <r>  0.0012  0.0012  0.0014  0.0033  0.0043  0.0070  0.0031  0.0039  0.0004 </r>
        <r>  0.0004  0.0020  0.0015  0.0008  0.0002  0.0005  0.0010  0.0081  0.0050 </r>
       </set>
       <set comment="band 46">
        <r>  0.0009  0.0022  0.0003  0.0036  0.0000  0.0011  0.0010  0.0005  0.0001 </r>
        <r>  0.0007  0.0009  0.0002  0.0051  0.0000  0.0010  0.0013  0.0009  0.0001 </r>
        <r>  0.0019  0.0020  0.0041  0.0007  0.0000  0.0000  0.0000  0.0000  0.0000 </r>
        <r>  0.0007  0.0006  0.0039  0.0002  0.0000  0.0000  0.0000  0.0000  0.0000 </r>
        <r>  0.0008  0.0003  0.0037  0.0020  0.0007  0.0008  0.0006  0.0009  0.0002 </r>
        <r>  0.0043  0.0049  0.0047  0.0014  0.0002  0.0004  0.0046  0.0002  0.0001 </r>
        <r>  0.0007  0.0016  0.0037  0.0004  0.0000  0.0002  0.0006  0.0014  0.0009 </r>
        <r>  0.0002  0.0001  0.0023  0.0022  0.0001  0.0005  0.0007  0.0009  0.0001 </r>
        <r>  0.0039  0.0040  0.0058  0.0016  0.0002  0.0011  0.0049  0.0004  0.0001 </r>
        <r>  0.0002  0.0022  0.0023  0.0003  0.0000  0.0003  0.0007  0.0010  0.0001 </r>
       </set>
       <set comment="band 47">
        <r>  0.0042  0.0010  0.0003  0.0008  0.0001  0.0000  0.0039  0.0000  0.0002 </r>
        <r>  0.0049  0.0006  0.0003  0.0015  0.0002  0.0000  0.0041  0.0000  0.0001 </r>
        <r>  0.0000  0.0005  0.0000  0.0018  0.0000  0.0000  0.0000  0.0000  0.0000 </r>
        <r>  0.0000  0.0008  0.0000  0.0021  0.0000  0.0000  0.0000  0.0000  0.0000 </r>
        <r>  0.0030  0.0004  0.0007  0.0037  0.0000  0.0001  0.0036  0.0003  0.0004 </r>
        <r>  0.0000  0.0004  0.0000  0.0016  0.0001  0.0000  0.0000  0.0001  0.0002 </r>
        <r>  0.0032  0.0030  0.0008  0.0011  0.0003  0.0001  0.0037  0.0003  0.0001 </r>
        <r>  0.0038  0.0012  0.0029  0.0028  0.0001  0.0000  0.0066  0.0000  0.0003 </r>
        <r>  0.0000  0.0006  0.0000  0.0016  0.0002  0.0001  0.0000  0.0003  0.0007 </r>
        <r>  0.0037  0.0034  0.0026  0.0006  0.0001  0.0000  0.0064  0.0001  0.0003 </r>
       </set>
       <set comment="band 48">
        <r>  0.0023  0.0004  0.0042  0.0003  0.0004  0.0005  0.0002  0.0002  0.0003 </r>
        <r>  0.0007  0.0005  0.0037  0.0003  0.0001  0.0004  0.0002  0.0002  0.0007 </r>
        <r>  0.0036  0.0002  0.0187  0.0000  0.0000  0.0000  0.0000  0.0000  0.0000 </r>
        <r>  0.0029  0.0046  0.0179  0.0015  0.0000  0.0000  0.0000  0.0000  0.0000 </r>
        <r>  0.0004  0.0013  0.0003  0.0013  0.0035  0.0006  0.0008  0.0017  0.0013 </r>
        <r>  0.0008  0.0020  0.0054  0.0004  0.0040  0.0007  0.0013  0.0002  0.0016 </r>
        <r>  0.0003  0.0002  0.0001  0.0029  0.0005  0.0015  0.0008  0.0009  0.0044 </r>
        <r>  0.0009  0.0008  0.0001  0.0008  0.0018  0.0004  0.0024  0.0008  0.0003 </r>
        <r>  0.0006  0.0006  0.0046  0.0000  0.0009  0.0000  0.0000  0.0001  0.0003 </r>
        <r>  0.0009  0.0007  0.0000  0.0011  0.0005  0.0006  0.0023  0.0007  0.0016 </r>
       </set>
      </set>
     </set>
    </set>
   </array>
  </projected>
 </calculation>
 <structure name="finalpos" >
  <crystal>
   <varray name="basis" >
    <v>       6.71904523      -0.00000010      -0.00000000 </v>
    <v>       3.35952224       5.81886348      -0.00000000 </v>
    <v>      -0.00000000       0.00000000      21.75227623 </v>
   </varray>
   <i name="volume">    850.45325105 </i>
   <varray name="rec_basis" >
    <v>       0.14883067      -0.08592742       0.00000000 </v>
    <v>       0.00000000       0.17185486      -0.00000000 </v>
    <v>       0.00000000       0.00000000       0.04597220 </v>
   </varray>
  </crystal>
  <varray name="positions" >
   <v>       0.33333300       0.33333300       0.50037903 </v>
   <v>       0.66666700       0.66666700       0.50056302 </v>
   <v>       0.00000000       0.00000000       0.44834057 </v>
   <v>       0.00000000       0.00000000       0.55382382 </v>
   <v>       0.62635700       0.00042000       0.57375200 </v>
   <v>       0.00042000       0.37322400       0.57375200 </v>
   <v>       0.37322400       0.62635700       0.57375200 </v>
   <v>       0.37364300       0.99958000       0.42624800 </v>
   <v>       0.99958000       0.62677600       0.42624800 </v>
   <v>       0.62677600       0.37364300       0.42624800 </v>
  </varray>
  <varray name="selective"  type="logical" >
   <v type="logical" >  T  T  T </v>
   <v type="logical" >  T  T  T </v>
   <v type="logical" >  T  T  T </v>
   <v type="logical" >  T  T  T </v>
   <v type="logical" >  F  F  F </v>
   <v type="logical" >  F  F  F </v>
   <v type="logical" >  F  F  F </v>
   <v type="logical" >  F  F  F </v>
   <v type="logical" >  F  F  F </v>
   <v type="logical" >  F  F  F </v>
  </varray>
  <nose>
   <v>      -3.00000000       0.00000000       0.00010000       0.00010000 </v>
  </nose>
 </structure>
</modeling>
