unknown system                          
           1
     6.907777   -0.000000    0.000000
     3.453888    5.982310    0.000000
     0.000000    0.000000   23.444588
   Ni   Si   P    Te
   2   1   1   6
Direct configuration=     1
   0.33333300  0.33333300  0.49992500
   0.66666700  0.66666700  0.50007500
   0.00000000  0.00000000  0.44821600
   0.00000000  0.00000000  0.55178400
   0.62635700  0.00042000  0.57375200
   0.00042000  0.37322400  0.57375200
   0.37322400  0.62635700  0.57375200
   0.37364300  0.99958000  0.42624800
   0.99958000  0.62677600  0.42624800
   0.62677600  0.37364300  0.42624800
unknown system                          
           1
     6.568827    0.000000    0.000000
     3.284413    5.688771    0.000000
     0.000000    0.000000   22.424823
   Ni   Si   P    Te
   2   1   1   6
Direct configuration=     2
   0.33333300  0.33333300  0.49992351
   0.66666700  0.66666700  0.50006654
   0.00000000  0.00000000  0.44965057
   0.00000000  0.00000000  0.55037832
   0.62635700  0.00042000  0.57375200
   0.00042000  0.37322400  0.57375200
   0.37322400  0.62635700  0.57375200
   0.37364300  0.99958000  0.42624800
   0.99958000  0.62677600  0.42624800
   0.62677600  0.37364300  0.42624800
unknown system                          
           1
     6.647383    0.000000    0.000000
     3.323691    5.756802    0.000000
     0.000000    0.000000   22.661166
   Ni   Si   P    Te
   2   1   1   6
Direct configuration=     3
   0.33333300  0.33333300  0.49992387
   0.66666700  0.66666700  0.50006859
   0.00000000 -0.00000000  0.44930297
  -0.00000000  0.00000000  0.55071892
   0.62635700  0.00042000  0.57375200
   0.00042000  0.37322400  0.57375200
   0.37322400  0.62635700  0.57375200
   0.37364300  0.99958000  0.42624800
   0.99958000  0.62677600  0.42624800
   0.62677600  0.37364300  0.42624800
unknown system                          
           1
     6.637879    0.000000    0.000000
     3.318939    5.748571    0.000000
     0.000000    0.000000   22.632572
   Ni   Si   P    Te
   2   1   1   6
Direct configuration=     4
   0.33333300  0.33333300  0.49992382
   0.66666700  0.66666700  0.50006835
   0.00000000 -0.00000000  0.44934459
  -0.00000000  0.00000000  0.55067814
   0.62635700  0.00042000  0.57375200
   0.00042000  0.37322400  0.57375200
   0.37322400  0.62635700  0.57375200
   0.37364300  0.99958000  0.42624800
   0.99958000  0.62677600  0.42624800
   0.62677600  0.37364300  0.42624800
unknown system                          
           1
     6.603353    0.000000    0.000000
     3.301676    5.718671    0.000000
     0.000000    0.000000   22.528698
   Ni   Si   P    Te
   2   1   1   6
Direct configuration=     5
   0.33333300  0.33333300  0.49992367
   0.66666700  0.66666700  0.50006746
   0.00000000 -0.00000000  0.44949596
  -0.00000000  0.00000000  0.55052982
   0.62635700  0.00042000  0.57375200
   0.00042000  0.37322400  0.57375200
   0.37322400  0.62635700  0.57375200
   0.37364300  0.99958000  0.42624800
   0.99958000  0.62677600  0.42624800
   0.62677600  0.37364300  0.42624800
unknown system                          
           1
     6.626007    0.000000    0.000000
     3.313003    5.738290    0.000000
     0.000000    0.000000   22.596855
   Ni   Si   P    Te
   2   1   1   6
Direct configuration=     6
   0.33333300  0.33333300  0.49992377
   0.66666700  0.66666700  0.50006804
   0.00000000 -0.00000000  0.44939618
  -0.00000000  0.00000000  0.55062759
   0.62635700  0.00042000  0.57375200
   0.00042000  0.37322400  0.57375200
   0.37322400  0.62635700  0.57375200
   0.37364300  0.99958000  0.42624800
   0.99958000  0.62677600  0.42624800
   0.62677600  0.37364300  0.42624800
unknown system                          
           1
     6.633428    0.000000    0.000000
     3.316714    5.744717    0.000000
     0.000000    0.000000   22.619182
   Ni   Si   P    Te
   2   1   1   6
Direct configuration=     7
   0.33333300  0.33333300  0.49992380
   0.66666700  0.66666700  0.50006824
   0.00000000 -0.00000000  0.44936359
  -0.00000000  0.00000000  0.55065952
   0.62635700  0.00042000  0.57375200
   0.00042000  0.37322400  0.57375200
   0.37322400  0.62635700  0.57375200
   0.37364300  0.99958000  0.42624800
   0.99958000  0.62677600  0.42624800
   0.62677600  0.37364300  0.42624800
unknown system                          
           1
     6.654587    0.000000    0.000000
     3.327293    5.763041    0.000000
     0.000000    0.000000   22.376298
   Ni   Si   P    Te
   2   1   1   6
Direct configuration=     8
   0.33333300  0.33333300  0.49999466
   0.66666700  0.66666700  0.50014339
   0.00000000  0.00000000  0.44946923
   0.00000000  0.00000000  0.55077148
   0.62635700  0.00042000  0.57375200
   0.00042000  0.37322400  0.57375200
   0.37322400  0.62635700  0.57375200
   0.37364300  0.99958000  0.42624800
   0.99958000  0.62677600  0.42624800
   0.62677600  0.37364300  0.42624800
unknown system                          
           1
     6.678195    0.000000    0.000000
     3.339097    5.783486    0.000000
     0.000000    0.000000   22.105310
   Ni   Si   P    Te
   2   1   1   6
Direct configuration=     9
   0.33333300  0.33333300  0.50007458
   0.66666700  0.66666700  0.50022814
   0.00000000  0.00000000  0.44958837
   0.00000000  0.00000000  0.55089775
   0.62635700  0.00042000  0.57375200
   0.00042000  0.37322400  0.57375200
   0.37322400  0.62635700  0.57375200
   0.37364300  0.99958000  0.42624800
   0.99958000  0.62677600  0.42624800
   0.62677600  0.37364300  0.42624800
unknown system                          
           1
     6.705213   -0.000000    0.000000
     3.352606    5.806884   -0.000000
    -0.000000    0.000000   22.007710
   Ni   Si   P    Te
   2   1   1   6
Direct configuration=    10
   0.33333300  0.33333300  0.50016166
   0.66666700  0.66666700  0.50032225
   0.00000000  0.00000000  0.44893849
   0.00000000  0.00000000  0.55187231
   0.62635700  0.00042000  0.57375200
   0.00042000  0.37322400  0.57375200
   0.37322400  0.62635700  0.57375200
   0.37364300  0.99958000  0.42624800
   0.99958000  0.62677600  0.42624800
   0.62677600  0.37364300  0.42624800
unknown system                          
           1
     6.730718   -0.000000    0.000000
     3.365359    5.828973   -0.000000
    -0.000000    0.000000   21.915573
   Ni   Si   P    Te
   2   1   1   6
Direct configuration=    11
   0.33333300  0.33333300  0.50024423
   0.66666700  0.66666700  0.50041149
   0.00000000  0.00000000  0.44832226
   0.00000000  0.00000000  0.55279639
   0.62635700  0.00042000  0.57375200
   0.00042000  0.37322400  0.57375200
   0.37322400  0.62635700  0.57375200
   0.37364300  0.99958000  0.42624800
   0.99958000  0.62677600  0.42624800
   0.62677600  0.37364300  0.42624800
unknown system                          
           1
     6.718267   -0.000000    0.000000
     3.359133    5.818190   -0.000000
    -0.000000    0.000000   21.853281
   Ni   Si   P    Te
   2   1   1   6
Direct configuration=    12
   0.33333300  0.33333300  0.50029957
   0.66666700  0.66666700  0.50047231
   0.00000000  0.00000000  0.44807765
   0.00000000  0.00000000  0.55335593
   0.62635700  0.00042000  0.57375200
   0.00042000  0.37322400  0.57375200
   0.37322400  0.62635700  0.57375200
   0.37364300  0.99958000  0.42624800
   0.99958000  0.62677600  0.42624800
   0.62677600  0.37364300  0.42624800
unknown system                          
           1
     6.715360   -0.000000    0.000000
     3.357680    5.815672   -0.000000
    -0.000000    0.000000   21.838735
   Ni   Si   P    Te
   2   1   1   6
Direct configuration=    13
   0.33333300  0.33333300  0.50031253
   0.66666700  0.66666700  0.50048656
   0.00000000  0.00000000  0.44802037
   0.00000000  0.00000000  0.55348696
   0.62635700  0.00042000  0.57375200
   0.00042000  0.37322400  0.57375200
   0.37322400  0.62635700  0.57375200
   0.37364300  0.99958000  0.42624800
   0.99958000  0.62677600  0.42624800
   0.62677600  0.37364300  0.42624800
unknown system                          
           1
     6.716743   -0.000000    0.000000
     3.358371    5.816870   -0.000000
    -0.000000    0.000000   21.806280
   Ni   Si   P    Te
   2   1   1   6
Direct configuration=    14
   0.33333300  0.33333300  0.50033747
   0.66666700  0.66666700  0.50051523
   0.00000000  0.00000000  0.44814045
   0.00000000  0.00000000  0.55361329
   0.62635700  0.00042000  0.57375200
   0.00042000  0.37322400  0.57375200
   0.37322400  0.62635700  0.57375200
   0.37364300  0.99958000  0.42624800
   0.99958000  0.62677600  0.42624800
   0.62677600  0.37364300  0.42624800
unknown system                          
           1
     6.719045   -0.000000   -0.000000
     3.359522    5.818863   -0.000000
    -0.000000    0.000000   21.752276
   Ni   Si   P    Te
   2   1   1   6
Direct configuration=    15
   0.33333300  0.33333300  0.50037903
   0.66666700  0.66666700  0.50056302
   0.00000000  0.00000000  0.44834057
   0.00000000  0.00000000  0.55382382
   0.62635700  0.00042000  0.57375200
   0.00042000  0.37322400  0.57375200
   0.37322400  0.62635700  0.57375200
   0.37364300  0.99958000  0.42624800
   0.99958000  0.62677600  0.42624800
   0.62677600  0.37364300  0.42624800
