       N       E                     dE             d eps       ncg     rms          rms(c)
DAV:   1     0.381571054136E+03    0.38157E+03   -0.17144E+04   960   0.849E+02
DAV:   2    -0.287095611646E+01   -0.38444E+03   -0.36634E+03  1440   0.160E+02
DAV:   3    -0.421363587415E+02   -0.39265E+02   -0.38785E+02  1416   0.612E+01
DAV:   4    -0.434858521318E+02   -0.13495E+01   -0.13475E+01  1200   0.146E+01
DAV:   5    -0.435481119800E+02   -0.62260E-01   -0.62229E-01  1632   0.305E+00    0.152E+01
DAV:   6    -0.498227963035E+02   -0.62747E+01   -0.79469E+01  1464   0.485E+01    0.306E+01
DAV:   7    -0.414143731451E+02    0.84084E+01   -0.61204E+01  1464   0.745E+01    0.992E+00
DAV:   8    -0.413834158566E+02    0.30957E-01   -0.34291E+00  1440   0.835E+00    0.602E+00
DAV:   9    -0.419137664019E+02   -0.53035E+00   -0.19636E+00  1296   0.709E+00    0.330E+00
DAV:  10    -0.424567722838E+02   -0.54301E+00   -0.51012E-01  1296   0.413E+00    0.286E+00
DAV:  11    -0.425889056012E+02   -0.13213E+00   -0.97919E-02  1128   0.166E+00    0.220E+00
DAV:  12    -0.428462463933E+02   -0.25734E+00   -0.97038E-02  1104   0.194E+00    0.120E+00
DAV:  13    -0.429519689943E+02   -0.10572E+00   -0.39677E-02   960   0.766E-01    0.612E-01
DAV:  14    -0.429568572966E+02   -0.48883E-02   -0.13235E-02  1056   0.747E-01    0.211E-01
DAV:  15    -0.429563609699E+02    0.49633E-03   -0.22401E-03  1008   0.203E-01    0.778E-02
DAV:  16    -0.429564790989E+02   -0.11813E-03   -0.40339E-04  1056   0.111E-01    0.389E-02
DAV:  17    -0.429563891252E+02    0.89974E-04   -0.16501E-04   960   0.604E-02
   1 F= -.42956389E+02 E0= -.42956389E+02  d E =-.429564E+02  mag=     5.8571
       N       E                     dE             d eps       ncg     rms          rms(c)
DAV:   1    -0.435483102593E+02   -0.59183E+00   -0.14377E+01  1104   0.201E+01    0.415E+00
DAV:   2    -0.435057343268E+02    0.42576E-01   -0.33574E+00  1104   0.136E+01    0.464E+00
DAV:   3    -0.432309728744E+02    0.27476E+00   -0.23966E+00  1224   0.143E+01    0.235E+00
DAV:   4    -0.430968795643E+02    0.13409E+00   -0.50780E-01  1368   0.473E+00    0.396E-01
DAV:   5    -0.430899606758E+02    0.69189E-02   -0.27595E-02  1272   0.599E-01    0.169E-01
DAV:   6    -0.430909468178E+02   -0.98614E-03   -0.31094E-03  1128   0.319E-01    0.970E-02
DAV:   7    -0.430931375992E+02   -0.21908E-02   -0.19284E-03  1056   0.186E-01    0.518E-02
DAV:   8    -0.430951794096E+02   -0.20418E-02   -0.12740E-03  1056   0.151E-01    0.352E-02
DAV:   9    -0.430979186496E+02   -0.27392E-02   -0.16169E-03  1032   0.116E-01    0.270E-02
DAV:  10    -0.430995699371E+02   -0.16513E-02   -0.14153E-03  1056   0.998E-02    0.206E-02
DAV:  11    -0.431002100080E+02   -0.64007E-03   -0.87839E-04  1224   0.705E-02    0.191E-02
DAV:  12    -0.431002681661E+02   -0.58158E-04   -0.38282E-04  1152   0.451E-02
   2 F= -.43100268E+02 E0= -.43100268E+02  d E =-.143879E+00  mag=     5.8134
       N       E                     dE             d eps       ncg     rms          rms(c)
DAV:   1    -0.430999839314E+02    0.22608E-03   -0.37676E-04  1128   0.644E-02    0.175E-02
DAV:   2    -0.430999218994E+02    0.62032E-04   -0.26861E-05  1008   0.399E-02
   3 F= -.43099922E+02 E0= -.43099922E+02  d E =-.143533E+00  mag=     5.8137
       N       E                     dE             d eps       ncg     rms          rms(c)
DAV:   1    -0.431181946128E+02   -0.18211E-01   -0.12363E+00  1032   0.411E+00    0.575E-01
DAV:   2    -0.431182192748E+02   -0.24662E-04   -0.93045E-02  1032   0.128E+00    0.389E-01
DAV:   3    -0.431155623934E+02    0.26569E-02   -0.21401E-02  1272   0.114E+00    0.409E-01
DAV:   4    -0.431121625905E+02    0.33998E-02   -0.16675E-02  1200   0.985E-01    0.143E-01
DAV:   5    -0.431110117377E+02    0.11509E-02   -0.22800E-03  1392   0.281E-01    0.435E-02
DAV:   6    -0.431108874780E+02    0.12426E-03   -0.13277E-04  1008   0.478E-02    0.282E-02
DAV:   7    -0.431106945919E+02    0.19289E-03   -0.10053E-04   816   0.425E-02    0.139E-02
DAV:   8    -0.431106470010E+02    0.47591E-04   -0.53479E-05   840   0.328E-02
   4 F= -.43110647E+02 E0= -.43110647E+02  d E =-.107251E-01  mag=     5.8194
       N       E                     dE             d eps       ncg     rms          rms(c)
DAV:   1    -0.431110354988E+02   -0.34091E-03   -0.22178E-02  1104   0.562E-01    0.806E-02
DAV:   2    -0.431110553917E+02   -0.19893E-04   -0.18392E-03  1128   0.203E-01    0.617E-02
DAV:   3    -0.431111793280E+02   -0.12394E-03   -0.53112E-04   936   0.189E-01    0.588E-02
DAV:   4    -0.431111028238E+02    0.76504E-04   -0.31508E-04   888   0.130E-01
   5 F= -.43111103E+02 E0= -.43111103E+02  d E =-.111809E-01  mag=     5.8193
       N       E                     dE             d eps       ncg     rms          rms(c)
DAV:   1    -0.431133296998E+02   -0.21504E-02   -0.58525E-02  1128   0.131E+00    0.269E-01
DAV:   2    -0.431139755766E+02   -0.64588E-03   -0.14293E-02  1248   0.955E-01    0.310E-01
DAV:   3    -0.431121456920E+02    0.18299E-02   -0.96096E-03  1200   0.808E-01    0.139E-01
DAV:   4    -0.431118472544E+02    0.29844E-03   -0.18194E-03  1176   0.306E-01    0.256E-02
DAV:   5    -0.431117942091E+02    0.53045E-04   -0.78972E-05   936   0.498E-02
   6 F= -.43111794E+02 E0= -.43111794E+02  d E =-.691385E-03  mag=     5.8207
       N       E                     dE             d eps       ncg     rms          rms(c)
DAV:   1    -0.431118662026E+02   -0.18948E-04   -0.26660E-03  1032   0.283E-01    0.558E-02
DAV:   2    -0.431117620627E+02    0.10414E-03   -0.58822E-04   960   0.192E-01    0.615E-02
DAV:   3    -0.431117997566E+02   -0.37694E-04   -0.38956E-04   744   0.167E-01
   7 F= -.43111800E+02 E0= -.43111800E+02  d E =-.696933E-03  mag=     5.8209
