 vasp.5.4.4.18Apr17-6-g9f103f2a35 (build May  1 2020 15:48:39) complex           
 executed on             LinuxGNU date 2020.06.12  18:02:04
 running on   24 total cores
 distrk:  each k-point on   24 cores,    1 groups
 distr:  one band on NCORES_PER_BAND=   1 cores,   24 groups


--------------------------------------------------------------------------------------------------------


 INCAR:
 POTCAR:   PAW_PBE Cr 06Sep2000                   
 POTCAR:    PAW_PBE P 17Jan2003                   
 POTCAR:   PAW_PBE Te 08Apr2002                   

 ----------------------------------------------------------------------------- 
|                                                                             |
|           W    W    AA    RRRRR   N    N  II  N    N   GGGG   !!!           |
|           W    W   A  A   R    R  NN   N  II  NN   N  G    G  !!!           |
|           W    W  A    A  R    R  N N  N  II  N N  N  G       !!!           |
|           W WW W  AAAAAA  RRRRR   N  N N  II  N  N N  G  GGG   !            |
|           WW  WW  A    A  R   R   N   NN  II  N   NN  G    G                |
|           W    W  A    A  R    R  N    N  II  N    N   GGGG   !!!           |
|                                                                             |
|      For optimal performance we recommend to set                            |
|        NCORE= 4 - approx SQRT( number of cores)                             |
|      NCORE specifies how many cores store one orbital (NPAR=cpu/NCORE).     |
|      This setting can  greatly improve the performance of VASP for DFT.     |
|      The default,   NCORE=1            might be grossly inefficient         |
|      on modern multi-core architectures or massively parallel machines.     |
|      Do your own testing !!!!                                               |
|      Unfortunately you need to use the default for GW and RPA calculations. |
|      (for HF NCORE is supported but not extensively tested yet)             |
|                                                                             |
 ----------------------------------------------------------------------------- 


 ----------------------------------------------------------------------------- 
|                                                                             |
|  ADVICE TO THIS USER RUNNING 'VASP/VAMP'   (HEAR YOUR MASTER'S VOICE ...):  |
|                                                                             |
|      You have switched on vdW-DFT.                                          |
|      This routine was written and supplied by Jiri Klimes.                  |
|      We recommed that you carefully read and cite the following             |
|      publication                                                            |
|      J. Klimes, D.R. Bowler, A. Michelides                                  |
|        J. Phys.: Cond Matt. 22 022201 (2010)                                |
|      J. Klimes, D.R. Bowler, A. Michelides                                  |
|        Phys. Rev. B. 83, 195131 (2011)                                      |
|      and references therein.                                                |
|                                                                             |
 ----------------------------------------------------------------------------- 

 POTCAR:   PAW_PBE Cr 06Sep2000                   
   VRHFIN =Cr : d5 s1                                                           
   LEXCH  = PE                                                                  
   EATOM  =   276.9744 eV,   20.3570 Ry                                         
                                                                                
   TITEL  = PAW_PBE Cr 06Sep2000                                                
   LULTRA =        F    use ultrasoft PP ?                                      
   IUNSCR =        1    unscreen: 0-lin 1-nonlin 2-no                           
   RPACOR =    2.080    partial core radius                                     
   POMASS =   51.996; ZVAL   =    6.000    mass and valenz                      
   RCORE  =    2.500    outmost cutoff radius                                   
   RWIGS  =    2.500; RWIGS  =    1.323    wigner-seitz radius (au A)           
   ENMAX  =  227.082; ENMIN  =  170.311 eV                                      
   RCLOC  =    1.721    cutoff for local pot                                    
   LCOR   =        T    correct aug charges                                     
   LPAW   =        T    paw PP                                                  
   EAUG   =  402.108                                                            
   DEXC   =    -.035                                                            
   RMAX   =    3.060    core radius for proj-oper                               
   RAUG   =    1.300    factor for augmentation sphere                          
   RDEP   =    2.609    radius for radial grids                                 
   QCUT   =   -4.085; QGAM   =    8.171    optimization parameters              
                                                                                
   Description                                                                  
     l     E      TYP  RCUT    TYP  RCUT                                        
     2   .000     23  2.500                                                     
     2   .000     23  2.500                                                     
     0   .000     23  2.500                                                     
     0   .000     23  2.500                                                     
     1  -.400     23  2.500                                                     
     1  2.000     23  2.500                                                     
     3   .000      7   .000                                                     
  local pseudopotential read in
  partial core-charges read in
  atomic valenz-charges read in
  non local Contribution for L=           2  read in
    real space projection operators read in
  non local Contribution for L=           2  read in
    real space projection operators read in
  non local Contribution for L=           0  read in
    real space projection operators read in
  non local Contribution for L=           0  read in
    real space projection operators read in
  non local Contribution for L=           1  read in
    real space projection operators read in
  non local Contribution for L=           1  read in
    real space projection operators read in
    PAW grid and wavefunctions read in

   number of l-projection  operators is LMAX  =           6
   number of lm-projection operators is LMMAX =          18

 POTCAR:    PAW_PBE P 17Jan2003                   
   VRHFIN =P : s2p3                                                             
   LEXCH  = PE                                                                  
   EATOM  =   176.0430 eV,   12.9388 Ry                                         
                                                                                
   TITEL  = PAW_PBE P 17Jan2003                                                 
   LULTRA =        F    use ultrasoft PP ?                                      
   IUNSCR =        1    unscreen: 0-lin 1-nonlin 2-no                           
   RPACOR =    1.500    partial core radius                                     
   POMASS =   30.974; ZVAL   =    5.000    mass and valenz                      
   RCORE  =    1.900    outmost cutoff radius                                   
   RWIGS  =    2.330; RWIGS  =    1.233    wigner-seitz radius (au A)           
   ENMAX  =  270.000; ENMIN  =  191.280 eV                                      
   ICORE  =        2    local potential                                         
   LCOR   =        T    correct aug charges                                     
   LPAW   =        T    paw PP                                                  
   EAUG   =  342.924                                                            
   DEXC   =    -.002                                                            
   RMAX   =    2.887    core radius for proj-oper                               
   RAUG   =    1.300    factor for augmentation sphere                          
   RDEP   =    1.931    radius for radial grids                                 
   QCUT   =   -4.330; QGAM   =    8.659    optimization parameters              
                                                                                
   Description                                                                  
     l     E      TYP  RCUT    TYP  RCUT                                        
     0   .000     23  1.900                                                     
     0   .000     23  1.900                                                     
     1   .000     23  1.900                                                     
     1   .000     23  1.900                                                     
     2   .000     23  1.900                                                     
  local pseudopotential read in
  partial core-charges read in
  atomic valenz-charges read in
  non local Contribution for L=           0  read in
    real space projection operators read in
  non local Contribution for L=           0  read in
    real space projection operators read in
  non local Contribution for L=           1  read in
    real space projection operators read in
  non local Contribution for L=           1  read in
    real space projection operators read in
    PAW grid and wavefunctions read in

   number of l-projection  operators is LMAX  =           4
   number of lm-projection operators is LMMAX =           8

 POTCAR:   PAW_PBE Te 08Apr2002                   
   VRHFIN =Te: s2p4                                                             
   LEXCH  = PE                                                                  
   EATOM  =   223.2721 eV,   16.4100 Ry                                         
                                                                                
   TITEL  = PAW_PBE Te 08Apr2002                                                
   LULTRA =        F    use ultrasoft PP ?                                      
   IUNSCR =        1    unscreen: 0-lin 1-nonlin 2-no                           
   RPACOR =    2.200    partial core radius                                     
   POMASS =  127.600; ZVAL   =    6.000    mass and valenz                      
   RCORE  =    2.300    outmost cutoff radius                                   
   RWIGS  =    2.900; RWIGS  =    1.535    wigner-seitz radius (au A)           
   ENMAX  =  174.982; ENMIN  =  131.236 eV                                      
   ICORE  =        3    local potential                                         
   LCOR   =        T    correct aug charges                                     
   LPAW   =        T    paw PP                                                  
   EAUG   =  368.792                                                            
   DEXC   =    -.169                                                            
   RMAX   =    3.486    core radius for proj-oper                               
   RAUG   =    1.300    factor for augmentation sphere                          
   RDEP   =    2.397    radius for radial grids                                 
   QCUT   =   -3.586; QGAM   =    7.172    optimization parameters              
                                                                                
   Description                                                                  
     l     E      TYP  RCUT    TYP  RCUT                                        
     0   .000     23  2.300                                                     
     0   .000     23  2.300                                                     
     1   .000     23  2.300                                                     
     1   .000     23  2.300                                                     
     2   .000     23  2.300                                                     
     3  -.100     23  2.300                                                     
  local pseudopotential read in
  partial core-charges read in
  atomic valenz-charges read in
  non local Contribution for L=           0  read in
    real space projection operators read in
  non local Contribution for L=           0  read in
    real space projection operators read in
  non local Contribution for L=           1  read in
    real space projection operators read in
  non local Contribution for L=           1  read in
    real space projection operators read in
  non local Contribution for L=           2  read in
    real space projection operators read in
    PAW grid and wavefunctions read in

   number of l-projection  operators is LMAX  =           5
   number of lm-projection operators is LMMAX =          13

 Optimization of the real space projectors (new method)

 maximal supplied QI-value         = 15.12
 optimisation between [QCUT,QGAM] = [ 11.64, 23.28] = [ 37.95,151.78] Ry 
 Optimized for a Real-space Cutoff    1.49 Angstroem

   l    n(q)    QCUT    max X(q) W(low)/X(q) W(high)/X(q)  e(spline) 
   2      9    11.641     4.777    0.25E-04    0.21E-05    0.63E-07
   2      9    11.641    31.132    0.13E-03    0.22E-03    0.64E-06
   0     10    11.641    20.416    0.11E-04    0.74E-05    0.19E-07
   0     10    11.641    45.408    0.10E-03    0.85E-04    0.30E-06
   1     10    11.641     7.848    0.22E-04    0.23E-04    0.56E-07
   1     10    11.641     9.895    0.85E-04    0.54E-04    0.16E-06
 Optimization of the real space projectors (new method)

 maximal supplied QI-value         = 19.84
 optimisation between [QCUT,QGAM] = [ 11.51, 23.22] = [ 37.09,150.92] Ry 
 Optimized for a Real-space Cutoff    1.21 Angstroem

   l    n(q)    QCUT    max X(q) W(low)/X(q) W(high)/X(q)  e(spline) 
   0      8    11.508     6.651    0.19E-04    0.31E-05    0.49E-08
   0      8    11.508    90.285    0.95E-04    0.17E-03    0.51E-07
   1      8    11.508     4.328    0.14E-04    0.32E-04    0.22E-07
   1      8    11.508    54.583    0.16E-03    0.71E-04    0.89E-07
 Optimization of the real space projectors (new method)

 maximal supplied QI-value         = 16.25
 optimisation between [QCUT,QGAM] = [ 11.54, 23.24] = [ 37.28,151.24] Ry 
 Optimized for a Real-space Cutoff    1.36 Angstroem

   l    n(q)    QCUT    max X(q) W(low)/X(q) W(high)/X(q)  e(spline) 
   0      9    11.539     7.090    0.13E-04    0.25E-05    0.51E-08
   0      9    11.539   101.654    0.53E-04    0.69E-04    0.12E-06
   1      9    11.539     5.276    0.20E-04    0.98E-05    0.24E-07
   1      9    11.539    81.891    0.24E-03    0.13E-04    0.15E-06
   2      9    11.539     5.599    0.30E-04    0.97E-04    0.54E-07

 ----------------------------------------------------------------------------- 
|                                                                             |
|  ADVICE TO THIS USER RUNNING 'VASP/VAMP'   (HEAR YOUR MASTER'S VOICE ...):  |
|                                                                             |
|      You enforced a specific xc-type in the INCAR file,                     |
|      a different type was found on the POTCAR file                          |
|          I HOPE YOU KNOW, WHAT YOU ARE  DOING                               |
|                                                                             |
 ----------------------------------------------------------------------------- 

 PAW_PBE Cr 06Sep2000                   :
 energy of atom  1       EATOM= -276.9744
 kinetic energy error for atom=    0.0010 (will be added to EATOM!!)
  PAW_PBE P 17Jan2003                   :
 energy of atom  2       EATOM= -176.0430
 kinetic energy error for atom=    0.0011 (will be added to EATOM!!)
 PAW_PBE Te 08Apr2002                   :
 energy of atom  3       EATOM= -223.2721
 kinetic energy error for atom=    0.0007 (will be added to EATOM!!)


 POSCAR: Cr2 P2 Te6                              
  positions in direct lattice
  No initial velocities read in
 exchange correlation table for  LEXCH =       42
   RHO(1)=    0.500       N(1)  =     2000
   RHO(2)=  100.500       N(2)  =     4000



--------------------------------------------------------------------------------------------------------


 ion  position               nearest neighbor table
   1  0.333  0.333  0.500-   6 2.78   5 2.78   7 2.78   8 2.78  10 2.78   9 2.78
   2  0.667  0.667  0.500-   9 2.78   8 2.78  10 2.78   5 2.78   7 2.78   6 2.78
   3  0.000  0.000  0.448-   4 2.43   8 2.63  10 2.63   9 2.63
   4  0.000  0.000  0.552-   3 2.43   5 2.63   7 2.63   6 2.63
   5  0.626  0.000  0.574-   4 2.63   1 2.78   2 2.78
   6  0.000  0.373  0.574-   4 2.63   1 2.78   2 2.78
   7  0.373  0.626  0.574-   4 2.63   1 2.78   2 2.78
   8  0.374  1.000  0.426-   3 2.63   2 2.78   1 2.78
   9  1.000  0.627  0.426-   3 2.63   2 2.78   1 2.78
  10  0.627  0.374  0.426-   3 2.63   2 2.78   1 2.78

  LATTYP: Found a hexagonal cell.
 ALAT       =     6.9077769333
 C/A-ratio  =     3.3939410937
  
  Lattice vectors:
  
 A1 = (   3.4538890000,  -5.9823100000,   0.0000000000)
 A2 = (  -6.9077770000,   0.0000000000,   0.0000000000)
 A3 = (   0.0000000000,   0.0000000000, -23.4445880000)


Analysis of symmetry for initial positions (statically):
=====================================================================
 Subroutine PRICEL returns:
 Original cell was already a primitive cell.
 

 Routine SETGRP: Setting up the symmetry group for a 
 hexagonal supercell.


 Subroutine GETGRP returns: Found  6 space group operations
 (whereof  6 operations were pure point group operations)
 out of a pool of 24 trial point group operations.


The static configuration has the point symmetry S_6 .


Analysis of symmetry for dynamics (positions and initial velocities):
=====================================================================
 Subroutine PRICEL returns:
 Original cell was already a primitive cell.
 

 Routine SETGRP: Setting up the symmetry group for a 
 hexagonal supercell.


 Subroutine GETGRP returns: Found  6 space group operations
 (whereof  6 operations were pure point group operations)
 out of a pool of 24 trial point group operations.


The dynamic configuration has the point symmetry S_6 .


Analysis of constrained symmetry for selective dynamics:
=====================================================================
 Subroutine PRICEL returns:
 Original cell was already a primitive cell.
 

 Routine SETGRP: Setting up the symmetry group for a 
 hexagonal supercell.


 Subroutine GETGRP returns: Found  6 space group operations
 (whereof  6 operations were pure point group operations)
 out of a pool of 24 trial point group operations.


The constrained configuration has the point symmetry S_6 .


Analysis of structural, dynamic, and magnetic symmetry:
=====================================================================
 Subroutine PRICEL returns:
 Original cell was already a primitive cell.
 

 Routine SETGRP: Setting up the symmetry group for a 
 hexagonal supercell.


 Subroutine GETGRP returns: Found  6 space group operations
 (whereof  6 operations were pure point group operations)
 out of a pool of 24 trial point group operations.


The magnetic configuration has the point symmetry S_6 .


 Subroutine INISYM returns: Found  6 space group operations
 (whereof  6 operations are pure point group operations),
 and found     1 'primitive' translations



 KPOINTS: Kpoints from vasprun.xml                

Automatic generation of k-mesh.
Space group operators:
 irot       det(A)        alpha          n_x          n_y          n_z        tau_x        tau_y        tau_z
    1     1.000000     0.000000     1.000000     0.000000     0.000000     0.000000     0.000000     0.000000
    2    -1.000000     0.000000     1.000000     0.000000     0.000000     0.000000     0.000000     0.000000
    3     1.000000   120.000000     0.000000     0.000000     1.000000     0.000000     0.000000     0.000000
    4    -1.000000   120.000000     0.000000     0.000000     1.000000     0.000000     0.000000     0.000000
    5     1.000000   120.000000     0.000000     0.000000    -1.000000     0.000000     0.000000     0.000000
    6    -1.000000   120.000000     0.000000     0.000000    -1.000000     0.000000     0.000000     0.000000
 
 Subroutine IBZKPT returns following result:
 ===========================================
 
 Found      5 irreducible k-points:
 
 Following reciprocal coordinates:
            Coordinates               Weight
  0.000000  0.000000  0.000000      1.000000
  0.200000  0.000000  0.000000      6.000000
  0.400000  0.000000  0.000000      6.000000
  0.400000  0.200000  0.000000      6.000000
 -0.400000  0.200000  0.000000      6.000000
 
 Following cartesian coordinates:
            Coordinates               Weight
  0.000000  0.000000  0.000000      1.000000
  0.028953 -0.016716  0.000000      6.000000
  0.057906 -0.033432  0.000000      6.000000
  0.057906  0.000000  0.000000      6.000000
 -0.057906  0.066864  0.000000      6.000000
 
 TETIRR: Found     15 inequivalent tetrahedra from      150


--------------------------------------------------------------------------------------------------------




 Dimension of arrays:
   k-points           NKPTS =      5   k-points in BZ     NKDIM =      5   number of bands    NBANDS=     48
   number of dos      NEDOS =    301   number of ions     NIONS =     10
   non local maximal  LDIM  =      6   non local SUM 2l+1 LMDIM =     18
   total plane-waves  NPLWV = 524880
   max r-space proj   IRMAX =   7543   max aug-charges    IRDMAX=  31706
   dimension x,y,z NGX =    54 NGY =   54 NGZ =  180
   dimension x,y,z NGXF=   108 NGYF=  108 NGZF=  360
   support grid    NGXF=   108 NGYF=  108 NGZF=  360
   ions per type =               2   2   6
   NGX,Y,Z   is equivalent  to a cutoff of  13.00, 13.00, 12.76 a.u.
   NGXF,Y,Z  is equivalent  to a cutoff of  25.99, 25.99, 25.53 a.u.

 SYSTEM =  unknown system                          
 POSCAR =  Cr2 P2 Te6                              

 Startparameter for this run:
   NWRITE =      2    write-flag & timer
   PREC   = accura    normal or accurate (medium, high low for compatibility)
   ISTART =      0    job   : 0-new  1-cont  2-samecut
   ICHARG =      2    charge: 1-file 2-atom 10-const
   ISPIN  =      2    spin polarized calculation?
   LNONCOLLINEAR =      F non collinear calculations
   LSORBIT =      F    spin-orbit coupling
   INIWAV =      1    electr: 0-lowe 1-rand  2-diag
   LASPH  =      F    aspherical Exc in radial PAW
   METAGGA=      F    non-selfconsistent MetaGGA calc.

 Electronic Relaxation 1
   ENCUT  =  520.0 eV  38.22 Ry    6.18 a.u.  12.84 12.84 43.59*2*pi/ulx,y,z
   ENINI  =  520.0     initial cutoff
   ENAUG  =  402.1 eV  augmentation charge cutoff
   NELM   =    400;   NELMIN=  2; NELMDL=  0     # of ELM steps 
   EDIFF  = 0.1E-03   stopping-criterion for ELM
   LREAL  =      T    real-space projection
   NLSPLINE    = F    spline interpolate recip. space projectors
   LCOMPAT=      F    compatible to vasp.4.4
   GGA_COMPAT  = T    GGA compatible to vasp.4.4-vasp.4.6
   LMAXPAW     = -100 max onsite density
   LMAXMIX     =    2 max onsite mixed and CHGCAR
   VOSKOWN=      0    Vosko Wilk Nusair interpolation
   ROPT   =   -0.00025  -0.00025  -0.00025
 Ionic relaxation
   EDIFFG = 0.1E-02   stopping-criterion for IOM
   NSW    =     99    number of steps for IOM
   NBLOCK =      1;   KBLOCK =     99    inner block; outer block 
   IBRION =      2    ionic relax: 0-MD 1-quasi-New 2-CG
   NFREE  =      1    steps in history (QN), initial steepest desc. (CG)
   ISIF   =      3    stress and relaxation
   IWAVPR =     11    prediction:  0-non 1-charg 2-wave 3-comb
   ISYM   =      2    0-nonsym 1-usesym 2-fastsym
   LCORR  =      T    Harris-Foulkes like correction to forces

   POTIM  = 0.5000    time-step for ionic-motion
   TEIN   =    0.0    initial temperature
   TEBEG  =    0.0;   TEEND  =   0.0 temperature during run
   SMASS  =  -3.00    Nose mass-parameter (am)
   estimated Nose-frequenzy (Omega)   =  0.10E-29 period in steps =****** mass=  -0.109E-26a.u.
   SCALEE = 1.0000    scale energy and forces
   NPACO  =    256;   APACO  = 16.0  distance and # of slots for P.C.
   PSTRESS=    0.0 pullay stress

  Mass of Ions in am
   POMASS =  52.00 30.97127.60
  Ionic Valenz
   ZVAL   =   6.00  5.00  6.00
  Atomic Wigner-Seitz radii
   RWIGS  =  -1.00 -1.00 -1.00
  virtual crystal weights 
   VCA    =   1.00  1.00  1.00
   NELECT =      58.0000    total number of electrons
   NUPDOWN=      -1.0000    fix difference up-down

 DOS related values:
   EMIN   =  10.00;   EMAX   =-10.00  energy-range for DOS
   EFERMI =   0.00
   ISMEAR =    -5;   SIGMA  =   0.05  broadening in eV -4-tet -1-fermi 0-gaus

 Electronic relaxation 2 (details)
   IALGO  =     38    algorithm
   LDIAG  =      T    sub-space diagonalisation (order eigenvalues)
   LSUBROT=      F    optimize rotation matrix (better conditioning)
   TURBO    =      0    0=normal 1=particle mesh
   IRESTART =      0    0=no restart 2=restart with 2 vectors
   NREBOOT  =      0    no. of reboots
   NMIN     =      0    reboot dimension
   EREF     =   0.00    reference energy to select bands
   IMIX   =      4    mixing-type and parameters
     AMIX     =   0.40;   BMIX     =  1.00
     AMIX_MAG =   1.60;   BMIX_MAG =  1.00
     AMIN     =   0.01
     WC   =   100.;   INIMIX=   1;  MIXPRE=   1;  MAXMIX= -45

 Intra band minimization:
   WEIMIN = 0.0010     energy-eigenvalue tresh-hold
   EBREAK =  0.52E-06  absolut break condition
   DEPER  =   0.30     relativ break condition  

   TIME   =   0.40     timestep for ELM

  volume/ion in A,a.u.               =      96.88       653.80
  Fermi-wavevector in a.u.,A,eV,Ry     =   0.640424  1.210226  5.580332  0.410143
  Thomas-Fermi vector in A             =   1.706427

 Write flags
   LWAVE        =      F    write WAVECAR
   LDOWNSAMPLE  =      F    k-point downsampling of WAVECAR
   LCHARG       =      T    write CHGCAR
   LVTOT        =      F    write LOCPOT, total local potential
   LVHAR        =      F    write LOCPOT, Hartree potential only
   LELF         =      F    write electronic localiz. function (ELF)
   LORBIT       =     11    0 simple, 1 ext, 2 COOP (PROOUT), +10 PAW based schemes


 Dipole corrections
   LMONO  =      F    monopole corrections only (constant potential shift)
   LDIPOL =      F    correct potential (dipole corrections)
   IDIPOL =      0    1-x, 2-y, 3-z, 4-all directions 
   EPSILON=  1.0000000 bulk dielectric constant

 Exchange correlation treatment:
   GGA     =    BO    GGA type
   LEXCH   =    42    internal setting for exchange type
   VOSKOWN=      0    Vosko Wilk Nusair interpolation
   LHFCALC =     F    Hartree Fock is set to
   LHFONE  =     F    Hartree Fock one center treatment
   AEXX    =    0.0000 exact exchange contribution

 vdW DFT:
   LUSE_VDW   =     T    switch on vdW DFT
   Zab_VDW    =-.8491    correlation parameter
   PARAM1     =0.1833
   PARAM2     =0.2200
   PARAM3     =0.0000
   -- rVV10 --
   BPARAM     = 6.3000
   CPARAM     = 0.0093

 Linear response parameters
   LEPSILON=     F    determine dielectric tensor
   LRPA    =     F    only Hartree local field effects (RPA)
   LNABLA  =     F    use nabla operator in PAW spheres
   LVEL    =     F    velocity operator in full k-point grid
   LINTERFAST=   F  fast interpolation
   KINTER  =     0    interpolate to denser k-point grid
   CSHIFT  =0.1000    complex shift for real part using Kramers Kronig
   OMEGAMAX=  -1.0    maximum frequency
   DEG_THRESHOLD= 0.2000000E-02 threshold for treating states as degnerate
   RTIME   =   -0.100 relaxation time in fs
  (WPLASMAI=    0.000 imaginary part of plasma frequency in eV, 0.658/RTIME)
   DFIELD  = 0.0000000 0.0000000 0.0000000 field for delta impulse in time

 Orbital magnetization related:
   ORBITALMAG=     F  switch on orbital magnetization
   LCHIMAG   =     F  perturbation theory with respect to B field
   DQ        =  0.001000  dq finite difference perturbation B field
   LLRAUG    =     F  two centre corrections for induced B field



--------------------------------------------------------------------------------------------------------


 conjugate gradient relaxation of ions
   using selective dynamics as specified on POSCAR
 charge density and potential will be updated during run
 spin polarized calculation
 Variant of blocked Davidson
 Davidson routine will perform the subspace rotation
 perform sub-space diagonalisation
    after iterative eigenvector-optimisation
 modified Broyden-mixing scheme, WC =      100.0
 initial mixing is a Kerker type mixing with AMIX =  0.4000 and BMIX =      1.0000
 Hartree-type preconditioning will be used
 using additional bands           19
 real space projection scheme for non local part
 use partial core corrections
 calculate Harris-corrections to forces   (improved forces if not selfconsistent)
 use gradient corrections 
 use of overlap-Matrix (Vanderbilt PP)
 Fermi weights with tetrahedron method with Bloechl corrections


--------------------------------------------------------------------------------------------------------


  energy-cutoff  :      520.00
  volume of cell :      968.84
      direct lattice vectors                 reciprocal lattice vectors
     6.907777000 -0.000000000  0.000000000     0.144764372 -0.083579742  0.000000000
     3.453888000  5.982310000  0.000000000     0.000000000  0.167159509 -0.000000000
     0.000000000  0.000000000 23.444588000    -0.000000000  0.000000000  0.042653767

  length of vectors
     6.907777000  6.907776433 23.444588000     0.167159495  0.167159509  0.042653767



 k-points in units of 2pi/SCALE and weight: Kpoints from vasprun.xml                
   0.00000000  0.00000000  0.00000000       0.040
   0.02895287 -0.01671595  0.00000000       0.240
   0.05790575 -0.03343190  0.00000000       0.240
   0.05790575  0.00000000  0.00000000       0.240
  -0.05790575  0.06686380  0.00000000       0.240

 k-points in reciprocal lattice and weights: Kpoints from vasprun.xml                
   0.00000000  0.00000000  0.00000000       0.040
   0.20000000  0.00000000  0.00000000       0.240
   0.40000000  0.00000000  0.00000000       0.240
   0.40000000  0.20000000  0.00000000       0.240
  -0.40000000  0.20000000  0.00000000       0.240

 position of ions in fractional coordinates (direct lattice) 
   0.33333300  0.33333300  0.49992500
   0.66666700  0.66666700  0.50007500
   0.00000000  0.00000000  0.44821600
   0.00000000  0.00000000  0.55178400
   0.62635700  0.00042000  0.57375200
   0.00042000  0.37322400  0.57375200
   0.37322400  0.62635700  0.57375200
   0.37364300  0.99958000  0.42624800
   0.99958000  0.62677600  0.42624800
   0.62677600  0.37364300  0.42624800

 position of ions in cartesian coordinates  (Angst):
   3.45388488  1.99410134 11.72053566
   6.90778012  3.98820866 11.72405234
   0.00000000  0.00000000 10.50823946
   0.00000000  0.00000000 12.93634854
   4.32818511  0.00251257 13.45137925
   1.29197516  2.23274167 13.45137925
   4.74151509  3.74706174 13.45137925
   6.03347989  5.97979743  9.99320875
   9.06968984  3.74956833  9.99320875
   5.62014991  2.23524826  9.99320875



--------------------------------------------------------------------------------------------------------


 k-point  1 :   0.0000 0.0000 0.0000  plane waves:   26073
 k-point  2 :   0.2000 0.0000 0.0000  plane waves:   26070
 k-point  3 :   0.4000 0.0000 0.0000  plane waves:   26086
 k-point  4 :   0.4000 0.2000 0.0000  plane waves:   26085
 k-point  5 :  -0.4000 0.2000 0.0000  plane waves:   26115

 maximum and minimum number of plane-waves per node :     26115    26070

 maximum number of plane-waves:     26115
 maximum index in each direction: 
   IXMAX=   13   IYMAX=   12   IZMAX=   43
   IXMIN=  -13   IYMIN=  -13   IZMIN=  -43


 serial   3D FFT for wavefunctions
 parallel 3D FFT for charge:
    minimum data exchange during FFTs selected (reduces bandwidth)


 total amount of memory used by VASP MPI-rank0   114493. kBytes
=======================================================================

   base      :      30000. kBytes
   nonlr-proj:       7947. kBytes
   fftplans  :       8558. kBytes
   grid      :      59268. kBytes
   one-center:        311. kBytes
   wavefun   :       8409. kBytes

     INWAV:  cpu time    0.0000: real time    0.0005
 Broyden mixing: mesh for mixing (old mesh)
   NGX = 25   NGY = 25   NGZ = 87
  (NGX  =108   NGY  =108   NGZ  =360)
  gives a total of  54375 points

 initial charge density was supplied:
 charge density of overlapping atoms calculated
 number of electron      58.0000000 magnetization      14.8000000
 keeping initial charge density in first step


--------------------------------------------------------------------------------------------------------


 Maximum index for non-local projection operator         7247
 Maximum index for augmentation-charges         1805 (set IRDMAX)


--------------------------------------------------------------------------------------------------------


 First call to EWALD:  gamma=   0.179
 Maximum number of real-space cells 4x 4x 1
 Maximum number of reciprocal cells 2x 2x 6

    FEWALD:  cpu time    0.0000: real time    0.0018


--------------------------------------- Iteration      1(   1)  ---------------------------------------


vdW kernel read from vdw_kernel.bindat
  0.0000  0.2424  0.5071  0.7962  1.1119  1.4567  1.8333  2.2446  2.6937  3.1842
  3.7199  4.3049  4.9438  5.6415  6.4036  7.2358  8.1446  9.1372 10.2212 11.4050
 12.6979 14.1099 15.6519 17.3360 19.1751 21.1837 23.3773 25.7729 28.3892 31.2465
 34.3669 37.7748 41.4965 45.5611 50.0000

    POTLOK:  cpu time   38.9760: real time   60.4070
    SETDIJ:  cpu time    0.0240: real time    0.0526
     EDDAV:  cpu time   21.3560: real time   31.5105
 BZINTS: Fermi energy:  6.124970; 58.025005 electrons
         Band energy:  16.964932;  BLOECHL correction: -0.045490
       DOS:  cpu time    0.0160: real time    0.0198
    --------------------------------------------
      LOOP:  cpu time   60.3720: real time   91.9899

 eigenvalue-minimisations  :   960
 total energy-change (2. order) : 0.3815711E+03  (-0.1714408E+04)
 number of electron      58.0000000 magnetization      14.8000000
 augmentation part       58.0000000 magnetization      14.8000000

 Free energy of the ion-electron system (eV)
  ---------------------------------------------------
  alpha Z        PSCENC =        12.19922354
  Ewald energy   TEWEN  =      6462.22987265
  -Hartree energ DENC   =     -8459.86008969
  -exchange      EXHF   =         0.00000000
  -V(xc)+E(xc)   XCENC  =      -204.92083104
  PAW double counting   =      1172.63272806     -873.73170129
  entropy T*S    EENTRO =         0.00000000
  eigenvalues    EBANDS =        16.96493163
  atomic energy  EATOM  =      2256.05692028
  Solvation  Ediel_sol  =         0.00000000
  ---------------------------------------------------
  free energy    TOTEN  =       381.57105414 eV

  energy without entropy =      381.57105414  energy(sigma->0) =      381.57105414


--------------------------------------------------------------------------------------------------------




--------------------------------------- Iteration      1(   2)  ---------------------------------------


     EDDAV:  cpu time   26.4720: real time   41.4573
 BZINTS: Fermi energy: -0.651571; 58.000000 electrons
         Band energy:-367.477079;  BLOECHL correction: -0.132769
       DOS:  cpu time    0.0040: real time    0.0088
    --------------------------------------------
      LOOP:  cpu time   26.4760: real time   41.4661

 eigenvalue-minimisations  :  1440
 total energy-change (2. order) :-0.3844420E+03  (-0.3663396E+03)
 number of electron      58.0000000 magnetization      14.8000000
 augmentation part       58.0000000 magnetization      14.8000000

 Free energy of the ion-electron system (eV)
  ---------------------------------------------------
  alpha Z        PSCENC =        12.19922354
  Ewald energy   TEWEN  =      6462.22987265
  -Hartree energ DENC   =     -8459.86008969
  -exchange      EXHF   =         0.00000000
  -V(xc)+E(xc)   XCENC  =      -204.92083104
  PAW double counting   =      1172.63272806     -873.73170129
  entropy T*S    EENTRO =         0.00000000
  eigenvalues    EBANDS =      -367.47707862
  atomic energy  EATOM  =      2256.05692028
  Solvation  Ediel_sol  =         0.00000000
  ---------------------------------------------------
  free energy    TOTEN  =        -2.87095612 eV

  energy without entropy =       -2.87095612  energy(sigma->0) =       -2.87095612


--------------------------------------------------------------------------------------------------------




--------------------------------------- Iteration      1(   3)  ---------------------------------------


     EDDAV:  cpu time   27.2680: real time   41.2777
 BZINTS: Fermi energy: -1.694056; 58.000000 electrons
         Band energy:-406.742481;  BLOECHL correction: -0.042284
       DOS:  cpu time    0.0040: real time    0.0060
    --------------------------------------------
      LOOP:  cpu time   27.2720: real time   41.2837

 eigenvalue-minimisations  :  1416
 total energy-change (2. order) :-0.3926540E+02  (-0.3878512E+02)
 number of electron      58.0000000 magnetization      14.8000000
 augmentation part       58.0000000 magnetization      14.8000000

 Free energy of the ion-electron system (eV)
  ---------------------------------------------------
  alpha Z        PSCENC =        12.19922354
  Ewald energy   TEWEN  =      6462.22987265
  -Hartree energ DENC   =     -8459.86008969
  -exchange      EXHF   =         0.00000000
  -V(xc)+E(xc)   XCENC  =      -204.92083104
  PAW double counting   =      1172.63272806     -873.73170129
  entropy T*S    EENTRO =         0.00000000
  eigenvalues    EBANDS =      -406.74248125
  atomic energy  EATOM  =      2256.05692028
  Solvation  Ediel_sol  =         0.00000000
  ---------------------------------------------------
  free energy    TOTEN  =       -42.13635874 eV

  energy without entropy =      -42.13635874  energy(sigma->0) =      -42.13635874


--------------------------------------------------------------------------------------------------------




--------------------------------------- Iteration      1(   4)  ---------------------------------------


     EDDAV:  cpu time   24.4840: real time   35.7766
 BZINTS: Fermi energy: -1.713954; 58.000000 electrons
         Band energy:-408.091975;  BLOECHL correction: -0.041649
       DOS:  cpu time    0.0080: real time    0.0162
    --------------------------------------------
      LOOP:  cpu time   24.4920: real time   35.7928

 eigenvalue-minimisations  :  1200
 total energy-change (2. order) :-0.1349493E+01  (-0.1347456E+01)
 number of electron      58.0000000 magnetization      14.8000000
 augmentation part       58.0000000 magnetization      14.8000000

 Free energy of the ion-electron system (eV)
  ---------------------------------------------------
  alpha Z        PSCENC =        12.19922354
  Ewald energy   TEWEN  =      6462.22987265
  -Hartree energ DENC   =     -8459.86008969
  -exchange      EXHF   =         0.00000000
  -V(xc)+E(xc)   XCENC  =      -204.92083104
  PAW double counting   =      1172.63272806     -873.73170129
  entropy T*S    EENTRO =         0.00000000
  eigenvalues    EBANDS =      -408.09197464
  atomic energy  EATOM  =      2256.05692028
  Solvation  Ediel_sol  =         0.00000000
  ---------------------------------------------------
  free energy    TOTEN  =       -43.48585213 eV

  energy without entropy =      -43.48585213  energy(sigma->0) =      -43.48585213


--------------------------------------------------------------------------------------------------------




--------------------------------------- Iteration      1(   5)  ---------------------------------------


     EDDAV:  cpu time   31.2680: real time   46.4751
 BZINTS: Fermi energy: -1.714489; 58.000000 electrons
         Band energy:-408.154234;  BLOECHL correction: -0.041632
       DOS:  cpu time    0.0040: real time    0.0055
    CHARGE:  cpu time    1.3880: real time    2.4534
    MIXING:  cpu time    0.0200: real time    0.0510
    --------------------------------------------
      LOOP:  cpu time   32.6800: real time   48.9850

 eigenvalue-minimisations  :  1632
 total energy-change (2. order) :-0.6225985E-01  (-0.6222910E-01)
 number of electron      57.9999998 magnetization      13.8564751
 augmentation part       -4.6321152 magnetization      11.2423949

 Broyden mixing:
  rms(total) = 0.15215E+01    rms(broyden)= 0.15215E+01
  rms(prec ) = 0.16053E+01
  weight for this iteration     100.00

 Free energy of the ion-electron system (eV)
  ---------------------------------------------------
  alpha Z        PSCENC =        12.19922354
  Ewald energy   TEWEN  =      6462.22987265
  -Hartree energ DENC   =     -8459.86008969
  -exchange      EXHF   =         0.00000000
  -V(xc)+E(xc)   XCENC  =      -204.92083104
  PAW double counting   =      1172.63272806     -873.73170129
  entropy T*S    EENTRO =         0.00000000
  eigenvalues    EBANDS =      -408.15423449
  atomic energy  EATOM  =      2256.05692028
  Solvation  Ediel_sol  =         0.00000000
  ---------------------------------------------------
  free energy    TOTEN  =       -43.54811198 eV

  energy without entropy =      -43.54811198  energy(sigma->0) =      -43.54811198


--------------------------------------------------------------------------------------------------------




--------------------------------------- Iteration      1(   6)  ---------------------------------------


    POTLOK:  cpu time   38.9120: real time   59.1709
    SETDIJ:  cpu time    0.0200: real time    0.0634
     EDDAV:  cpu time   28.5040: real time   42.0309
 BZINTS: Fermi energy: -3.321671; 58.000000 electrons
         Band energy:-440.972125;  BLOECHL correction: -0.013883
       DOS:  cpu time    0.0040: real time    0.0115
    CHARGE:  cpu time    1.3880: real time    2.3066
    MIXING:  cpu time    0.0320: real time    0.0519
    --------------------------------------------
      LOOP:  cpu time   68.8600: real time  103.6351

 eigenvalue-minimisations  :  1464
 total energy-change (2. order) :-0.6274684E+01  (-0.7946916E+01)
 number of electron      57.9999997 magnetization      13.5650228
 augmentation part        2.2078036 magnetization      11.6364802

 Broyden mixing:
  rms(total) = 0.30581E+01    rms(broyden)= 0.30581E+01
  rms(prec ) = 0.34527E+01
  weight for this iteration     100.00

 eigenvalues of (default mixing * dielectric matrix)
  average eigenvalue GAMMA=   0.3400
  0.3400

 Free energy of the ion-electron system (eV)
  ---------------------------------------------------
  alpha Z        PSCENC =        12.19922354
  Ewald energy   TEWEN  =      6462.22987265
  -Hartree energ DENC   =     -8435.81344963
  -exchange      EXHF   =         0.00000000
  -V(xc)+E(xc)   XCENC  =      -206.91394829
  PAW double counting   =      1158.78601619     -855.39530633
  entropy T*S    EENTRO =         0.00000000
  eigenvalues    EBANDS =      -440.97212470
  atomic energy  EATOM  =      2256.05692028
  Solvation  Ediel_sol  =         0.00000000
  ---------------------------------------------------
  free energy    TOTEN  =       -49.82279630 eV

  energy without entropy =      -49.82279630  energy(sigma->0) =      -49.82279630


--------------------------------------------------------------------------------------------------------




--------------------------------------- Iteration      1(   7)  ---------------------------------------


    POTLOK:  cpu time   38.3880: real time   59.5492
    SETDIJ:  cpu time    0.0280: real time    0.0629
     EDDAV:  cpu time   27.6520: real time   41.9727
 BZINTS: Fermi energy: -1.663742; 58.000000 electrons
         Band energy:-402.634592;  BLOECHL correction: -0.037553
       DOS:  cpu time    0.0040: real time    0.0050
    CHARGE:  cpu time    1.5200: real time    2.4354
    MIXING:  cpu time    0.0320: real time    0.0712
    --------------------------------------------
      LOOP:  cpu time   67.6240: real time  104.0963

 eigenvalue-minimisations  :  1464
 total energy-change (2. order) : 0.8408423E+01  (-0.6120403E+01)
 number of electron      57.9999998 magnetization      12.8755321
 augmentation part       -4.1833106 magnetization      10.1563082

 Broyden mixing:
  rms(total) = 0.99208E+00    rms(broyden)= 0.99206E+00
  rms(prec ) = 0.10620E+01
  weight for this iteration     100.00

 eigenvalues of (default mixing * dielectric matrix)
  average eigenvalue GAMMA=   0.5030
  0.7921  0.2138

 Free energy of the ion-electron system (eV)
  ---------------------------------------------------
  alpha Z        PSCENC =        12.19922354
  Ewald energy   TEWEN  =      6462.22987265
  -Hartree energ DENC   =     -8460.79042002
  -exchange      EXHF   =         0.00000000
  -V(xc)+E(xc)   XCENC  =      -207.39017741
  PAW double counting   =      1210.39726906     -911.48246962
  entropy T*S    EENTRO =         0.00000000
  eigenvalues    EBANDS =      -402.63459162
  atomic energy  EATOM  =      2256.05692028
  Solvation  Ediel_sol  =         0.00000000
  ---------------------------------------------------
  free energy    TOTEN  =       -41.41437315 eV

  energy without entropy =      -41.41437315  energy(sigma->0) =      -41.41437315


--------------------------------------------------------------------------------------------------------




--------------------------------------- Iteration      1(   8)  ---------------------------------------


    POTLOK:  cpu time   39.7920: real time   59.5621
    SETDIJ:  cpu time    0.0240: real time    0.0563
     EDDAV:  cpu time   27.6680: real time   41.1255
 BZINTS: Fermi energy: -1.708123; 58.000000 electrons
         Band energy:-404.989265;  BLOECHL correction: -0.033379
       DOS:  cpu time    0.0160: real time    0.0174
    CHARGE:  cpu time    1.5440: real time    2.4012
    MIXING:  cpu time    0.0600: real time    0.0617
    --------------------------------------------
      LOOP:  cpu time   69.1040: real time  103.2241

 eigenvalue-minimisations  :  1440
 total energy-change (2. order) : 0.3095729E-01  (-0.3429095E+00)
 number of electron      57.9999998 magnetization      11.5190135
 augmentation part       -3.5989686 magnetization       9.0483158

 Broyden mixing:
  rms(total) = 0.60196E+00    rms(broyden)= 0.60196E+00
  rms(prec ) = 0.62779E+00
  weight for this iteration     100.00

 eigenvalues of (default mixing * dielectric matrix)
  average eigenvalue GAMMA=   0.7135
  0.2274  0.9566  0.9566

 Free energy of the ion-electron system (eV)
  ---------------------------------------------------
  alpha Z        PSCENC =        12.19922354
  Ewald energy   TEWEN  =      6462.22987265
  -Hartree energ DENC   =     -8458.58314985
  -exchange      EXHF   =         0.00000000
  -V(xc)+E(xc)   XCENC  =      -207.24080409
  PAW double counting   =      1216.19651042     -917.25272340
  entropy T*S    EENTRO =         0.00000000
  eigenvalues    EBANDS =      -404.98926540
  atomic energy  EATOM  =      2256.05692028
  Solvation  Ediel_sol  =         0.00000000
  ---------------------------------------------------
  free energy    TOTEN  =       -41.38341586 eV

  energy without entropy =      -41.38341586  energy(sigma->0) =      -41.38341586


--------------------------------------------------------------------------------------------------------




--------------------------------------- Iteration      1(   9)  ---------------------------------------


    POTLOK:  cpu time   38.5920: real time   58.4861
    SETDIJ:  cpu time    0.0840: real time    0.0839
     EDDAV:  cpu time   25.9120: real time   38.4883
 BZINTS: Fermi energy: -1.781852; 58.000000 electrons
         Band energy:-404.083252;  BLOECHL correction: -0.040931
       DOS:  cpu time    0.0120: real time    0.0173
    CHARGE:  cpu time    1.4520: real time    2.3490
    MIXING:  cpu time    0.0280: real time    0.0539
    --------------------------------------------
      LOOP:  cpu time   66.0800: real time   99.4785

 eigenvalue-minimisations  :  1296
 total energy-change (2. order) :-0.5303505E+00  (-0.1963636E+00)
 number of electron      57.9999998 magnetization      10.2108359
 augmentation part       -2.9963215 magnetization       8.0000355

 Broyden mixing:
  rms(total) = 0.33039E+00    rms(broyden)= 0.33039E+00
  rms(prec ) = 0.33108E+00
  weight for this iteration     100.00

 eigenvalues of (default mixing * dielectric matrix)
  average eigenvalue GAMMA=   0.9793
  1.5141  1.5141  0.2252  0.6639

 Free energy of the ion-electron system (eV)
  ---------------------------------------------------
  alpha Z        PSCENC =        12.19922354
  Ewald energy   TEWEN  =      6462.22987265
  -Hartree energ DENC   =     -8460.82106814
  -exchange      EXHF   =         0.00000000
  -V(xc)+E(xc)   XCENC  =      -206.20455708
  PAW double counting   =      1233.10289620     -934.39380214
  entropy T*S    EENTRO =         0.00000000
  eigenvalues    EBANDS =      -404.08325170
  atomic energy  EATOM  =      2256.05692028
  Solvation  Ediel_sol  =         0.00000000
  ---------------------------------------------------
  free energy    TOTEN  =       -41.91376640 eV

  energy without entropy =      -41.91376640  energy(sigma->0) =      -41.91376640


--------------------------------------------------------------------------------------------------------




--------------------------------------- Iteration      1(  10)  ---------------------------------------


    POTLOK:  cpu time   37.7000: real time   58.7012
    SETDIJ:  cpu time    0.0320: real time    0.0743
     EDDAV:  cpu time   25.6560: real time   38.5093
 BZINTS: Fermi energy: -1.808339; 58.000000 electrons
         Band energy:-402.607564;  BLOECHL correction: -0.046771
       DOS:  cpu time    0.0400: real time    0.0392
    CHARGE:  cpu time    1.6840: real time    2.2347
    MIXING:  cpu time    0.0200: real time    0.0547
    --------------------------------------------
      LOOP:  cpu time   65.1320: real time   99.6134

 eigenvalue-minimisations  :  1296
 total energy-change (2. order) :-0.5430059E+00  (-0.5101176E-01)
 number of electron      57.9999998 magnetization       9.3100851
 augmentation part       -2.7259960 magnetization       7.3812388

 Broyden mixing:
  rms(total) = 0.28566E+00    rms(broyden)= 0.28566E+00
  rms(prec ) = 0.29437E+00
  weight for this iteration     100.00

 eigenvalues of (default mixing * dielectric matrix)
  average eigenvalue GAMMA=   1.1385
  2.6054  0.2252  1.1117  1.1117  0.6383

 Free energy of the ion-electron system (eV)
  ---------------------------------------------------
  alpha Z        PSCENC =        12.19922354
  Ewald energy   TEWEN  =      6462.22987265
  -Hartree energ DENC   =     -8463.21895703
  -exchange      EXHF   =         0.00000000
  -V(xc)+E(xc)   XCENC  =      -205.09856965
  PAW double counting   =      1238.56262598     -940.58032445
  entropy T*S    EENTRO =         0.00000000
  eigenvalues    EBANDS =      -402.60756359
  atomic energy  EATOM  =      2256.05692028
  Solvation  Ediel_sol  =         0.00000000
  ---------------------------------------------------
  free energy    TOTEN  =       -42.45677228 eV

  energy without entropy =      -42.45677228  energy(sigma->0) =      -42.45677228


--------------------------------------------------------------------------------------------------------




--------------------------------------- Iteration      1(  11)  ---------------------------------------


    POTLOK:  cpu time   39.0200: real time   58.8241
    SETDIJ:  cpu time    0.0200: real time    0.0390
     EDDAV:  cpu time   23.1120: real time   34.3533
 BZINTS: Fermi energy: -1.782900; 58.000000 electrons
         Band energy:-401.696836;  BLOECHL correction: -0.047242
       DOS:  cpu time    0.0120: real time    0.0280
    CHARGE:  cpu time    1.3520: real time    2.3777
    MIXING:  cpu time    0.0320: real time    0.0575
    --------------------------------------------
      LOOP:  cpu time   63.5480: real time   95.6795

 eigenvalue-minimisations  :  1128
 total energy-change (2. order) :-0.1321333E+00  (-0.9791922E-02)
 number of electron      57.9999998 magnetization       7.4767963
 augmentation part       -2.7953258 magnetization       5.6571151

 Broyden mixing:
  rms(total) = 0.21979E+00    rms(broyden)= 0.21979E+00
  rms(prec ) = 0.22597E+00
  weight for this iteration     100.00

 eigenvalues of (default mixing * dielectric matrix)
  average eigenvalue GAMMA=   1.3717
  3.8293  1.3618  1.3618  0.2253  0.8100  0.6420

 Free energy of the ion-electron system (eV)
  ---------------------------------------------------
  alpha Z        PSCENC =        12.19922354
  Ewald energy   TEWEN  =      6462.22987265
  -Hartree energ DENC   =     -8464.02257728
  -exchange      EXHF   =         0.00000000
  -V(xc)+E(xc)   XCENC  =      -205.20365356
  PAW double counting   =      1240.21744745     -942.36930270
  entropy T*S    EENTRO =         0.00000000
  eigenvalues    EBANDS =      -401.69683598
  atomic energy  EATOM  =      2256.05692028
  Solvation  Ediel_sol  =         0.00000000
  ---------------------------------------------------
  free energy    TOTEN  =       -42.58890560 eV

  energy without entropy =      -42.58890560  energy(sigma->0) =      -42.58890560


--------------------------------------------------------------------------------------------------------




--------------------------------------- Iteration      1(  12)  ---------------------------------------


    POTLOK:  cpu time   39.6560: real time   59.3645
    SETDIJ:  cpu time    0.0400: real time    0.0622
     EDDAV:  cpu time   22.7160: real time   34.0452
 BZINTS: Fermi energy: -1.762539; 58.000000 electrons
         Band energy:-400.425197;  BLOECHL correction: -0.040857
       DOS:  cpu time    0.0240: real time    0.0268
    CHARGE:  cpu time    1.4760: real time    2.3098
    MIXING:  cpu time    0.0520: real time    0.0549
    --------------------------------------------
      LOOP:  cpu time   63.9640: real time   95.8634

 eigenvalue-minimisations  :  1104
 total energy-change (2. order) :-0.2573408E+00  (-0.9703757E-02)
 number of electron      57.9999998 magnetization       6.3110950
 augmentation part       -2.9041531 magnetization       4.6140704

 Broyden mixing:
  rms(total) = 0.12019E+00    rms(broyden)= 0.12019E+00
  rms(prec ) = 0.12384E+00
  weight for this iteration     100.00

 eigenvalues of (default mixing * dielectric matrix)
  average eigenvalue GAMMA=   1.7587
  6.4620  1.6043  1.6043  0.2253  1.0302  0.7594  0.6251

 Free energy of the ion-electron system (eV)
  ---------------------------------------------------
  alpha Z        PSCENC =        12.19922354
  Ewald energy   TEWEN  =      6462.22987265
  -Hartree energ DENC   =     -8464.79902647
  -exchange      EXHF   =         0.00000000
  -V(xc)+E(xc)   XCENC  =      -205.66463054
  PAW double counting   =      1237.93152841     -940.37493763
  entropy T*S    EENTRO =         0.00000000
  eigenvalues    EBANDS =      -400.42519662
  atomic energy  EATOM  =      2256.05692028
  Solvation  Ediel_sol  =         0.00000000
  ---------------------------------------------------
  free energy    TOTEN  =       -42.84624639 eV

  energy without entropy =      -42.84624639  energy(sigma->0) =      -42.84624639


--------------------------------------------------------------------------------------------------------




--------------------------------------- Iteration      1(  13)  ---------------------------------------


    POTLOK:  cpu time   40.1400: real time   59.1100
    SETDIJ:  cpu time    0.0280: real time    0.0695
     EDDAV:  cpu time   20.1760: real time   30.2050
 BZINTS: Fermi energy: -1.760741; 58.000000 electrons
         Band energy:-399.711521;  BLOECHL correction: -0.041651
       DOS:  cpu time    0.0080: real time    0.0170
    CHARGE:  cpu time    1.5560: real time    2.3309
    MIXING:  cpu time    0.0440: real time    0.0723
    --------------------------------------------
      LOOP:  cpu time   61.9520: real time   91.8047

 eigenvalue-minimisations  :   960
 total energy-change (2. order) :-0.1057226E+00  (-0.3967707E-02)
 number of electron      57.9999998 magnetization       6.0096526
 augmentation part       -2.9311905 magnetization       4.3273774

 Broyden mixing:
  rms(total) = 0.61199E-01    rms(broyden)= 0.61199E-01
  rms(prec ) = 0.64522E-01
  weight for this iteration     100.00

 eigenvalues of (default mixing * dielectric matrix)
  average eigenvalue GAMMA=   1.9507
  8.3870  2.0107  1.3969  1.3969  0.2253  0.7876  0.7876  0.6139

 Free energy of the ion-electron system (eV)
  ---------------------------------------------------
  alpha Z        PSCENC =        12.19922354
  Ewald energy   TEWEN  =      6462.22987265
  -Hartree energ DENC   =     -8465.45430884
  -exchange      EXHF   =         0.00000000
  -V(xc)+E(xc)   XCENC  =      -206.11440139
  PAW double counting   =      1236.29087995     -938.44863370
  entropy T*S    EENTRO =         0.00000000
  eigenvalues    EBANDS =      -399.71152147
  atomic energy  EATOM  =      2256.05692028
  Solvation  Ediel_sol  =         0.00000000
  ---------------------------------------------------
  free energy    TOTEN  =       -42.95196899 eV

  energy without entropy =      -42.95196899  energy(sigma->0) =      -42.95196899


--------------------------------------------------------------------------------------------------------




--------------------------------------- Iteration      1(  14)  ---------------------------------------


    POTLOK:  cpu time   39.5720: real time   59.6589
    SETDIJ:  cpu time    0.0720: real time    0.0734
     EDDAV:  cpu time   20.5880: real time   32.3915
 BZINTS: Fermi energy: -1.757319; 58.000000 electrons
         Band energy:-399.196294;  BLOECHL correction: -0.042014
       DOS:  cpu time    0.0040: real time    0.0050
    CHARGE:  cpu time    1.5320: real time    2.3356
    MIXING:  cpu time    0.0320: real time    0.0715
    --------------------------------------------
      LOOP:  cpu time   61.8000: real time   94.5358

 eigenvalue-minimisations  :  1056
 total energy-change (2. order) :-0.4888302E-02  (-0.1323451E-02)
 number of electron      57.9999998 magnetization       5.9001514
 augmentation part       -2.9768939 magnetization       4.2098624

 Broyden mixing:
  rms(total) = 0.21083E-01    rms(broyden)= 0.21083E-01
  rms(prec ) = 0.21791E-01
  weight for this iteration     100.00

 eigenvalues of (default mixing * dielectric matrix)
  average eigenvalue GAMMA=   2.0232
  9.5788  2.4664  1.4423  1.4423  0.2253  0.9793  0.7326  0.7326  0.6093

 Free energy of the ion-electron system (eV)
  ---------------------------------------------------
  alpha Z        PSCENC =        12.19922354
  Ewald energy   TEWEN  =      6462.22987265
  -Hartree energ DENC   =     -8466.04151679
  -exchange      EXHF   =         0.00000000
  -V(xc)+E(xc)   XCENC  =      -206.09649358
  PAW double counting   =      1233.75114882     -935.85971798
  entropy T*S    EENTRO =         0.00000000
  eigenvalues    EBANDS =      -399.19629422
  atomic energy  EATOM  =      2256.05692028
  Solvation  Ediel_sol  =         0.00000000
  ---------------------------------------------------
  free energy    TOTEN  =       -42.95685730 eV

  energy without entropy =      -42.95685730  energy(sigma->0) =      -42.95685730


--------------------------------------------------------------------------------------------------------




--------------------------------------- Iteration      1(  15)  ---------------------------------------


    POTLOK:  cpu time   38.7240: real time   58.9253
    SETDIJ:  cpu time    0.0240: real time    0.0704
     EDDAV:  cpu time   20.0160: real time   31.2714
 BZINTS: Fermi energy: -1.754056; 58.000000 electrons
         Band energy:-398.960355;  BLOECHL correction: -0.042152
       DOS:  cpu time    0.0040: real time    0.0040
    CHARGE:  cpu time    1.6800: real time    2.3153
    MIXING:  cpu time    0.0480: real time    0.0842
    --------------------------------------------
      LOOP:  cpu time   60.4960: real time   92.6706

 eigenvalue-minimisations  :  1008
 total energy-change (2. order) : 0.4963267E-03  (-0.2240098E-03)
 number of electron      57.9999998 magnetization       5.8697621
 augmentation part       -2.9839605 magnetization       4.1802944

 Broyden mixing:
  rms(total) = 0.77757E-02    rms(broyden)= 0.77756E-02
  rms(prec ) = 0.87111E-02
  weight for this iteration     100.00

 eigenvalues of (default mixing * dielectric matrix)
  average eigenvalue GAMMA=   1.9629
  9.8220  2.5576  1.4436  1.4436  0.2253  1.2653  0.7885  0.7885  0.6107  0.6838

 Free energy of the ion-electron system (eV)
  ---------------------------------------------------
  alpha Z        PSCENC =        12.19922354
  Ewald energy   TEWEN  =      6462.22987265
  -Hartree energ DENC   =     -8466.30000274
  -exchange      EXHF   =         0.00000000
  -V(xc)+E(xc)   XCENC  =      -206.16381666
  PAW double counting   =      1233.86874566     -935.88694886
  entropy T*S    EENTRO =         0.00000000
  eigenvalues    EBANDS =      -398.96035483
  atomic energy  EATOM  =      2256.05692028
  Solvation  Ediel_sol  =         0.00000000
  ---------------------------------------------------
  free energy    TOTEN  =       -42.95636097 eV

  energy without entropy =      -42.95636097  energy(sigma->0) =      -42.95636097


--------------------------------------------------------------------------------------------------------




--------------------------------------- Iteration      1(  16)  ---------------------------------------


    POTLOK:  cpu time   36.7920: real time   58.1710
    SETDIJ:  cpu time    0.0320: real time    0.0714
     EDDAV:  cpu time   22.5920: real time   32.7686
 BZINTS: Fermi energy: -1.753059; 58.000000 electrons
         Band energy:-398.828851;  BLOECHL correction: -0.042141
       DOS:  cpu time    0.0040: real time    0.0072
    CHARGE:  cpu time    1.5240: real time    2.3014
    MIXING:  cpu time    0.0680: real time    0.0694
    --------------------------------------------
      LOOP:  cpu time   61.0120: real time   93.3891

 eigenvalue-minimisations  :  1056
 total energy-change (2. order) :-0.1181290E-03  (-0.4033852E-04)
 number of electron      57.9999998 magnetization       5.8584679
 augmentation part       -2.9805032 magnetization       4.1698618

 Broyden mixing:
  rms(total) = 0.38928E-02    rms(broyden)= 0.38928E-02
  rms(prec ) = 0.50644E-02
  weight for this iteration     100.00

 eigenvalues of (default mixing * dielectric matrix)
  average eigenvalue GAMMA=   1.9307
  9.8970  2.6487  1.8802  1.3972  1.3972  0.2253  0.9703  0.7819  0.7819  0.6065
  0.6511

 Free energy of the ion-electron system (eV)
  ---------------------------------------------------
  alpha Z        PSCENC =        12.19922354
  Ewald energy   TEWEN  =      6462.22987265
  -Hartree energ DENC   =     -8466.42827315
  -exchange      EXHF   =         0.00000000
  -V(xc)+E(xc)   XCENC  =      -206.17299836
  PAW double counting   =      1234.12509840     -936.13747190
  entropy T*S    EENTRO =         0.00000000
  eigenvalues    EBANDS =      -398.82885056
  atomic energy  EATOM  =      2256.05692028
  Solvation  Ediel_sol  =         0.00000000
  ---------------------------------------------------
  free energy    TOTEN  =       -42.95647910 eV

  energy without entropy =      -42.95647910  energy(sigma->0) =      -42.95647910


--------------------------------------------------------------------------------------------------------




--------------------------------------- Iteration      1(  17)  ---------------------------------------


    POTLOK:  cpu time   37.4960: real time   58.2609
    SETDIJ:  cpu time    0.0360: real time    0.0882
     EDDAV:  cpu time   20.3720: real time   30.8638
 BZINTS: Fermi energy: -1.751442; 58.000000 electrons
         Band energy:-398.721354;  BLOECHL correction: -0.042150
       DOS:  cpu time    0.0040: real time    0.0084
    --------------------------------------------
      LOOP:  cpu time   57.9080: real time   89.2212

 eigenvalue-minimisations  :   960
 total energy-change (2. order) : 0.8997367E-04  (-0.1650053E-04)
 number of electron      57.9999998 magnetization       5.8584679
 augmentation part       -2.9805032 magnetization       4.1698618

 Free energy of the ion-electron system (eV)
  ---------------------------------------------------
  alpha Z        PSCENC =        12.19922354
  Ewald energy   TEWEN  =      6462.22987265
  -Hartree energ DENC   =     -8466.53370623
  -exchange      EXHF   =         0.00000000
  -V(xc)+E(xc)   XCENC  =      -206.18059372
  PAW double counting   =      1234.33153801     -936.33828934
  entropy T*S    EENTRO =         0.00000000
  eigenvalues    EBANDS =      -398.72135430
  atomic energy  EATOM  =      2256.05692028
  Solvation  Ediel_sol  =         0.00000000
  ---------------------------------------------------
  free energy    TOTEN  =       -42.95638913 eV

  energy without entropy =      -42.95638913  energy(sigma->0) =      -42.95638913


--------------------------------------------------------------------------------------------------------




 average (electrostatic) potential at core
  the test charge radii are     1.1394  0.9587  1.1897
  (the norm of the test charge is              1.0000)
       1 -50.6044       2 -50.6044       3 -91.9445       4 -91.9445       5 -96.5704
       6 -96.5704       7 -96.5704       8 -96.5704       9 -96.5704      10 -96.5704



 E-fermi :  -1.7514     XC(G=0):  -3.6255     alpha+bet : -3.0669


 spin component 1

 k-point     1 :       0.0000    0.0000    0.0000
  band No.  band energies     occupation 
      1     -15.3298      1.00000
      2     -14.1697      1.00000
      3     -12.7994      1.00000
      4     -12.7994      1.00000
      5     -12.7536      1.00000
      6     -12.7536      1.00000
      7     -12.3653      1.00000
      8     -10.6484      1.00000
      9      -7.0474      1.00000
     10      -7.0474      1.00000
     11      -6.9166      1.00000
     12      -6.6570      1.00000
     13      -6.5118      1.00000
     14      -6.5118      1.00000
     15      -5.4120      1.00000
     16      -4.9348      1.00000
     17      -4.5194      1.00000
     18      -4.5194      1.00000
     19      -4.2420      1.00000
     20      -4.2420      1.00000
     21      -3.8259      1.00000
     22      -3.8259      1.00000
     23      -3.6880      1.00000
     24      -3.2765      1.00000
     25      -3.2765      1.00000
     26      -3.2367      1.00000
     27      -3.2009      1.00000
     28      -3.2009      1.00000
     29      -3.1714      1.00000
     30      -2.4684      1.00000
     31      -2.4684      1.00000
     32      -1.5165     -0.26791
     33      -1.2600      0.00000
     34      -1.2600      0.00000
     35      -1.2466      0.00000
     36      -0.5376      0.00000
     37      -0.5376      0.00000
     38      -0.1301      0.00000
     39      -0.1301      0.00000
     40       0.2833      0.00000
     41       0.5760      0.00000
     42       0.5761      0.00000
     43       1.6753      0.00000
     44       1.6885      0.00000
     45       2.1697      0.00000
     46       2.3749      0.00000
     47       2.9276      0.00000
     48       2.9277      0.00000

 k-point     2 :       0.2000    0.0000    0.0000
  band No.  band energies     occupation 
      1     -15.2461      1.00000
      2     -14.0866      1.00000
      3     -13.1948      1.00000
      4     -12.9206      1.00000
      5     -12.8749      1.00000
      6     -12.8073      1.00000
      7     -11.9644      1.00000
      8     -10.5973      1.00000
      9      -7.0336      1.00000
     10      -7.0266      1.00000
     11      -6.8040      1.00000
     12      -6.6675      1.00000
     13      -6.1908      1.00000
     14      -5.8404      1.00000
     15      -5.2136      1.00000
     16      -5.1518      1.00000
     17      -4.6804      1.00000
     18      -4.5616      1.00000
     19      -4.2275      1.00000
     20      -4.1388      1.00000
     21      -4.0926      1.00000
     22      -4.0781      1.00000
     23      -3.9651      1.00000
     24      -3.5438      1.00000
     25      -3.4688      1.00000
     26      -3.2678      1.00000
     27      -3.2602      1.00000
     28      -3.1626      1.00000
     29      -3.0306      1.00000
     30      -2.7554      1.00000
     31      -2.6438      1.00000
     32      -1.8135      0.89851
     33      -1.1428      0.00000
     34      -1.1256      0.00000
     35      -0.9626      0.00000
     36      -0.8379      0.00000
     37      -0.5948      0.00000
     38      -0.1673      0.00000
     39       0.1283      0.00000
     40       0.3284      0.00000
     41       0.6361      0.00000
     42       0.7981      0.00000
     43       1.8413      0.00000
     44       1.8772      0.00000
     45       2.3086      0.00000
     46       2.5405      0.00000
     47       2.7839      0.00000
     48       3.0105      0.00000

 k-point     3 :       0.4000    0.0000    0.0000
  band No.  band energies     occupation 
      1     -15.0741      1.00000
      2     -13.9046      1.00000
      3     -13.6360      1.00000
      4     -13.0926      1.00000
      5     -12.9975      1.00000
      6     -12.9710      1.00000
      7     -11.6141      1.00000
      8     -10.4955      1.00000
      9      -6.9689      1.00000
     10      -6.8939      1.00000
     11      -6.4546      1.00000
     12      -6.1964      1.00000
     13      -5.6126      1.00000
     14      -5.4965      1.00000
     15      -5.2805      1.00000
     16      -5.1000      1.00000
     17      -4.9341      1.00000
     18      -4.9104      1.00000
     19      -4.6014      1.00000
     20      -4.6007      1.00000
     21      -4.3598      1.00000
     22      -3.9226      1.00000
     23      -3.9130      1.00000
     24      -3.8123      1.00000
     25      -3.5099      1.00000
     26      -3.3622      1.00000
     27      -3.2600      1.00000
     28      -3.1050      1.00000
     29      -2.9729      1.00000
     30      -2.9007      1.00000
     31      -2.8623      1.00000
     32      -1.8107      1.00000
     33      -1.5032      0.00000
     34      -1.2833      0.00000
     35      -1.0926      0.00000
     36      -0.8538      0.00000
     37      -0.8112      0.00000
     38      -0.2737      0.00000
     39       0.2504      0.00000
     40       0.3942      0.00000
     41       0.7253      0.00000
     42       1.0003      0.00000
     43       1.8510      0.00000
     44       2.3589      0.00000
     45       2.6568      0.00000
     46       2.7868      0.00000
     47       3.0077      0.00000
     48       3.1061      0.00000

 k-point     4 :       0.4000    0.2000    0.0000
  band No.  band energies     occupation 
      1     -15.1138      1.00000
      2     -13.9495      1.00000
      3     -13.4824      1.00000
      4     -13.1752      1.00000
      5     -13.0109      1.00000
      6     -12.8666      1.00000
      7     -11.6559      1.00000
      8     -10.5007      1.00000
      9      -7.1259      1.00000
     10      -6.6957      1.00000
     11      -6.6484      1.00000
     12      -6.4373      1.00000
     13      -5.6637      1.00000
     14      -5.3521      1.00000
     15      -5.2595      1.00000
     16      -5.0279      1.00000
     17      -4.9735      1.00000
     18      -4.8925      1.00000
     19      -4.7658      1.00000
     20      -4.4750      1.00000
     21      -4.3593      1.00000
     22      -3.8700      1.00000
     23      -3.7996      1.00000
     24      -3.5403      1.00000
     25      -3.5213      1.00000
     26      -3.3692      1.00000
     27      -3.3307      1.00000
     28      -3.1640      1.00000
     29      -2.9788      1.00000
     30      -2.8797      1.00000
     31      -2.7801      1.00000
     32      -1.9980      1.00000
     33      -1.3843      0.00000
     34      -1.1362      0.00000
     35      -1.0282      0.00000
     36      -0.9062      0.00000
     37      -0.8375      0.00000
     38       0.0422      0.00000
     39       0.0875      0.00000
     40       0.2241      0.00000
     41       0.6135      0.00000
     42       0.8295      0.00000
     43       2.1152      0.00000
     44       2.1961      0.00000
     45       2.5754      0.00000
     46       2.8099      0.00000
     47       2.8361      0.00000
     48       2.9655      0.00000

 k-point     5 :      -0.4000    0.2000    0.0000
  band No.  band energies     occupation 
      1     -15.0119      1.00000
      2     -13.8343      1.00000
      3     -13.6384      1.00000
      4     -13.3241      1.00000
      5     -13.0971      1.00000
      6     -12.9543      1.00000
      7     -11.4881      1.00000
      8     -10.4234      1.00000
      9      -6.9684      1.00000
     10      -6.5787      1.00000
     11      -6.5707      1.00000
     12      -6.1779      1.00000
     13      -5.8938      1.00000
     14      -5.4551      1.00000
     15      -5.0745      1.00000
     16      -5.0212      1.00000
     17      -4.9444      1.00000
     18      -4.8977      1.00000
     19      -4.7078      1.00000
     20      -4.6092      1.00000
     21      -4.3925      1.00000
     22      -4.0825      1.00000
     23      -3.6036      1.00000
     24      -3.5754      1.00000
     25      -3.5531      1.00000
     26      -3.4037      1.00000
     27      -3.2529      1.00000
     28      -3.2119      1.00000
     29      -2.9984      1.00000
     30      -2.9526      1.00000
     31      -2.8187      1.00000
     32      -1.9969      1.00000
     33      -1.6314      0.00000
     34      -1.3888      0.00000
     35      -1.1445      0.00000
     36      -0.8427      0.00000
     37      -0.7461      0.00000
     38      -0.3385      0.00000
     39       0.2020      0.00000
     40       0.2300      0.00000
     41       0.4039      0.00000
     42       0.6998      0.00000
     43       2.2899      0.00000
     44       2.7188      0.00000
     45       2.7310      0.00000
     46       2.7972      0.00000
     47       2.9054      0.00000
     48       3.2401      0.00000

 spin component 2

 k-point     1 :       0.0000    0.0000    0.0000
  band No.  band energies     occupation 
      1     -15.3306      1.00000
      2     -14.2068      1.00000
      3     -12.8531      1.00000
      4     -12.8531      1.00000
      5     -12.8029      1.00000
      6     -12.8028      1.00000
      7     -12.3484      1.00000
      8     -10.6548      1.00000
      9      -6.9771      1.00000
     10      -6.9771      1.00000
     11      -6.8346      1.00000
     12      -6.4566      1.00000
     13      -6.4566      1.00000
     14      -6.3553      1.00000
     15      -5.3637      1.00000
     16      -4.6753      1.00000
     17      -4.0041      1.00000
     18      -4.0041      1.00000
     19      -3.7238      1.00000
     20      -3.7213      1.00000
     21      -3.7213      1.00000
     22      -3.4184      1.00000
     23      -3.4184      1.00000
     24      -2.5672      1.00000
     25      -2.5671      1.00000
     26      -1.6546      0.00000
     27      -1.5156      0.00000
     28      -0.9107      0.00000
     29      -0.9107      0.00000
     30      -0.8546      0.00000
     31      -0.8546      0.00000
     32      -0.3604      0.00000
     33      -0.3141      0.00000
     34      -0.1591      0.00000
     35      -0.1591      0.00000
     36       0.2841      0.00000
     37       0.4246      0.00000
     38       0.4246      0.00000
     39       0.6043      0.00000
     40       0.6043      0.00000
     41       0.7933      0.00000
     42       0.7933      0.00000
     43       1.7638      0.00000
     44       2.0819      0.00000
     45       2.2805      0.00000
     46       2.4768      0.00000
     47       3.2103      0.00000
     48       3.2103      0.00000

 k-point     2 :       0.2000    0.0000    0.0000
  band No.  band energies     occupation 
      1     -15.2483      1.00000
      2     -14.1226      1.00000
      3     -13.2194      1.00000
      4     -12.9737      1.00000
      5     -12.9193      1.00000
      6     -12.8575      1.00000
      7     -11.9774      1.00000
      8     -10.6034      1.00000
      9      -6.9780      1.00000
     10      -6.9085      1.00000
     11      -6.6988      1.00000
     12      -6.5844      1.00000
     13      -6.1246      1.00000
     14      -5.6444      1.00000
     15      -5.0628      1.00000
     16      -4.8912      1.00000
     17      -4.1560      1.00000
     18      -4.1452      1.00000
     19      -4.1368      1.00000
     20      -3.7254      1.00000
     21      -3.6460      1.00000
     22      -3.5777      1.00000
     23      -3.5098      1.00000
     24      -3.4973      1.00000
     25      -2.8890      1.00000
     26      -1.4902      0.19902
     27      -1.4236      0.00000
     28      -0.9932      0.00000
     29      -0.9050      0.00000
     30      -0.6743      0.00000
     31      -0.6021      0.00000
     32      -0.4064      0.00000
     33      -0.2627      0.00000
     34      -0.1044      0.00000
     35       0.0078      0.00000
     36       0.0134      0.00000
     37       0.1371      0.00000
     38       0.2555      0.00000
     39       0.6291      0.00000
     40       0.7522      0.00000
     41       0.9274      0.00000
     42       1.1326      0.00000
     43       1.9325      0.00000
     44       2.2381      0.00000
     45       2.3950      0.00000
     46       2.6423      0.00000
     47       3.0535      0.00000
     48       3.3002      0.00000

 k-point     3 :       0.4000    0.0000    0.0000
  band No.  band energies     occupation 
      1     -15.0792      1.00000
      2     -13.9367      1.00000
      3     -13.6518      1.00000
      4     -13.1465      1.00000
      5     -13.0326      1.00000
      6     -13.0234      1.00000
      7     -11.6387      1.00000
      8     -10.5004      1.00000
      9      -6.8550      1.00000
     10      -6.8422      1.00000
     11      -6.3798      1.00000
     12      -6.1313      1.00000
     13      -5.5470      1.00000
     14      -5.2926      1.00000
     15      -5.0689      1.00000
     16      -4.9013      1.00000
     17      -4.5613      1.00000
     18      -4.5242      1.00000
     19      -4.3204      1.00000
     20      -4.3146      1.00000
     21      -3.7894      1.00000
     22      -3.6383      1.00000
     23      -3.4830      1.00000
     24      -3.4140      1.00000
     25      -3.2306      1.00000
     26      -2.2254      1.01882
     27      -1.6077      0.05789
     28      -1.1281      0.00000
     29      -0.7512      0.00000
     30      -0.6567      0.00000
     31      -0.5628      0.00000
     32      -0.5146      0.00000
     33      -0.4317      0.00000
     34      -0.2157      0.00000
     35       0.0924      0.00000
     36       0.1420      0.00000
     37       0.2108      0.00000
     38       0.3108      0.00000
     39       0.6501      0.00000
     40       0.8933      0.00000
     41       1.0649      0.00000
     42       1.2311      0.00000
     43       2.2581      0.00000
     44       2.4259      0.00000
     45       2.6449      0.00000
     46       2.9585      0.00000
     47       3.0539      0.00000
[...]
     34       0.1382      0.00000
     35       0.1582      0.00000
     36       0.5109      0.00000
     37       0.5491      0.00000
     38       0.6886      0.00000
     39       0.9368      0.00000
     40       1.1154      0.00000
     41       1.1920      0.00000
     42       1.5792      0.00000
     43       2.4940      0.00000
     44       2.7748      0.00000
     45       2.8677      0.00000
     46       3.3307      0.00000
     47       3.3598      0.00000
     48       3.7604      0.00000

 k-point     5 :      -0.4000    0.2000    0.0000
  band No.  band energies     occupation 
      1     -15.2398      1.00000
      2     -13.6339      1.00000
      3     -13.5673      1.00000
      4     -13.2469      1.00000
      5     -12.9693      1.00000
      6     -12.8298      1.00000
      7     -11.5706      1.00000
      8     -10.1011      1.00000
      9      -6.8643      1.00000
     10      -6.5518      1.00000
     11      -6.4837      1.00000
     12      -5.9873      1.00000
     13      -5.6041      1.00000
     14      -5.1740      1.00000
     15      -4.7969      1.00000
     16      -4.5994      1.00000
     17      -4.4300      1.00000
     18      -4.4021      1.00000
     19      -4.2576      1.00000
     20      -4.0332      1.00000
     21      -3.5880      1.00000
     22      -3.5554      1.00000
     23      -3.1651      1.00000
     24      -3.0204      1.00000
     25      -2.9687      1.00000
     26      -2.3638      1.00000
     27      -1.6897      0.98542
     28      -1.1594      0.00000
     29      -0.9217      0.00000
     30      -0.4789      0.00000
     31      -0.4044      0.00000
     32      -0.2723      0.00000
     33      -0.0677      0.00000
     34       0.0822      0.00000
     35       0.1733      0.00000
     36       0.5153      0.00000
     37       0.5984      0.00000
     38       0.6708      0.00000
     39       0.9905      0.00000
     40       1.0200      0.00000
     41       1.3569      0.00000
     42       1.4332      0.00000
     43       2.9243      0.00000
     44       2.9725      0.00000
     45       3.0491      0.00000
     46       3.1498      0.00000
     47       3.2060      0.00000
     48       3.5095      0.00000


--------------------------------------------------------------------------------------------------------


 soft charge-density along one line, spin component           1
         0         1         2         3         4         5         6         7         8         9
 total charge-density along one line

 soft charge-density along one line, spin component           2
         0         1         2         3         4         5         6         7         8         9
 total charge-density along one line

 pseudopotential strength for first ion, spin component:           1
 -8.319   0.071  -0.000  -0.000   0.000   0.554  -0.019   0.000
  0.071  -8.231   0.000   0.000  -0.000  -0.019   0.530  -0.000
 -0.000   0.000  -8.390   0.000   0.000   0.000  -0.000   0.574
 -0.000   0.000   0.000  -8.231  -0.071   0.000  -0.000  -0.000
  0.000  -0.000   0.000  -0.071  -8.319  -0.000   0.000  -0.000
  0.554  -0.019   0.000   0.000  -0.000   0.398   0.005  -0.000
 -0.019   0.530  -0.000  -0.000   0.000   0.005   0.404   0.000
  0.000  -0.000   0.574  -0.000  -0.000  -0.000   0.000   0.393
  0.000  -0.000  -0.000   0.530   0.019  -0.000   0.000   0.000
 -0.000   0.000  -0.000   0.019   0.554   0.000  -0.000   0.000
 -0.000  -0.000  -0.001  -0.000   0.000  -0.000   0.000   0.000
  0.000   0.000   0.000   0.000  -0.000  -0.000  -0.000  -0.000
  0.000   0.000   0.000  -0.000   0.001  -0.000  -0.000  -0.000
 -0.000  -0.000   0.000  -0.000  -0.000   0.000   0.000  -0.000
  0.001  -0.000   0.000   0.000  -0.000  -0.000   0.000  -0.000
 -0.000  -0.000  -0.000   0.000  -0.001   0.000   0.000   0.000
  0.000   0.000  -0.000   0.000   0.000  -0.000  -0.000   0.000
 -0.001   0.000  -0.000  -0.000   0.000   0.000  -0.000   0.000
 pseudopotential strength for first ion, spin component:           2
 -6.735  -0.135  -0.000   0.000   0.000   0.107   0.035   0.000
 -0.135  -6.896   0.000   0.000   0.000   0.035   0.149  -0.000
 -0.000   0.000  -6.604   0.000   0.000   0.000  -0.000   0.073
  0.000   0.000   0.000  -6.896   0.135  -0.000  -0.000  -0.000
  0.000   0.000   0.000   0.135  -6.735  -0.000  -0.000  -0.000
  0.107   0.035   0.000  -0.000  -0.000   0.520  -0.009  -0.000
  0.035   0.149  -0.000  -0.000  -0.000  -0.009   0.510   0.000
  0.000  -0.000   0.073  -0.000  -0.000  -0.000   0.000   0.529
 -0.000  -0.000  -0.000   0.149  -0.035   0.000   0.000   0.000
 -0.000  -0.000  -0.000  -0.035   0.107   0.000   0.000   0.000
 -0.000  -0.000   0.003  -0.000   0.000  -0.000   0.000  -0.000
  0.000   0.000  -0.000   0.000  -0.000  -0.000  -0.000   0.000
  0.000   0.000   0.000  -0.000   0.001  -0.000  -0.000  -0.000
 -0.000  -0.000   0.000  -0.000   0.000   0.000   0.000  -0.000
  0.001  -0.000   0.000   0.000  -0.000  -0.000   0.000  -0.000
 -0.000  -0.000  -0.000   0.000  -0.001   0.000   0.000   0.000
  0.000   0.000  -0.000   0.000  -0.000  -0.000  -0.000   0.000
 -0.001   0.000  -0.000  -0.000   0.000   0.000  -0.000   0.000
 total augmentation occupancy for first ion, spin component:           1
  0.987  -0.036   0.000   0.000  -0.000   0.063   0.173  -0.000  -0.000   0.000  -0.000  -0.000   0.000   0.000   0.011   0.000
 -0.036   0.979  -0.000  -0.000   0.000   0.173   0.259   0.000   0.000  -0.000   0.000   0.000   0.000   0.000  -0.006   0.000
  0.000  -0.000   1.018  -0.000  -0.000  -0.000   0.000  -0.078   0.000   0.000  -0.002  -0.012  -0.000   0.000   0.000  -0.000
  0.000  -0.000  -0.000   0.979   0.036  -0.000  -0.000   0.000   0.259  -0.173   0.000  -0.000   0.006   0.000   0.000   0.000
 -0.000   0.000  -0.000   0.036   0.987  -0.000  -0.000   0.000  -0.173   0.063   0.000   0.000   0.011  -0.000  -0.000   0.000
  0.063   0.173  -0.000  -0.000  -0.000   0.135   0.077   0.000  -0.000  -0.000   0.000  -0.000  -0.000   0.000   0.018   0.000
  0.173   0.259   0.000  -0.000  -0.000   0.077   0.217   0.000  -0.000  -0.000  -0.000  -0.000   0.000   0.000  -0.002   0.000
 -0.000   0.000  -0.078   0.000   0.000   0.000   0.000   0.117   0.000  -0.000   0.041  -0.008  -0.000   0.001   0.000   0.000
 -0.000   0.000   0.000   0.259  -0.173  -0.000  -0.000   0.000   0.217  -0.077   0.000   0.000   0.002   0.000   0.000  -0.000
  0.000  -0.000   0.000  -0.173   0.063  -0.000  -0.000  -0.000  -0.077   0.135  -0.000   0.000   0.018  -0.000   0.000  -0.001
 -0.000   0.000  -0.002   0.000   0.000   0.000  -0.000   0.041   0.000  -0.000   1.061  -0.155   0.000   0.001  -0.000   0.000
 -0.000   0.000  -0.012  -0.000   0.000  -0.000   0.000  -0.008   0.000   0.000  -0.155   0.056   0.000  -0.000  -0.000   0.000
  0.000   0.000  -0.000   0.006   0.011  -0.000   0.000  -0.000   0.002   0.018   0.000   0.000   0.211   0.000  -0.000  -0.001
  0.000   0.000   0.000   0.000  -0.000   0.000  -0.000   0.001   0.000  -0.000   0.001  -0.000   0.000   0.225   0.000  -0.000
  0.011  -0.006   0.000   0.000  -0.000   0.018  -0.002   0.000   0.000   0.000   0.000  -0.000  -0.000   0.000   0.211  -0.000
  0.000   0.000  -0.000   0.000   0.000   0.000   0.000   0.000  -0.000  -0.001   0.000   0.000  -0.001   0.000  -0.000   0.000
  0.000   0.000   0.000  -0.000  -0.000  -0.000   0.000  -0.000   0.000   0.000  -0.000   0.000  -0.000  -0.002   0.000   0.000
  0.000  -0.000   0.000   0.000  -0.000  -0.001   0.000  -0.000   0.000  -0.000  -0.000  -0.000   0.000  -0.000  -0.001  -0.000
 total augmentation occupancy for first ion, spin component:           2
  0.700  -0.233   0.000   0.000  -0.000  -0.128   0.031  -0.000  -0.000  -0.000  -0.000  -0.000   0.000  -0.000   0.000  -0.000
 -0.233   0.419  -0.000  -0.000   0.000   0.033  -0.096   0.000  -0.000  -0.000  -0.000   0.000  -0.000   0.000   0.005   0.000
  0.000  -0.000   0.908  -0.000  -0.000  -0.000   0.000  -0.175   0.000   0.000  -0.028  -0.005  -0.000  -0.000   0.000  -0.000
  0.000  -0.000  -0.000   0.419   0.233  -0.000   0.000   0.000  -0.096  -0.033  -0.000  -0.000  -0.005  -0.000  -0.000   0.000
 -0.000   0.000  -0.000   0.233   0.700   0.000  -0.000   0.000  -0.031  -0.128   0.000   0.000   0.000   0.000  -0.000   0.001
 -0.128   0.033  -0.000  -0.000   0.000  -0.011  -0.033   0.000   0.000   0.000   0.000   0.000  -0.000   0.000  -0.003  -0.000
  0.031  -0.096   0.000   0.000  -0.000  -0.033  -0.048  -0.000   0.000   0.000   0.000   0.000  -0.000   0.000   0.003   0.000
 -0.000   0.000  -0.175   0.000   0.000   0.000  -0.000   0.029  -0.000  -0.000   0.008   0.003   0.000   0.000  -0.000   0.000
 -0.000  -0.000   0.000  -0.096  -0.031   0.000   0.000  -0.000  -0.048   0.033   0.000   0.000  -0.003   0.000  -0.000  -0.000
 -0.000  -0.000   0.000  -0.033  -0.128   0.000   0.000  -0.000   0.033  -0.011  -0.000  -0.000  -0.003  -0.000   0.000  -0.000
 -0.000  -0.000  -0.028  -0.000   0.000   0.000   0.000   0.008   0.000  -0.000   0.172   0.061   0.000  -0.000   0.000   0.000
 -0.000   0.000  -0.005  -0.000   0.000   0.000   0.000   0.003   0.000  -0.000   0.061  -0.018   0.000   0.000  -0.000   0.000
  0.000  -0.000  -0.000  -0.005   0.000  -0.000  -0.000   0.000  -0.003  -0.003  -0.000   0.000   0.029  -0.000  -0.000   0.003
 -0.000   0.000  -0.000  -0.000   0.000   0.000   0.000   0.000   0.000  -0.000  -0.000   0.000   0.000   0.024  -0.000  -0.000
  0.000   0.005   0.000  -0.000  -0.000  -0.003   0.003  -0.000  -0.000   0.000   0.000  -0.000  -0.000  -0.000   0.029   0.000
 -0.000   0.000  -0.000   0.000   0.001  -0.000   0.000   0.000  -0.000  -0.000   0.000   0.000   0.003  -0.000   0.000   0.000
  0.000   0.000   0.000  -0.000  -0.000   0.000  -0.000   0.000   0.000  -0.000   0.000  -0.000  -0.000   0.003   0.000  -0.000
  0.001  -0.000   0.000   0.000   0.000  -0.000   0.000  -0.000   0.000   0.000  -0.000  -0.000  -0.000   0.000   0.003  -0.000


------------------------ aborting loop because EDIFF is reached ----------------------------------------





 total charge     

# of ion       s       p       d       tot
------------------------------------------
    1        0.342   0.432   4.288   5.062
    2        0.342   0.432   4.288   5.062
    3        1.116   1.304   0.000   2.420
    4        1.116   1.304   0.000   2.420
    5        1.404   1.953   0.039   3.396
    6        1.391   1.915   0.040   3.346
    7        1.401   1.940   0.039   3.381
    8        1.404   1.953   0.039   3.396
    9        1.391   1.915   0.040   3.346
   10        1.401   1.940   0.039   3.381
--------------------------------------------------
tot         11.309  15.089   8.812  35.210



 magnetization (x)

# of ion       s       p       d       tot
------------------------------------------
    1        0.041   0.048   2.879   2.968
    2        0.041   0.048   2.879   2.968
    3        0.004   0.013   0.000   0.017
    4        0.004   0.013   0.000   0.017
    5        0.002  -0.068   0.005  -0.061
    6       -0.001  -0.066   0.005  -0.062
    7        0.000  -0.071   0.005  -0.066
    8        0.002  -0.068   0.005  -0.061
    9       -0.001  -0.066   0.005  -0.062
   10        0.000  -0.071   0.005  -0.066
--------------------------------------------------
tot          0.091  -0.290   5.789   5.590

    CHARGE:  cpu time    1.6480: real time    2.4078
    FORLOC:  cpu time    0.0320: real time    0.0765
    FORNL :  cpu time    4.2720: real time    6.9413
    STRESS:  cpu time   12.9360: real time   20.3305
    FORCOR:  cpu time   38.1960: real time   58.7515
    FORHAR:  cpu time    0.1760: real time    0.2755
    MIXING:  cpu time    0.0240: real time    0.0502
    OFIELD:  cpu time    0.0000: real time    0.0000

  FORCE on cell =-STRESS in cart. coord.  units (eV):
  Direction    XX          YY          ZZ          XY          YZ          ZX
  --------------------------------------------------------------------------------------
  Alpha Z    12.72642    12.72642    12.72642
  Ewald    7893.26158  7893.25916 -9436.22265    -0.00106    -0.00044    -0.00080
  Hartree  8218.76603  8218.76641 -8076.94082     0.00003     0.00006     0.00010
  E(xc)    -230.40287  -230.40286  -230.72348     0.00002     0.00002     0.00002
  Local  -17025.23702-17025.23588 16564.39421     0.00075     0.00027     0.00050
  n-local   753.18430   753.10771   773.98161    -0.25847     0.53266     0.42301
  augment  -121.05370  -121.05361  -129.36489     0.00002     0.00002     0.00002
  Kinetic   502.73458   494.43747   521.76789    -5.65421    -0.46042    -0.46887
  Fock        0.00000     0.00000     0.00000     0.00000     0.00000     0.00000
  -------------------------------------------------------------------------------------
  Total      -0.20794    -0.20794    -0.38171     0.00000     0.00000     0.00000
  in kB      -0.35873    -0.35873    -0.65852     0.00000     0.00000     0.00000
  external pressure =       -0.46 kB  Pullay stress =        0.00 kB


 VOLUME and BASIS-vectors are now :
 -----------------------------------------------------------------------------
  energy-cutoff  :      520.00
  volume of cell :      928.70
      direct lattice vectors                 reciprocal lattice vectors
     6.855653776  0.000000006 -0.000000000     0.145865009 -0.084215195  0.000000000
     3.427826395  5.937169975  0.000000000    -0.000000000  0.168430415 -0.000000000
    -0.000000000  0.000000000 22.816419022     0.000000000 -0.000000000  0.043828087

  length of vectors
     6.855653776  6.855653222 22.816419022     0.168430401  0.168430415  0.043828087


 FORCES acting on ions
    electron-ion (+dipol)            ewald-force                    non-local-force                 convergence-correction
 -----------------------------------------------------------------------------------------------
   -.489E-04 -.307E-04 0.672E+00   0.339E-03 0.200E-03 -.675E+00   0.104E-16 0.347E-17 -.147E-02   0.170E-07 0.713E-08 0.776E-04
   0.489E-04 0.307E-04 -.672E+00   -.339E-03 -.200E-03 0.675E+00   -.694E-17 0.697E-23 0.147E-02   -.170E-07 -.713E-08 -.776E-04
   -.383E-04 -.246E-04 0.213E+03   -.172E-03 -.951E-04 -.216E+03   0.128E-16 -.562E-17 0.317E+01   -.441E-08 -.113E-07 0.220E-01
   0.383E-04 0.246E-04 -.213E+03   0.172E-03 0.951E-04 0.216E+03   0.220E-17 0.121E-16 -.317E+01   0.441E-08 0.113E-07 -.220E-01
   0.134E+01 0.149E+00 -.357E+03   -.408E+01 -.146E+00 0.361E+03   0.263E+01 -.969E-02 -.404E+01   -.922E-02 0.108E-04 -.524E-01
   -.542E+00 -.124E+01 -.357E+03   0.191E+01 0.361E+01 0.361E+03   -.132E+01 -.227E+01 -.404E+01   0.462E-02 0.798E-02 -.524E-01
   -.800E+00 0.109E+01 -.357E+03   0.217E+01 -.346E+01 0.361E+03   -.131E+01 0.228E+01 -.404E+01   0.460E-02 -.799E-02 -.524E-01
   -.134E+01 -.149E+00 0.357E+03   0.408E+01 0.146E+00 -.361E+03   -.263E+01 0.969E-02 0.404E+01   0.922E-02 -.108E-04 0.524E-01
   0.542E+00 0.124E+01 0.357E+03   -.191E+01 -.361E+01 -.361E+03   0.132E+01 0.227E+01 0.404E+01   -.462E-02 -.798E-02 0.524E-01
   0.800E+00 -.109E+01 0.357E+03   -.217E+01 0.346E+01 -.361E+03   0.131E+01 -.228E+01 0.404E+01   -.460E-02 0.799E-02 0.524E-01
 -----------------------------------------------------------------------------------------------
   -.446E-10 -.965E-10 0.321E-10   0.000E+00 -.622E-14 0.568E-13   -.222E-15 -.444E-15 0.000E+00   0.156E-13 -.897E-14 0.838E-11


 POSITION                                       TOTAL-FORCE (eV/Angst)
 -----------------------------------------------------------------------------------
      3.42782      1.97905     11.40650        -0.000000     -0.000000     -0.004873
      6.85566      3.95812     11.40992        -0.000000     -0.000000      0.004873
     -0.00000      0.00000     10.28476        -0.000000     -0.000000     -0.007479
     -0.00000      0.00000     12.53166        -0.000000     -0.000000      0.007479
      4.29553      0.00249     13.09097        -0.120176     -0.006044     -0.002547
      1.28223      2.21589     13.09097         0.054854      0.107098     -0.002547
      4.70574      3.71879     13.09097         0.065322     -0.101054     -0.002547
      5.98795      5.93468      9.72545         0.120176      0.006044      0.002547
      9.00125      3.72128      9.72545        -0.054854     -0.107098      0.002547
      5.57774      2.21838      9.72545        -0.065322      0.101054      0.002547
 -----------------------------------------------------------------------------------
    total drift:                               -0.000000     -0.000000      0.000000


--------------------------------------------------------------------------------------------------------



  FREE ENERGIE OF THE ION-ELECTRON SYSTEM (eV)
  ---------------------------------------------------
  free  energy   TOTEN  =       -43.11179976 eV

  energy  without entropy=      -43.11179976  energy(sigma->0) =      -43.11179976

 d Force = 0.1232057E-05[-0.101E-04, 0.126E-04]  d Energy = 0.5547498E-05-0.432E-05
 d Force =-0.2922537E+00[-0.292E+00,-0.292E+00]  d Ewald  =-0.2300945E+01 0.201E+01


--------------------------------------------------------------------------------------------------------


    POTLOK:  cpu time   39.6840: real time   59.6928


--------------------------------------------------------------------------------------------------------




--------------------------------------------------------------------------------------------------------


  
 reached required accuracy - stopping structural energy minimisation
     LOOP+:  cpu time  278.4680: real time  421.3024
    4ORBIT:  cpu time    0.0000: real time    0.0000



 total charge     

# of ion       s       p       d       tot
------------------------------------------
    1        0.342   0.432   4.288   5.062
    2        0.342   0.432   4.288   5.062
    3        1.116   1.304   0.000   2.420
    4        1.116   1.304   0.000   2.420
    5        1.404   1.953   0.039   3.396
    6        1.391   1.915   0.040   3.346
    7        1.401   1.940   0.039   3.381
    8        1.404   1.953   0.039   3.396
    9        1.391   1.915   0.040   3.346
   10        1.401   1.940   0.039   3.381
--------------------------------------------------
tot         11.309  15.089   8.812  35.210



 magnetization (x)

# of ion       s       p       d       tot
------------------------------------------
    1        0.041   0.048   2.879   2.968
    2        0.041   0.048   2.879   2.968
    3        0.004   0.013   0.000   0.017
    4        0.004   0.013   0.000   0.017
    5        0.002  -0.068   0.005  -0.061
    6       -0.001  -0.066   0.005  -0.062
    7        0.000  -0.071   0.005  -0.066
    8        0.002  -0.068   0.005  -0.061
    9       -0.001  -0.066   0.005  -0.062
   10        0.000  -0.071   0.005  -0.066
--------------------------------------------------
tot          0.091  -0.290   5.789   5.590

 BZINTS: Fermi energy: -1.468829; 58.000000 electrons
         Band energy:-390.910961;  BLOECHL correction: -0.039606

 total amount of memory used by VASP MPI-rank0   114493. kBytes
=======================================================================

   base      :      30000. kBytes
   nonlr-proj:       7947. kBytes
   fftplans  :       8558. kBytes
   grid      :      59268. kBytes
   one-center:        311. kBytes
   wavefun   :       8409. kBytes

  
  
 General timing and accounting informations for this job:
 ========================================================
  
                  Total CPU time used (sec):     3815.324
                            User time (sec):     3464.800
                          System time (sec):      350.524
                         Elapsed time (sec):     5779.124
  
                   Maximum memory used (kb):      321880.
                   Average memory used (kb):           0.
  
                          Minor page faults:      3925534
                          Major page faults:            8
                 Voluntary context switches:         1106
