PROCAR lm decomposed
# of k-points:    5         # of bands:   48         # of ions:   10

 k-point     1 :    0.00000000 0.00000000 0.00000000     weight = 0.04000000

band     1 # energy  -15.51575054 # occ.  1.00000000

ion      s     py     pz     px    dxy    dyz    dz2    dxz  x2-y2    tot
    1  0.007  0.000  0.000  0.000  0.000  0.000  0.000  0.000  0.000  0.007
    2  0.007  0.000  0.000  0.000  0.000  0.000  0.000  0.000  0.000  0.007
    3  0.148  0.000  0.004  0.000  0.000  0.000  0.000  0.000  0.000  0.153
    4  0.148  0.000  0.004  0.000  0.000  0.000  0.000  0.000  0.000  0.153
    5  0.039  0.000  0.001  0.001  0.000  0.000  0.000  0.000  0.000  0.041
    6  0.039  0.001  0.001  0.000  0.000  0.000  0.000  0.000  0.000  0.041
    7  0.039  0.001  0.001  0.000  0.000  0.000  0.000  0.000  0.000  0.041
    8  0.039  0.000  0.001  0.001  0.000  0.000  0.000  0.000  0.000  0.041
    9  0.039  0.001  0.001  0.000  0.000  0.000  0.000  0.000  0.000  0.041
   10  0.039  0.001  0.001  0.000  0.000  0.000  0.000  0.000  0.000  0.041
tot    0.547  0.004  0.012  0.004  0.000  0.000  0.000  0.000  0.000  0.568

band     2 # energy  -13.96754755 # occ.  1.00000000

ion      s     py     pz     px    dxy    dyz    dz2    dxz  x2-y2    tot
    1  0.000  0.000  0.006  0.000  0.000  0.000  0.000  0.000  0.000  0.006
    2  0.000  0.000  0.006  0.000  0.000  0.000  0.000  0.000  0.000  0.006
    3  0.068  0.000  0.003  0.000  0.000  0.000  0.000  0.000  0.000  0.070
    4  0.068  0.000  0.003  0.000  0.000  0.000  0.000  0.000  0.000  0.070
    5  0.079  0.000  0.000  0.001  0.000  0.000  0.000  0.000  0.000  0.080
    6  0.079  0.001  0.000  0.000  0.000  0.000  0.000  0.000  0.000  0.080
    7  0.079  0.001  0.000  0.000  0.000  0.000  0.000  0.000  0.000  0.080
    8  0.079  0.000  0.000  0.001  0.000  0.000  0.000  0.000  0.000  0.080
    9  0.079  0.001  0.000  0.000  0.000  0.000  0.000  0.000  0.000  0.080
   10  0.079  0.001  0.000  0.000  0.000  0.000  0.000  0.000  0.000  0.080
tot    0.607  0.003  0.017  0.003  0.000  0.000  0.001  0.000  0.000  0.631

band     3 # energy  -12.65184186 # occ.  1.00000000

ion      s     py     pz     px    dxy    dyz    dz2    dxz  x2-y2    tot
    1  0.000  0.007  0.000  0.001  0.000  0.000  0.000  0.001  0.002  0.012
    2  0.000  0.007  0.000  0.001  0.000  0.000  0.000  0.001  0.002  0.012
    3  0.000  0.001  0.000  0.005  0.000  0.000  0.000  0.000  0.000  0.005
    4  0.000  0.001  0.000  0.005  0.000  0.000  0.000  0.000  0.000  0.005
    5  0.202  0.000  0.001  0.000  0.000  0.000  0.000  0.000  0.000  0.203
    6  0.128  0.000  0.001  0.000  0.000  0.000  0.000  0.000  0.000  0.129
    7  0.008  0.000  0.000  0.000  0.000  0.000  0.000  0.000  0.000  0.009
    8  0.202  0.000  0.001  0.000  0.000  0.000  0.000  0.000  0.000  0.203
    9  0.128  0.000  0.001  0.000  0.000  0.000  0.000  0.000  0.000  0.129
   10  0.008  0.000  0.000  0.000  0.000  0.000  0.000  0.000  0.000  0.009
tot    0.677  0.016  0.003  0.012  0.001  0.000  0.000  0.003  0.004  0.715

band     4 # energy  -12.65181452 # occ.  1.00000000

ion      s     py     pz     px    dxy    dyz    dz2    dxz  x2-y2    tot
    1  0.000  0.001  0.000  0.007  0.002  0.001  0.000  0.000  0.000  0.012
    2  0.000  0.001  0.000  0.007  0.002  0.001  0.000  0.000  0.000  0.012
    3  0.000  0.005  0.000  0.001  0.000  0.000  0.000  0.000  0.000  0.005
    4  0.000  0.005  0.000  0.001  0.000  0.000  0.000  0.000  0.000  0.005
    5  0.024  0.000  0.000  0.000  0.000  0.000  0.000  0.000  0.000  0.024
    6  0.098  0.000  0.000  0.000  0.000  0.000  0.000  0.000  0.000  0.098
    7  0.217  0.000  0.001  0.000  0.000  0.000  0.000  0.000  0.000  0.218
    8  0.024  0.000  0.000  0.000  0.000  0.000  0.000  0.000  0.000  0.024
    9  0.098  0.000  0.000  0.000  0.000  0.000  0.000  0.000  0.000  0.098
   10  0.217  0.000  0.001  0.000  0.000  0.000  0.000  0.000  0.000  0.218
tot    0.677  0.012  0.003  0.016  0.004  0.003  0.000  0.000  0.001  0.715

band     5 # energy  -12.60871887 # occ.  1.00000000

ion      s     py     pz     px    dxy    dyz    dz2    dxz  x2-y2    tot
    1  0.000  0.000  0.000  0.002  0.003  0.007  0.000  0.000  0.000  0.012
    2  0.000  0.000  0.000  0.002  0.003  0.007  0.000  0.000  0.000  0.012
    3  0.000  0.000  0.000  0.010  0.000  0.000  0.000  0.000  0.000  0.010
    4  0.000  0.000  0.000  0.010  0.000  0.000  0.000  0.000  0.000  0.010
    5  0.217  0.000  0.001  0.001  0.000  0.000  0.000  0.000  0.000  0.218
    6  0.080  0.000  0.000  0.000  0.000  0.000  0.000  0.000  0.000  0.081
    7  0.033  0.000  0.000  0.000  0.000  0.000  0.000  0.000  0.000  0.033
    8  0.217  0.000  0.001  0.001  0.000  0.000  0.000  0.000  0.000  0.218
    9  0.080  0.000  0.000  0.000  0.000  0.000  0.000  0.000  0.000  0.081
   10  0.033  0.000  0.000  0.000  0.000  0.000  0.000  0.000  0.000  0.033
tot    0.660  0.001  0.002  0.026  0.005  0.014  0.000  0.000  0.000  0.710

band     6 # energy  -12.60868502 # occ.  1.00000000

ion      s     py     pz     px    dxy    dyz    dz2    dxz  x2-y2    tot
    1  0.000  0.002  0.000  0.000  0.000  0.000  0.000  0.007  0.003  0.012
    2  0.000  0.002  0.000  0.000  0.000  0.000  0.000  0.007  0.003  0.012
    3  0.000  0.010  0.000  0.000  0.000  0.000  0.000  0.000  0.000  0.010
    4  0.000  0.010  0.000  0.000  0.000  0.000  0.000  0.000  0.000  0.010
    5  0.003  0.000  0.000  0.000  0.000  0.000  0.000  0.000  0.000  0.003
    6  0.140  0.001  0.000  0.000  0.000  0.000  0.000  0.000  0.000  0.141
    7  0.187  0.001  0.001  0.000  0.000  0.000  0.000  0.000  0.000  0.189
    8  0.003  0.000  0.000  0.000  0.000  0.000  0.000  0.000  0.000  0.003
    9  0.140  0.001  0.000  0.000  0.000  0.000  0.000  0.000  0.000  0.141
   10  0.187  0.001  0.001  0.000  0.000  0.000  0.000  0.000  0.000  0.189
tot    0.660  0.026  0.002  0.001  0.000  0.000  0.000  0.014  0.005  0.710

band     7 # energy  -12.55245498 # occ.  1.00000000

ion      s     py     pz     px    dxy    dyz    dz2    dxz  x2-y2    tot
    1  0.020  0.000  0.000  0.000  0.000  0.000  0.000  0.000  0.000  0.020
    2  0.020  0.000  0.000  0.000  0.000  0.000  0.000  0.000  0.000  0.020
    3  0.104  0.000  0.012  0.000  0.000  0.000  0.000  0.000  0.000  0.116
    4  0.104  0.000  0.012  0.000  0.000  0.000  0.000  0.000  0.000  0.116
    5  0.058  0.000  0.000  0.003  0.000  0.000  0.000  0.000  0.000  0.062
    6  0.058  0.002  0.000  0.001  0.000  0.000  0.000  0.000  0.000  0.062
    7  0.058  0.002  0.000  0.001  0.000  0.000  0.000  0.000  0.000  0.062
    8  0.058  0.000  0.000  0.003  0.000  0.000  0.000  0.000  0.000  0.062
    9  0.058  0.002  0.000  0.001  0.000  0.000  0.000  0.000  0.000  0.062
   10  0.058  0.002  0.000  0.001  0.000  0.000  0.000  0.000  0.000  0.062
tot    0.598  0.009  0.025  0.009  0.001  0.000  0.000  0.000  0.001  0.642

band     8 # energy  -10.30230732 # occ.  1.00000000

ion      s     py     pz     px    dxy    dyz    dz2    dxz  x2-y2    tot
    1  0.000  0.000  0.007  0.000  0.000  0.000  0.000  0.000  0.000  0.007
    2  0.000  0.000  0.007  0.000  0.000  0.000  0.000  0.000  0.000  0.007
    3  0.182  0.000  0.006  0.000  0.000  0.000  0.000  0.000  0.000  0.189
    4  0.182  0.000  0.006  0.000  0.000  0.000  0.000  0.000  0.000  0.189
    5  0.030  0.000  0.000  0.010  0.000  0.000  0.000  0.000  0.001  0.041
    6  0.030  0.007  0.000  0.002  0.000  0.000  0.000  0.000  0.000  0.041
    7  0.030  0.007  0.000  0.002  0.000  0.000  0.000  0.000  0.000  0.041
    8  0.030  0.000  0.000  0.010  0.000  0.000  0.000  0.000  0.001  0.041
    9  0.030  0.007  0.000  0.002  0.000  0.000  0.000  0.000  0.000  0.041
   10  0.030  0.007  0.000  0.002  0.000  0.000  0.000  0.000  0.000  0.041
tot    0.546  0.029  0.027  0.029  0.002  0.000  0.000  0.000  0.002  0.635

band     9 # energy   -7.05901637 # occ.  1.00000000

ion      s     py     pz     px    dxy    dyz    dz2    dxz  x2-y2    tot
    1  0.000  0.001  0.000  0.002  0.001  0.015  0.000  0.011  0.001  0.031
    2  0.000  0.001  0.000  0.002  0.001  0.015  0.000  0.011  0.001  0.031
    3  0.000  0.029  0.000  0.039  0.000  0.000  0.000  0.000  0.000  0.069
    4  0.000  0.029  0.000  0.039  0.000  0.000  0.000  0.000  0.000  0.069
    5  0.007  0.006  0.002  0.031  0.000  0.000  0.000  0.000  0.000  0.047
    6  0.012  0.044  0.004  0.006  0.000  0.000  0.000  0.000  0.000  0.065
    7  0.000  0.000  0.000  0.015  0.000  0.000  0.000  0.000  0.000  0.016
    8  0.007  0.006  0.002  0.031  0.000  0.000  0.000  0.000  0.000  0.047
    9  0.012  0.044  0.004  0.006  0.000  0.000  0.000  0.000  0.000  0.065
   10  0.000  0.000  0.000  0.015  0.000  0.000  0.000  0.000  0.000  0.016
tot    0.039  0.161  0.012  0.184  0.003  0.030  0.000  0.023  0.003  0.455

band    10 # energy   -7.05899889 # occ.  1.00000000

ion      s     py     pz     px    dxy    dyz    dz2    dxz  x2-y2    tot
    1  0.000  0.002  0.000  0.001  0.001  0.011  0.000  0.015  0.001  0.031
    2  0.000  0.002  0.000  0.001  0.001  0.011  0.000  0.015  0.001  0.031
    3  0.000  0.039  0.000  0.029  0.000  0.000  0.000  0.000  0.000  0.069
    4  0.000  0.039  0.000  0.029  0.000  0.000  0.000  0.000  0.000  0.069
    5  0.006  0.008  0.002  0.023  0.000  0.000  0.000  0.000  0.000  0.039
    6  0.001  0.000  0.000  0.018  0.000  0.000  0.000  0.000  0.000  0.020
    7  0.012  0.043  0.004  0.009  0.000  0.000  0.000  0.000  0.000  0.069
    8  0.006  0.008  0.002  0.023  0.000  0.000  0.000  0.000  0.000  0.039
    9  0.001  0.000  0.000  0.018  0.000  0.000  0.000  0.000  0.000  0.020
   10  0.012  0.043  0.004  0.009  0.000  0.000  0.000  0.000  0.000  0.069
tot    0.039  0.184  0.012  0.161  0.003  0.023  0.000  0.030  0.003  0.455

band    11 # energy   -6.90080126 # occ.  1.00000000

ion      s     py     pz     px    dxy    dyz    dz2    dxz  x2-y2    tot
    1  0.030  0.000  0.000  0.000  0.000  0.000  0.005  0.000  0.000  0.035
    2  0.030  0.000  0.000  0.000  0.000  0.000  0.005  0.000  0.000  0.035
    3  0.004  0.000  0.097  0.000  0.000  0.000  0.000  0.000  0.000  0.101
    4  0.004  0.000  0.097  0.000  0.000  0.000  0.000  0.000  0.000  0.101
    5  0.001  0.000  0.019  0.010  0.000  0.000  0.000  0.000  0.000  0.030
    6  0.001  0.007  0.019  0.002  0.000  0.000  0.000  0.000  0.000  0.030
    7  0.001  0.007  0.019  0.002  0.000  0.000  0.000  0.000  0.000  0.030
    8  0.001  0.000  0.019  0.010  0.000  0.000  0.000  0.000  0.000  0.030
    9  0.001  0.007  0.019  0.002  0.000  0.000  0.000  0.000  0.000  0.030
   10  0.001  0.007  0.019  0.002  0.000  0.000  0.000  0.000  0.000  0.030
tot    0.076  0.029  0.306  0.029  0.001  0.000  0.012  0.000  0.001  0.454

band    12 # energy   -6.58985757 # occ.  1.00000000

ion      s     py     pz     px    dxy    dyz    dz2    dxz  x2-y2    tot
    1  0.085  0.000  0.000  0.000  0.000  0.000  0.019  0.000  0.000  0.104
    2  0.085  0.000  0.000  0.000  0.000  0.000  0.019  0.000  0.000  0.104
    3  0.000  0.000  0.000  0.000  0.000  0.000  0.000  0.000  0.000  0.000
    4  0.000  0.000  0.000  0.000  0.000  0.000  0.000  0.000  0.000  0.000
    5  0.000  0.050  0.000  0.000  0.000  0.000  0.000  0.000  0.000  0.051
    6  0.000  0.013  0.000  0.038  0.000  0.000  0.000  0.000  0.000  0.051
    7  0.000  0.013  0.000  0.038  0.000  0.000  0.000  0.000  0.000  0.051
    8  0.000  0.050  0.000  0.000  0.000  0.000  0.000  0.000  0.000  0.051
    9  0.000  0.013  0.000  0.038  0.000  0.000  0.000  0.000  0.000  0.051
   10  0.000  0.013  0.000  0.038  0.000  0.000  0.000  0.000  0.000  0.051
tot    0.170  0.151  0.000  0.151  0.001  0.001  0.038  0.001  0.001  0.517

band    13 # energy   -6.36027830 # occ.  1.00000000

ion      s     py     pz     px    dxy    dyz    dz2    dxz  x2-y2    tot
    1  0.000  0.013  0.000  0.001  0.001  0.001  0.000  0.010  0.009  0.036
    2  0.000  0.013  0.000  0.001  0.001  0.001  0.000  0.010  0.009  0.036
    3  0.000  0.005  0.000  0.044  0.000  0.000  0.000  0.000  0.000  0.049
    4  0.000  0.005  0.000  0.044  0.000  0.000  0.000  0.000  0.000  0.049
    5  0.000  0.002  0.004  0.066  0.000  0.000  0.001  0.000  0.000  0.072
    6  0.000  0.048  0.002  0.000  0.000  0.000  0.000  0.000  0.000  0.051
    7  0.000  0.013  0.000  0.007  0.000  0.000  0.000  0.000  0.000  0.021
    8  0.000  0.002  0.004  0.066  0.000  0.000  0.001  0.000  0.000  0.072
    9  0.000  0.048  0.002  0.000  0.000  0.000  0.000  0.000  0.000  0.051
   10  0.000  0.013  0.000  0.007  0.000  0.000  0.000  0.000  0.000  0.021
tot    0.001  0.161  0.012  0.238  0.002  0.003  0.002  0.021  0.018  0.458

band    14 # energy   -6.36025853 # occ.  1.00000000

ion      s     py     pz     px    dxy    dyz    dz2    dxz  x2-y2    tot
    1  0.000  0.001  0.000  0.013  0.009  0.010  0.000  0.001  0.001  0.036
    2  0.000  0.001  0.000  0.013  0.009  0.010  0.000  0.001  0.001  0.036
    3  0.000  0.044  0.000  0.005  0.000  0.000  0.000  0.000  0.000  0.049
    4  0.000  0.044  0.000  0.005  0.000  0.000  0.000  0.000  0.000  0.049
    5  0.000  0.016  0.000  0.007  0.000  0.000  0.000  0.000  0.000  0.024
    6  0.000  0.011  0.002  0.031  0.000  0.000  0.000  0.000  0.000  0.045
    7  0.000  0.046  0.004  0.024  0.000  0.000  0.001  0.000  0.000  0.075
    8  0.000  0.016  0.000  0.007  0.000  0.000  0.000  0.000  0.000  0.024
    9  0.000  0.011  0.002  0.031  0.000  0.000  0.000  0.000  0.000  0.045
   10  0.000  0.046  0.004  0.024  0.000  0.000  0.001  0.000  0.000  0.075
tot    0.001  0.238  0.012  0.161  0.018  0.021  0.002  0.003  0.002  0.458

band    15 # energy   -5.27047047 # occ.  1.00000000

ion      s     py     pz     px    dxy    dyz    dz2    dxz  x2-y2    tot
    1  0.000  0.000  0.045  0.000  0.000  0.000  0.000  0.000  0.000  0.045
    2  0.000  0.000  0.045  0.000  0.000  0.000  0.000  0.000  0.000  0.045
    3  0.000  0.000  0.000  0.000  0.000  0.000  0.000  0.000  0.000  0.000
    4  0.000  0.000  0.000  0.000  0.000  0.000  0.000  0.000  0.000  0.000
    5  0.000  0.064  0.000  0.000  0.000  0.000  0.000  0.000  0.000  0.064
    6  0.000  0.016  0.000  0.048  0.000  0.000  0.000  0.000  0.000  0.064
    7  0.000  0.016  0.000  0.048  0.000  0.000  0.000  0.000  0.000  0.064
    8  0.000  0.064  0.000  0.000  0.000  0.000  0.000  0.000  0.000  0.064
    9  0.000  0.016  0.000  0.048  0.000  0.000  0.000  0.000  0.000  0.064
   10  0.000  0.016  0.000  0.048  0.000  0.000  0.000  0.000  0.000  0.064
tot    0.000  0.192  0.090  0.192  0.001  0.000  0.000  0.000  0.001  0.477

band    16 # energy   -5.00884681 # occ.  1.00000000

ion      s     py     pz     px    dxy    dyz    dz2    dxz  x2-y2    tot
    1  0.014  0.000  0.000  0.000  0.000  0.000  0.075  0.000  0.000  0.088
    2  0.014  0.000  0.000  0.000  0.000  0.000  0.075  0.000  0.000  0.088
    3  0.000  0.000  0.072  0.000  0.000  0.000  0.000  0.000  0.000  0.072
    4  0.000  0.000  0.072  0.000  0.000  0.000  0.000  0.000  0.000  0.072
    5  0.002  0.000  0.026  0.007  0.000  0.000  0.000  0.000  0.000  0.036
    6  0.002  0.006  0.026  0.001  0.000  0.000  0.000  0.000  0.000  0.036
    7  0.002  0.005  0.026  0.002  0.000  0.000  0.000  0.000  0.000  0.036
    8  0.002  0.000  0.026  0.007  0.000  0.000  0.000  0.000  0.000  0.036
    9  0.002  0.006  0.026  0.001  0.000  0.000  0.000  0.000  0.000  0.036
   10  0.002  0.005  0.026  0.002  0.000  0.000  0.000  0.000  0.000  0.036
tot    0.040  0.021  0.301  0.021  0.001  0.001  0.150  0.001  0.001  0.536

band    17 # energy   -4.37793442 # occ.  1.00000000

ion      s     py     pz     px    dxy    dyz    dz2    dxz  x2-y2    tot
    1  0.000  0.002  0.000  0.000  0.004  0.003  0.000  0.097  0.134  0.240
    2  0.000  0.002  0.000  0.000  0.004  0.003  0.000  0.097  0.134  0.240
    3  0.000  0.000  0.000  0.000  0.000  0.000  0.000  0.000  0.000  0.000
    4  0.000  0.000  0.000  0.000  0.000  0.000  0.000  0.000  0.000  0.000
    5  0.002  0.001  0.039  0.002  0.000  0.000  0.000  0.000  0.000  0.046
    6  0.001  0.002  0.017  0.021  0.000  0.000  0.000  0.001  0.000  0.042
    7  0.000  0.006  0.005  0.028  0.000  0.000  0.000  0.001  0.000  0.040
    8  0.002  0.001  0.039  0.002  0.000  0.000  0.000  0.000  0.000  0.046
    9  0.001  0.002  0.017  0.021  0.000  0.000  0.000  0.001  0.000  0.042
   10  0.000  0.006  0.005  0.028  0.000  0.000  0.000  0.001  0.000  0.040
tot    0.006  0.023  0.122  0.103  0.009  0.006  0.001  0.197  0.269  0.736

band    18 # energy   -4.37792496 # occ.  1.00000000

ion      s     py     pz     px    dxy    dyz    dz2    dxz  x2-y2    tot
    1  0.000  0.000  0.000  0.002  0.134  0.097  0.000  0.003  0.004  0.240
    2  0.000  0.000  0.000  0.002  0.134  0.097  0.000  0.003  0.004  0.240
    3  0.000  0.000  0.000  0.000  0.000  0.000  0.000  0.000  0.000  0.000
    4  0.000  0.000  0.000  0.000  0.000  0.000  0.000  0.000  0.000  0.000
    5  0.000  0.037  0.001  0.000  0.000  0.001  0.000  0.000  0.000  0.040
    6  0.001  0.009  0.024  0.008  0.000  0.001  0.000  0.000  0.000  0.043
    7  0.002  0.005  0.036  0.001  0.000  0.000  0.000  0.000  0.000  0.045
    8  0.000  0.037  0.001  0.000  0.000  0.001  0.000  0.000  0.000  0.040
    9  0.001  0.009  0.024  0.008  0.000  0.001  0.000  0.000  0.000  0.043
   10  0.002  0.005  0.036  0.001  0.000  0.000  0.000  0.000  0.000  0.045
tot    0.006  0.103  0.122  0.023  0.269  0.197  0.001  0.006  0.009  0.736

band    19 # energy   -4.06310604 # occ.  1.00000000

ion      s     py     pz     px    dxy    dyz    dz2    dxz  x2-y2    tot
    1  0.000  0.000  0.000  0.000  0.075  0.099  0.000  0.018  0.013  0.205
    2  0.000  0.000  0.000  0.000  0.075  0.099  0.000  0.018  0.013  0.205
    3  0.000  0.000  0.000  0.001  0.000  0.000  0.000  0.000  0.000  0.002
    4  0.000  0.000  0.000  0.001  0.000  0.000  0.000  0.000  0.000  0.002
    5  0.005  0.001  0.065  0.003  0.000  0.000  0.000  0.000  0.000  0.074
    6  0.004  0.004  0.048  0.001  0.000  0.000  0.000  0.000  0.000  0.058
    7  0.000  0.003  0.001  0.006  0.000  0.000  0.000  0.000  0.000  0.011
    8  0.005  0.001  0.065  0.003  0.000  0.000  0.000  0.000  0.000  0.074
    9  0.004  0.004  0.048  0.001  0.000  0.000  0.000  0.000  0.000  0.058
   10  0.000  0.003  0.001  0.006  0.000  0.000  0.000  0.000  0.000  0.011
tot    0.017  0.018  0.229  0.022  0.149  0.198  0.000  0.036  0.026  0.697

band    20 # energy   -4.06309403 # occ.  1.00000000

ion      s     py     pz     px    dxy    dyz    dz2    dxz  x2-y2    tot
    1  0.000  0.000  0.000  0.000  0.013  0.018  0.000  0.099  0.075  0.205
    2  0.000  0.000  0.000  0.000  0.013  0.018  0.000  0.099  0.075  0.205
    3  0.000  0.001  0.000  0.000  0.000  0.000  0.000  0.000  0.000  0.002
    4  0.000  0.001  0.000  0.000  0.000  0.000  0.000  0.000  0.000  0.002
    5  0.001  0.008  0.011  0.000  0.000  0.000  0.000  0.000  0.000  0.021
    6  0.002  0.000  0.028  0.007  0.000  0.000  0.000  0.000  0.000  0.037
    7  0.006  0.002  0.075  0.001  0.000  0.000  0.000  0.000  0.000  0.084
    8  0.001  0.008  0.011  0.000  0.000  0.000  0.000  0.000  0.000  0.021
    9  0.002  0.000  0.028  0.007  0.000  0.000  0.000  0.000  0.000  0.037
   10  0.006  0.002  0.075  0.001  0.000  0.000  0.000  0.000  0.000  0.084
tot    0.017  0.022  0.229  0.018  0.026  0.036  0.000  0.198  0.149  0.697

band    21 # energy   -3.64595872 # occ.  1.00000000

ion      s     py     pz     px    dxy    dyz    dz2    dxz  x2-y2    tot
    1  0.000  0.013  0.000  0.000  0.000  0.001  0.000  0.079  0.001  0.094
    2  0.000  0.013  0.000  0.000  0.000  0.001  0.000  0.079  0.001  0.094
    3  0.000  0.000  0.000  0.028  0.000  0.000  0.000  0.000  0.000  0.029
    4  0.000  0.000  0.000  0.028  0.000  0.000  0.000  0.000  0.000  0.029
    5  0.006  0.000  0.071  0.017  0.000  0.000  0.000  0.000  0.001  0.096
    6  0.001  0.000  0.012  0.019  0.000  0.000  0.000  0.001  0.000  0.034
    7  0.002  0.000  0.024  0.019  0.000  0.000  0.000  0.000  0.000  0.047
    8  0.006  0.000  0.071  0.017  0.000  0.000  0.000  0.000  0.001  0.096
    9  0.001  0.000  0.012  0.019  0.000  0.000  0.000  0.001  0.000  0.034
   10  0.002  0.000  0.024  0.019  0.000  0.000  0.000  0.000  0.000  0.047
tot    0.019  0.028  0.215  0.168  0.000  0.002  0.000  0.160  0.005  0.598

band    22 # energy   -3.64594551 # occ.  1.00000000

ion      s     py     pz     px    dxy    dyz    dz2    dxz  x2-y2    tot
    1  0.000  0.000  0.000  0.013  0.001  0.079  0.000  0.001  0.000  0.094
    2  0.000  0.000  0.000  0.013  0.001  0.079  0.000  0.001  0.000  0.094
    3  0.000  0.028  0.000  0.000  0.000  0.000  0.000  0.000  0.000  0.029
    4  0.000  0.028  0.000  0.000  0.000  0.000  0.000  0.000  0.000  0.029
    5  0.000  0.020  0.001  0.000  0.000  0.001  0.000  0.000  0.000  0.022
    6  0.005  0.017  0.060  0.000  0.001  0.000  0.000  0.000  0.000  0.084
    7  0.004  0.018  0.047  0.000  0.001  0.000  0.000  0.000  0.000  0.071
    8  0.000  0.020  0.001  0.000  0.000  0.001  0.000  0.000  0.000  0.022
    9  0.005  0.017  0.060  0.000  0.001  0.000  0.000  0.000  0.000  0.084
   10  0.004  0.018  0.047  0.000  0.001  0.000  0.000  0.000  0.000  0.071
tot    0.019  0.168  0.215  0.028  0.005  0.160  0.000  0.002  0.000  0.598

band    23 # energy   -3.38720467 # occ.  1.00000000

ion      s     py     pz     px    dxy    dyz    dz2    dxz  x2-y2    tot
    1  0.000  0.000  0.015  0.000  0.000  0.000  0.000  0.000  0.000  0.015
    2  0.000  0.000  0.015  0.000  0.000  0.000  0.000  0.000  0.000  0.015
    3  0.002  0.000  0.010  0.000  0.000  0.000  0.000  0.000  0.000  0.012
    4  0.002  0.000  0.010  0.000  0.000  0.000  0.000  0.000  0.000  0.012
    5  0.000  0.000  0.064  0.001  0.000  0.000  0.000  0.000  0.000  0.066
    6  0.000  0.001  0.064  0.000  0.000  0.000  0.000  0.000  0.000  0.066
    7  0.000  0.001  0.064  0.000  0.000  0.000  0.000  0.000  0.000  0.066
    8  0.000  0.000  0.064  0.001  0.000  0.000  0.000  0.000  0.000  0.066
    9  0.000  0.001  0.064  0.000  0.000  0.000  0.000  0.000  0.000  0.066
   10  0.000  0.001  0.064  0.000  0.000  0.000  0.000  0.000  0.000  0.066
tot    0.006  0.003  0.437  0.003  0.000  0.000  0.000  0.000  0.000  0.449

band    24 # energy   -3.08158844 # occ.  1.00000000

ion      s     py     pz     px    dxy    dyz    dz2    dxz  x2-y2    tot
    1  0.000  0.000  0.000  0.002  0.239  0.091  0.000  0.009  0.023  0.363
    2  0.000  0.000  0.000  0.002  0.239  0.091  0.000  0.009  0.023  0.363
    3  0.000  0.003  0.000  0.029  0.000  0.000  0.000  0.000  0.000  0.032
    4  0.000  0.003  0.000  0.029  0.000  0.000  0.000  0.000  0.000  0.032
    5  0.003  0.001  0.000  0.001  0.000  0.000  0.001  0.000  0.001  0.007
    6  0.000  0.001  0.000  0.006  0.000  0.000  0.000  0.000  0.000  0.007
    7  0.002  0.000  0.000  0.004  0.001  0.000  0.000  0.000  0.000  0.007
    8  0.003  0.001  0.000  0.001  0.000  0.000  0.001  0.000  0.001  0.007
    9  0.000  0.001  0.000  0.006  0.000  0.000  0.000  0.000  0.000  0.007
   10  0.002  0.000  0.000  0.004  0.001  0.000  0.000  0.000  0.000  0.007
tot    0.009  0.010  0.000  0.085  0.479  0.181  0.003  0.017  0.048  0.832

band    25 # energy   -3.08157663 # occ.  1.00000000

ion      s     py     pz     px    dxy    dyz    dz2    dxz  x2-y2    tot
    1  0.000  0.002  0.000  0.000  0.023  0.009  0.000  0.091  0.239  0.363
    2  0.000  0.002  0.000  0.000  0.023  0.009  0.000  0.091  0.239  0.363
    3  0.000  0.029  0.000  0.003  0.000  0.000  0.000  0.000  0.000  0.032
    4  0.000  0.029  0.000  0.003  0.000  0.000  0.000  0.000  0.000  0.032
    5  0.000  0.007  0.000  0.000  0.000  0.000  0.000  0.000  0.000  0.007
    6  0.003  0.002  0.000  0.000  0.001  0.000  0.001  0.000  0.000  0.007
    7  0.001  0.003  0.000  0.002  0.000  0.000  0.000  0.000  0.000  0.007
    8  0.000  0.007  0.000  0.000  0.000  0.000  0.000  0.000  0.000  0.007
    9  0.003  0.002  0.000  0.000  0.001  0.000  0.001  0.000  0.000  0.007
   10  0.001  0.003  0.000  0.002  0.000  0.000  0.000  0.000  0.000  0.007
tot    0.009  0.085  0.000  0.010  0.048  0.017  0.003  0.181  0.479  0.832

band    26 # energy   -2.97886049 # occ.  1.00000000

ion      s     py     pz     px    dxy    dyz    dz2    dxz  x2-y2    tot
    1  0.016  0.000  0.000  0.000  0.000  0.000  0.331  0.000  0.000  0.347
    2  0.016  0.000  0.000  0.000  0.000  0.000  0.331  0.000  0.000  0.347
    3  0.004  0.000  0.017  0.000  0.000  0.000  0.000  0.000  0.000  0.021
    4  0.004  0.000  0.017  0.000  0.000  0.000  0.000  0.000  0.000  0.021
    5  0.003  0.000  0.008  0.001  0.000  0.000  0.001  0.000  0.000  0.014
    6  0.003  0.001  0.009  0.000  0.000  0.000  0.001  0.000  0.000  0.014
    7  0.003  0.001  0.008  0.000  0.000  0.000  0.001  0.000  0.000  0.014
    8  0.003  0.000  0.008  0.001  0.000  0.000  0.001  0.000  0.000  0.014
    9  0.003  0.001  0.009  0.000  0.000  0.000  0.001  0.000  0.000  0.014
   10  0.003  0.001  0.008  0.000  0.000  0.000  0.001  0.000  0.000  0.014
tot    0.060  0.003  0.085  0.003  0.000  0.000  0.667  0.000  0.000  0.819

band    27 # energy   -2.97599766 # occ.  1.00000000

ion      s     py     pz     px    dxy    dyz    dz2    dxz  x2-y2    tot
    1  0.000  0.001  0.000  0.007  0.192  0.143  0.000  0.014  0.019  0.375
    2  0.000  0.001  0.000  0.007  0.192  0.143  0.000  0.014  0.019  0.375
    3  0.000  0.003  0.000  0.000  0.000  0.000  0.000  0.000  0.000  0.003
    4  0.000  0.003  0.000  0.000  0.000  0.000  0.000  0.000  0.000  0.003
    5  0.000  0.002  0.002  0.000  0.001  0.000  0.000  0.000  0.000  0.005
    6  0.000  0.000  0.017  0.000  0.001  0.000  0.000  0.000  0.000  0.019
    7  0.000  0.000  0.008  0.001  0.001  0.000  0.000  0.000  0.000  0.011
    8  0.000  0.002  0.002  0.000  0.001  0.000  0.000  0.000  0.000  0.005
    9  0.000  0.000  0.017  0.000  0.001  0.000  0.000  0.000  0.000  0.019
   10  0.000  0.000  0.008  0.001  0.001  0.000  0.000  0.000  0.000  0.011
tot    0.001  0.012  0.055  0.015  0.390  0.288  0.000  0.027  0.038  0.825

band    28 # energy   -2.97599221 # occ.  1.00000000

ion      s     py     pz     px    dxy    dyz    dz2    dxz  x2-y2    tot
    1  0.000  0.007  0.000  0.001  0.019  0.014  0.000  0.143  0.192  0.375
    2  0.000  0.007  0.000  0.001  0.019  0.014  0.000  0.143  0.192  0.375
    3  0.000  0.000  0.000  0.003  0.000  0.000  0.000  0.000  0.000  0.003
    4  0.000  0.000  0.000  0.003  0.000  0.000  0.000  0.000  0.000  0.003
    5  0.000  0.000  0.017  0.000  0.000  0.000  0.000  0.000  0.001  0.018
    6  0.000  0.000  0.001  0.002  0.000  0.000  0.000  0.000  0.001  0.004
    7  0.000  0.000  0.010  0.001  0.000  0.000  0.000  0.000  0.001  0.012
    8  0.000  0.000  0.017  0.000  0.000  0.000  0.000  0.000  0.001  0.018
    9  0.000  0.000  0.001  0.002  0.000  0.000  0.000  0.000  0.001  0.004
   10  0.000  0.000  0.010  0.001  0.000  0.000  0.000  0.000  0.001  0.012
tot    0.001  0.015  0.055  0.012  0.038  0.027  0.000  0.288  0.390  0.825

band    29 # energy   -2.95367312 # occ.  1.00000000

ion      s     py     pz     px    dxy    dyz    dz2    dxz  x2-y2    tot
    1  0.013  0.000  0.000  0.000  0.000  0.000  0.431  0.000  0.000  0.444
    2  0.013  0.000  0.000  0.000  0.000  0.000  0.431  0.000  0.000  0.444
    3  0.000  0.000  0.000  0.000  0.000  0.000  0.000  0.000  0.000  0.000
    4  0.000  0.000  0.000  0.000  0.000  0.000  0.000  0.000  0.000  0.000
    5  0.000  0.001  0.000  0.000  0.000  0.001  0.000  0.000  0.000  0.002
    6  0.000  0.000  0.000  0.001  0.000  0.000  0.000  0.000  0.000  0.002
    7  0.000  0.000  0.000  0.001  0.000  0.000  0.000  0.000  0.000  0.002
    8  0.000  0.001  0.000  0.000  0.000  0.001  0.000  0.000  0.000  0.002
    9  0.000  0.000  0.000  0.001  0.000  0.000  0.000  0.000  0.000  0.002
   10  0.000  0.000  0.000  0.001  0.000  0.000  0.000  0.000  0.000  0.002
tot    0.026  0.004  0.000  0.004  0.000  0.002  0.862  0.002  0.000  0.901

band    30 # energy   -2.25485879 # occ.  1.00000000

ion      s     py     pz     px    dxy    dyz    dz2    dxz  x2-y2    tot
    1  0.000  0.002  0.000  0.029  0.041  0.012  0.000  0.001  0.002  0.087
    2  0.000  0.002  0.000  0.029  0.041  0.012  0.000  0.001  0.002  0.087
    3  0.000  0.001  0.000  0.016  0.000  0.000  0.000  0.000  0.000  0.017
    4  0.000  0.001  0.000  0.016  0.000  0.000  0.000  0.000  0.000  0.017
    5  0.001  0.006  0.015  0.012  0.000  0.000  0.000  0.000  0.002  0.036
    6  0.000  0.017  0.001  0.085  0.000  0.000  0.000  0.000  0.000  0.104
    7  0.001  0.003  0.008  0.062  0.001  0.000  0.000  0.000  0.000  0.074
    8  0.001  0.006  0.015  0.012  0.000  0.000  0.000  0.000  0.002  0.036
    9  0.000  0.017  0.001  0.085  0.000  0.000  0.000  0.000  0.000  0.104
   10  0.001  0.003  0.008  0.062  0.001  0.000  0.000  0.000  0.000  0.074
tot    0.004  0.057  0.049  0.408  0.083  0.025  0.000  0.003  0.010  0.637

band    31 # energy   -2.25483140 # occ.  1.00000000

ion      s     py     pz     px    dxy    dyz    dz2    dxz  x2-y2    tot
    1  0.000  0.029  0.000  0.002  0.002  0.001  0.000  0.012  0.041  0.087
    2  0.000  0.029  0.000  0.002  0.002  0.001  0.000  0.012  0.041  0.087
    3  0.000  0.016  0.000  0.001  0.000  0.000  0.000  0.000  0.000  0.017
    4  0.000  0.016  0.000  0.001  0.000  0.000  0.000  0.000  0.000  0.017
    5  0.000  0.104  0.001  0.001  0.000  0.000  0.000  0.000  0.000  0.107
    6  0.001  0.020  0.015  0.001  0.001  0.000  0.000  0.000  0.000  0.039
    7  0.001  0.034  0.009  0.024  0.001  0.000  0.000  0.000  0.000  0.069
    8  0.000  0.104  0.001  0.001  0.000  0.000  0.000  0.000  0.000  0.107
    9  0.001  0.020  0.015  0.001  0.001  0.000  0.000  0.000  0.000  0.039