<?xml version="1.0" encoding="ISO-8859-1"?>
<modeling>
 <generator>
  <i name="program" type="string">vasp </i>
  <i name="version" type="string">5.4.4.18Apr17-6-g9f103f2a35  </i>
  <i name="subversion" type="string">(build May  1 2020 15:48:39) complex            parallel </i>
  <i name="platform" type="string">LinuxGNU </i>
  <i name="date" type="string">2020 06 12 </i>
  <i name="time" type="string">18:02:04 </i>
 </generator>
 <incar>
  <i type="int" name="ISTART">     1</i>
  <i type="string" name="PREC">accurate</i>
  <i type="string" name="ALGO"> Normal</i>
  <i type="int" name="ISPIN">     2</i>
  <i name="AMIN">      0.01000000</i>
  <i type="int" name="NELM">   400</i>
  <i type="int" name="IBRION">     2</i>
  <i name="EDIFF">      0.00010000</i>
  <i type="int" name="NSW">    99</i>
  <i type="int" name="ISIF">     3</i>
  <i name="ENCUT">    520.00000000</i>
  <v name="MAGMOM">      5.00000000      5.00000000      0.60000000      0.60000000      0.60000000      0.60000000      0.60000000      0.60000000      0.60000000      0.60000000</v>
  <i type="string" name="LREAL"> Auto</i>
  <i type="int" name="ISMEAR">    -5</i>
  <i name="SIGMA">      0.05000000</i>
  <i type="logical" name="LWAVE"> F  </i>
  <i type="int" name="LORBIT">    11</i>
  <v type="int" name="KPOINT_BSE">    -1     0     0     0</v>
  <i type="int" name="NELM">   400</i>
  <i type="string" name="GGA"> Bo</i>
  <i name="PARAM1">      0.18333333</i>
  <i name="PARAM2">      0.22000000</i>
  <i type="logical" name="LUSE_VDW"> T  </i>
  <i name="AGGAC">      0.00000000</i>
 </incar>
 <structure name="primitive_cell" >
  <crystal>
   <varray name="basis" >
    <v>       6.90777700      -0.00000000       0.00000000 </v>
    <v>       3.45388800       5.98231000       0.00000000 </v>
    <v>       0.00000000       0.00000000      23.44458800 </v>
   </varray>
   <i name="volume">    968.83501932 </i>
   <varray name="rec_basis" >
    <v>       0.14476437      -0.08357974       0.00000000 </v>
    <v>       0.00000000       0.16715951      -0.00000000 </v>
    <v>      -0.00000000       0.00000000       0.04265377 </v>
   </varray>
  </crystal>
  <varray name="positions" >
   <v>       0.33333300       0.33333300       0.49992500 </v>
   <v>       0.00042000       0.37322400      -0.42624800 </v>
   <v>      -0.37364300       0.00042000      -0.42624800 </v>
   <v>       0.37322400      -0.37364300      -0.42624800 </v>
   <v>       0.37364300      -0.00042000       0.42624800 </v>
   <v>      -0.37322400       0.37364300       0.42624800 </v>
   <v>      -0.00042000      -0.37322400       0.42624800 </v>
   <v>      -0.33333300      -0.33333300      -0.49992500 </v>
   <v>       0.00000000       0.00000000       0.44821600 </v>
   <v>       0.00000000       0.00000000      -0.44821600 </v>
  </varray>
 </structure>
 <varray name="primitive_index" >
  <v type="int" >        1 </v>
  <v type="int" >        6 </v>
  <v type="int" >        5 </v>
  <v type="int" >        7 </v>
  <v type="int" >        8 </v>
  <v type="int" >       10 </v>
  <v type="int" >        9 </v>
  <v type="int" >        2 </v>
  <v type="int" >        3 </v>
  <v type="int" >        4 </v>
 </varray>
 <kpoints>
  <generation param="Gamma">
   <v type="int" name="divisions">       5        5        1 </v>
   <v name="usershift">      0.00000000       0.00000000       0.00000000 </v>
   <v name="genvec1">      0.20000000       0.00000000       0.00000000 </v>
   <v name="genvec2">      0.00000000       0.20000000       0.00000000 </v>
   <v name="genvec3">      0.00000000       0.00000000       1.00000000 </v>
   <v name="shift">      0.00000000       0.00000000       0.00000000 </v>
  </generation>
  <varray name="kpointlist" >
   <v>       0.00000000       0.00000000       0.00000000 </v>
   <v>       0.20000000       0.00000000       0.00000000 </v>
   <v>       0.40000000       0.00000000       0.00000000 </v>
   <v>       0.40000000       0.20000000       0.00000000 </v>
   <v>      -0.40000000       0.20000000       0.00000000 </v>
  </varray>
  <varray name="weights" >
   <v>       0.04000000 </v>
   <v>       0.24000000 </v>
   <v>       0.24000000 </v>
   <v>       0.24000000 </v>
   <v>       0.24000000 </v>
  </varray>
  <varray name="tetrahedronlist"  type="int" >
   <v type="int" >        6        1        1        2        2 </v>
   <v type="int" >       12        1        2        2        2 </v>
   <v type="int" >       12        2        2        3        4 </v>
   <v type="int" >       12        2        2        2        4 </v>
   <v type="int" >       12        2        3        3        4 </v>
   <v type="int" >       12        2        3        4        4 </v>
   <v type="int" >        6        2        2        4        4 </v>
   <v type="int" >       12        3        3        3        5 </v>
   <v type="int" >       12        3        3        4        5 </v>
   <v type="int" >       12        3        4        4        5 </v>
   <v type="int" >        6        3        3        5        5 </v>
   <v type="int" >       12        3        4        5        5 </v>
   <v type="int" >        6        4        4        5        5 </v>
   <v type="int" >       12        4        5        5        5 </v>
   <v type="int" >        6        5        5        5        5 </v>
  </varray>
  <i name="volumeweight">      0.00666667 </i>
 </kpoints>
 <parameters>
  <separator name="general" >
   <i type="string" name="SYSTEM">unknown system</i>
   <i type="logical" name="LCOMPAT"> F  </i>
  </separator>
  <separator name="electronic" >
   <i type="string" name="PREC">accura</i>
   <i name="ENMAX">    520.00000000</i>
   <i name="ENAUG">    402.10800000</i>
   <i name="EDIFF">      0.00010000</i>
   <i type="int" name="IALGO">    38</i>
   <i type="int" name="IWAVPR">    11</i>
   <i type="int" name="NBANDS">    48</i>
   <i name="NELECT">     58.00000000</i>
   <i type="int" name="TURBO">     0</i>
   <i type="int" name="IRESTART">     0</i>
   <i type="int" name="NREBOOT">     0</i>
   <i type="int" name="NMIN">     0</i>
   <i name="EREF">      0.00000000</i>
   <separator name="electronic smearing" >
    <i type="int" name="ISMEAR">    -5</i>
    <i name="SIGMA">      0.05000000</i>
    <i name="KSPACING">      0.50000000</i>
    <i type="logical" name="KGAMMA"> T  </i>
   </separator>
   <separator name="electronic projectors" >
    <i type="logical" name="LREAL"> T  </i>
    <v name="ROPT">     -0.00025000     -0.00025000     -0.00025000</v>
    <i type="int" name="LMAXPAW">  -100</i>
    <i type="int" name="LMAXMIX">     2</i>
    <i type="logical" name="NLSPLINE"> F  </i>
   </separator>
   <separator name="electronic startup" >
    <i type="int" name="ISTART">     0</i>
    <i type="int" name="ICHARG">     2</i>
    <i type="int" name="INIWAV">     1</i>
   </separator>
   <separator name="electronic spin" >
    <i type="int" name="ISPIN">     2</i>
    <i type="logical" name="LNONCOLLINEAR"> F  </i>
    <v name="MAGMOM">      5.00000000      5.00000000      0.60000000      0.60000000      0.60000000      0.60000000      0.60000000      0.60000000      0.60000000      0.60000000</v>
    <i name="NUPDOWN">     -1.00000000</i>
    <i type="logical" name="LSORBIT"> F  </i>
    <v name="SAXIS">      0.00000000      0.00000000      1.00000000</v>
    <i type="logical" name="LSPIRAL"> F  </i>
    <v name="QSPIRAL">      0.00000000      0.00000000      0.00000000</v>
    <i type="logical" name="LZEROZ"> F  </i>
   </separator>
   <separator name="electronic exchange-correlation" >
    <i type="logical" name="LASPH"> F  </i>
    <i type="logical" name="LMETAGGA"> F  </i>
   </separator>
   <separator name="electronic convergence" >
    <i type="int" name="NELM">   400</i>
    <i type="int" name="NELMDL">     0</i>
    <i type="int" name="NELMIN">     2</i>
    <i name="ENINI">    520.00000000</i>
    <separator name="electronic convergence detail" >
     <i type="logical" name="LDIAG"> T  </i>
     <i type="logical" name="LSUBROT"> F  </i>
     <i name="WEIMIN">      0.00100000</i>
     <i name="EBREAK">      0.00000052</i>
     <i name="DEPER">      0.30000000</i>
     <i type="int" name="NRMM">     4</i>
     <i name="TIME">      0.40000000</i>
    </separator>
   </separator>
   <separator name="electronic mixer" >
    <i name="AMIX">      0.40000000</i>
    <i name="BMIX">      1.00000000</i>
    <i name="AMIN">      0.01000000</i>
    <i name="AMIX_MAG">      1.60000000</i>
    <i name="BMIX_MAG">      1.00000000</i>
    <separator name="electronic mixer details" >
     <i type="int" name="IMIX">     4</i>
     <i type="logical" name="MIXFIRST"> F  </i>
     <i type="int" name="MAXMIX">   -45</i>
     <i name="WC">    100.00000000</i>
     <i type="int" name="INIMIX">     1</i>
     <i type="int" name="MIXPRE">     1</i>
     <i type="int" name="MREMOVE">     5</i>
    </separator>
   </separator>
   <separator name="electronic dipolcorrection" >
    <i type="logical" name="LDIPOL"> F  </i>
    <i type="logical" name="LMONO"> F  </i>
    <i type="int" name="IDIPOL">     0</i>
    <i name="EPSILON">      1.00000000</i>
    <v name="DIPOL">   -100.00000000   -100.00000000   -100.00000000</v>
    <i name="EFIELD">      0.00000000</i>
   </separator>
  </separator>
  <separator name="grids" >
   <i type="int" name="NGX">    54</i>
   <i type="int" name="NGY">    54</i>
   <i type="int" name="NGZ">   180</i>
   <i type="int" name="NGXF">   108</i>
   <i type="int" name="NGYF">   108</i>
   <i type="int" name="NGZF">   360</i>
   <i type="logical" name="ADDGRID"> F  </i>
  </separator>
  <separator name="ionic" >
   <i type="int" name="NSW">    99</i>
   <i type="int" name="IBRION">     2</i>
   <i type="int" name="MDALGO">     0</i>
   <i type="int" name="ISIF">     3</i>
   <i name="PSTRESS">      0.00000000</i>
   <i name="EDIFFG">      0.00100000</i>
   <i type="int" name="NFREE">     1</i>
   <i name="POTIM">      0.50000000</i>
   <i name="SMASS">     -3.00000000</i>
   <i name="SCALEE">      1.00000000</i>
  </separator>
  <separator name="ionic md" >
   <i name="TEBEG">      0.00010000</i>
   <i name="TEEND">      0.00010000</i>
   <i type="int" name="NBLOCK">     1</i>
   <i type="int" name="KBLOCK">    99</i>
   <i type="int" name="NPACO">   256</i>
   <i name="APACO">     16.00000000</i>
  </separator>
  <separator name="symmetry" >
   <i type="int" name="ISYM">     2</i>
   <i name="SYMPREC">      0.00001000</i>
  </separator>
  <separator name="dos" >
   <i type="int" name="LORBIT">    11</i>
   <v name="RWIGS">     -1.00000000     -1.00000000     -1.00000000</v>
   <i type="int" name="NEDOS">   301</i>
   <i name="EMIN">     10.00000000</i>
   <i name="EMAX">    -10.00000000</i>
   <i name="EFERMI">      0.00000000</i>
  </separator>
  <separator name="writing" >
   <i type="int" name="NWRITE">     2</i>
   <i type="logical" name="LWAVE"> F  </i>
   <i type="logical" name="LDOWNSAMPLE"> F  </i>
   <i type="logical" name="LCHARG"> T  </i>
   <i type="logical" name="LPARD"> F  </i>
   <i type="logical" name="LVTOT"> F  </i>
   <i type="logical" name="LVHAR"> F  </i>
   <i type="logical" name="LELF"> F  </i>
   <i type="logical" name="LOPTICS"> F  </i>
   <v name="STM">      0.00000000      0.00000000      0.00000000      0.00000000      0.00000000      0.00000000      0.00000000</v>
  </separator>
  <separator name="performance" >
   <i type="int" name="NPAR">    24</i>
   <i type="int" name="NSIM">     4</i>
   <i type="int" name="NBLK">    -1</i>
   <i type="logical" name="LPLANE"> T  </i>
   <i type="logical" name="LSCALAPACK"> T  </i>
   <i type="logical" name="LSCAAWARE"> F  </i>
   <i type="logical" name="LSCALU"> F  </i>
   <i type="logical" name="LASYNC"> F  </i>
   <i type="logical" name="LORBITALREAL"> F  </i>
  </separator>
  <separator name="miscellaneous" >
   <i type="int" name="IDIOT">     3</i>
   <i type="int" name="ISPECIAL">     0</i>
   <i type="logical" name="LMUSIC"> F  </i>
   <v name="POMASS">     51.99600000     30.97400000    127.60000000</v>
   <v name="DARWINR">      0.00000000      0.00000000      0.00000000</v>
   <v name="DARWINV">      1.00000000      1.00000000      1.00000000</v>
   <i type="logical" name="LCORR"> T  </i>
  </separator>
  <i type="logical" name="GGA_COMPAT"> T  </i>
  <i type="logical" name="LBERRY"> F  </i>
  <i type="int" name="ICORELEVEL">     0</i>
  <i type="logical" name="LDAU"> F  </i>
  <i type="int" name="I_CONSTRAINED_M">     0</i>
  <separator name="electronic exchange-correlation" >
   <i type="string" name="GGA">BO</i>
   <i type="int" name="VOSKOWN">     0</i>
   <i type="logical" name="LHFCALC"> F  </i>
   <i type="string" name="PRECFOCK"></i>
   <i type="logical" name="LSYMGRAD"> F  </i>
   <i type="logical" name="LHFONE"> F  </i>
   <i type="logical" name="LRHFCALC"> F  </i>
   <i type="logical" name="LTHOMAS"> F  </i>
   <i type="logical" name="LMODELHF"> F  </i>
   <i name="ENCUT4O">     -1.00000000</i>
   <i type="int" name="EXXOEP">     0</i>
   <i type="int" name="FOURORBIT">     0</i>
   <i name="AEXX">      0.00000000</i>
   <i name="HFALPHA">      0.00000000</i>
   <i name="MCALPHA">      0.00000000</i>
   <i name="ALDAX">      1.00000000</i>
   <i name="AGGAX">      1.00000000</i>
   <i name="ALDAC">      1.00000000</i>
   <i name="AGGAC">      0.00000000</i>
   <i type="int" name="NKREDX">     1</i>
   <i type="int" name="NKREDY">     1</i>
   <i type="int" name="NKREDZ">     1</i>
   <i type="logical" name="SHIFTRED"> F  </i>
   <i type="logical" name="ODDONLY"> F  </i>
   <i type="logical" name="EVENONLY"> F  </i>
   <i type="int" name="LMAXFOCK">     0</i>
   <i type="int" name="NMAXFOCKAE">     0</i>
   <i type="logical" name="LFOCKAEDFT"> F  </i>
   <i name="HFSCREEN">      0.00000000</i>
   <i name="HFSCREENC">      0.00000000</i>
   <i type="int" name="NBANDSGWLOW">     0</i>
  </separator>
  <separator name="vdW DFT" >
   <i type="logical" name="LUSE_VDW"> T  </i>
   <i name="Zab_VDW">     -0.84910000</i>
   <i name="PARAM1">      0.18333333</i>
   <i name="PARAM2">      0.22000000</i>
   <i name="PARAM3">      0.00000000</i>
  </separator>
  <separator name="model GW" >
   <i type="int" name="MODEL_GW">     0</i>
   <i name="MODEL_EPS0">     58.13010116</i>
   <i name="MODEL_ALPHA">      1.00000000</i>
  </separator>
  <separator name="linear response parameters" >
   <i type="logical" name="LEPSILON"> F  </i>
   <i type="logical" name="LRPA"> F  </i>
   <i type="logical" name="LNABLA"> F  </i>
   <i type="logical" name="LVEL"> F  </i>
   <i type="int" name="KINTER">     0</i>
   <i name="CSHIFT">      0.10000000</i>
   <i name="OMEGAMAX">     -1.00000000</i>
   <i name="DEG_THRESHOLD">      0.00200000</i>
   <i name="RTIME">     -0.10000000</i>
   <i name="WPLASMAI">      0.00000000</i>
   <v name="DFIELD">      0.00000000      0.00000000      0.00000000</v>
   <v name="WPLASMA">      0.00000000      0.00000000      0.00000000      0.00000000      0.00000000      0.00000000      0.00000000      0.00000000      0.00000000</v>
  </separator>
  <separator name="orbital magnetization" >
   <i type="logical" name="NUCIND"> F  </i>
   <v name="MAGPOS">      0.00000000      0.00000000      0.00000000</v>
   <i type="logical" name="LNICSALL"> T  </i>
   <i type="logical" name="ORBITALMAG"> F  </i>
   <i type="logical" name="LMAGBLOCH"> F  </i>
   <i type="logical" name="LCHIMAG"> F  </i>
   <i type="logical" name="LGAUGE"> T  </i>
   <i type="int" name="MAGATOM">     0</i>
   <v name="MAGDIPOL">      0.00000000      0.00000000      0.00000000</v>
   <v name="AVECCONST">      0.00000000      0.00000000      0.00000000</v>
  </separator>
  <separator name="response functions" >
   <i type="logical" name="LADDER"> F  </i>
   <i type="logical" name="LRPAFORCE"> F  </i>
   <i type="logical" name="LFXC"> F  </i>
   <i type="logical" name="LHARTREE"> T  </i>
   <i type="int" name="IBSE">     0</i>
   <v type="int" name="KPOINT">    -1     0     0     0</v>
   <i type="logical" name="LTCTE"> F  </i>
   <i type="logical" name="LTETE"> F  </i>
   <i type="logical" name="LTRIPLET"> F  </i>
   <i type="logical" name="LFXCEPS"> F  </i>
   <i type="logical" name="LFXHEG"> F  </i>
   <i type="int" name="NATURALO">     2</i>
   <i type="logical" name="L2ORDER"> F  </i>
   <i type="logical" name="LMP2LT"> F  </i>
   <i type="logical" name="LUSEW"> F  </i>
   <i name="ENCUTGW">     -2.00000000</i>
   <i name="ENCUTGWSOFT">     -2.00000000</i>
   <i name="ENCUTLF">     -1.00000000</i>
   <i type="int" name="LMAXMP2">    -1</i>
   <i name="SCISSOR">      0.00000000</i>
   <i type="int" name="NOMEGA">     0</i>
   <i type="int" name="NOMEGAR">     0</i>
   <i type="int" name="NBANDSGW">    -1</i>
   <i type="int" name="NBANDSO">    -1</i>
   <i type="int" name="NBANDSV">    -1</i>
   <i type="int" name="NELM">   400</i>
   <i type="int" name="NELMHF">     1</i>
   <i type="int" name="DIM">     3</i>
   <i type="int" name="ANTIRES">     0</i>
   <i name="OMEGAMAX">    -30.00000000</i>
   <i name="OMEGAMIN">    -30.00000000</i>
   <i name="OMEGATL">   -200.00000000</i>
   <i type="int" name="OMEGAGRID">   140</i>
   <i name="CSHIFT">     -0.10000000</i>
   <i type="logical" name="SELFENERGY"> F  </i>
   <i type="logical" name="LSPECTRAL"> F  </i>
   <i type="logical" name="LSPECTRALGW"> F  </i>
   <i type="logical" name="LSINGLES"> F  </i>
   <i type="logical" name="LFERMIGW"> F  </i>
   <i type="logical" name="ODDONLYGW"> F  </i>
   <i type="logical" name="EVENONLYGW"> F  </i>
   <i type="int" name="NKREDLFX">     1</i>
   <i type="int" name="NKREDLFY">     1</i>
   <i type="int" name="NKREDLFZ">     1</i>
   <i type="int" name="MAXMEM">  2800</i>
   <i type="int" name="TELESCOPE">     0</i>
   <i type="int" name="TAUPAR">     1</i>
   <i type="int" name="OMEGAPAR">    -1</i>
   <i name="LAMBDA">      1.00000000</i>
  </separator>
  <separator name="External order field" >
   <i name="OFIELD_KAPPA">      0.00000000</i>
   <v name="OFIELD_K">      0.00000000      0.00000000      0.00000000</v>
   <i name="OFIELD_Q6_NEAR">      0.00000000</i>
   <i name="OFIELD_Q6_FAR">      0.00000000</i>
   <i name="OFIELD_A">      0.00000000</i>
  </separator>
 </parameters>
 <atominfo>
  <atoms>      10 </atoms>
  <types>       3 </types>
  <array name="atoms" >
   <dimension dim="1">ion</dimension>
   <field type="string">element</field>
   <field type="int">atomtype</field>
   <set>
    <rc><c>Cr</c><c>   1</c></rc>
    <rc><c>Cr</c><c>   1</c></rc>
    <rc><c>P </c><c>   2</c></rc>
    <rc><c>P </c><c>   2</c></rc>
    <rc><c>Te</c><c>   3</c></rc>
    <rc><c>Te</c><c>   3</c></rc>
    <rc><c>Te</c><c>   3</c></rc>
    <rc><c>Te</c><c>   3</c></rc>
    <rc><c>Te</c><c>   3</c></rc>
    <rc><c>Te</c><c>   3</c></rc>
   </set>
  </array>
  <array name="atomtypes" >
   <dimension dim="1">type</dimension>
   <field type="int">atomspertype</field>
   <field type="string">element</field>
   <field>mass</field>
   <field>valence</field>
   <field type="string">pseudopotential</field>
   <set>
    <rc><c>   2</c><c>Cr</c><c>     51.99600000</c><c>      6.00000000</c><c> PAW_PBE Cr 06Sep2000                   </c></rc>
    <rc><c>   2</c><c>P </c><c>     30.97400000</c><c>      5.00000000</c><c>  PAW_PBE P 17Jan2003                   </c></rc>
    <rc><c>   6</c><c>Te</c><c>    127.60000000</c><c>      6.00000000</c><c> PAW_PBE Te 08Apr2002                   </c></rc>
   </set>
  </array>
 </atominfo>
 <structure name="initialpos" >
  <crystal>
   <varray name="basis" >
    <v>       6.90777700      -0.00000000       0.00000000 </v>
    <v>       3.45388800       5.98231000       0.00000000 </v>
    <v>       0.00000000       0.00000000      23.44458800 </v>
   </varray>
   <i name="volume">    968.83501932 </i>
   <varray name="rec_basis" >
    <v>       0.14476437      -0.08357974       0.00000000 </v>
    <v>       0.00000000       0.16715951      -0.00000000 </v>
    <v>      -0.00000000       0.00000000       0.04265377 </v>
   </varray>
  </crystal>
  <varray name="positions" >
   <v>       0.33333300       0.33333300       0.49992500 </v>
   <v>       0.66666700       0.66666700       0.50007500 </v>
   <v>       0.00000000       0.00000000       0.44821600 </v>
   <v>       0.00000000       0.00000000       0.55178400 </v>
   <v>       0.62635700       0.00042000       0.57375200 </v>
   <v>       0.00042000       0.37322400       0.57375200 </v>
   <v>       0.37322400       0.62635700       0.57375200 </v>
   <v>       0.37364300       0.99958000       0.42624800 </v>
   <v>       0.99958000       0.62677600       0.42624800 </v>
   <v>       0.62677600       0.37364300       0.42624800 </v>
  </varray>
  <varray name="selective"  type="logical" >
   <v type="logical" >  F  F  F </v>
   <v type="logical" >  F  F  F </v>
   <v type="logical" >  T  T  T </v>
   <v type="logical" >  T  T  T </v>
   <v type="logical" >  F  F  F </v>
   <v type="logical" >  F  F  F </v>
   <v type="logical" >  F  F  F </v>
   <v type="logical" >  F  F  F </v>
   <v type="logical" >  F  F  F </v>
   <v type="logical" >  F  F  F </v>
  </varray>
  <nose>
   <v>      -3.00000000       0.00000000       0.00010000       0.00010000 </v>
  </nose>
 </structure>
 <calculation>
  <scstep>
   <time name="dav">   21.36   31.51</time>
   <time name="total">   60.37   91.99</time>
   <energy>
    <i name="alphaZ">     12.19922354 </i>
    <i name="ewald">   6462.22987265 </i>
    <i name="hartreedc">  -8459.86008969 </i>
    <i name="XCdc">   -204.92083104 </i>
    <i name="pawpsdc">   1172.63272806 </i>
    <i name="pawaedc">   -873.73170129 </i>
    <i name="eentropy">      0.00000000 </i>
    <i name="bandstr">     16.96493163 </i>
    <i name="atom">   2256.05692028 </i>
    <i name="e_fr_energy">    381.57105414 </i>
    <i name="e_wo_entrp">    381.57105414 </i>
    <i name="e_0_energy">    381.57105414 </i>
   </energy>
  </scstep>
  <scstep>
   <time name="dav">   26.47   41.46</time>
   <time name="total">   26.48   41.47</time>
   <energy>
    <i name="e_fr_energy">     -2.87095612 </i>
    <i name="e_wo_entrp">     -2.87095612 </i>
    <i name="e_0_energy">     -2.87095612 </i>
   </energy>
  </scstep>
  <scstep>
   <time name="dav">   27.27   41.28</time>
   <time name="total">   27.27   41.28</time>
   <energy>
    <i name="e_fr_energy">    -42.13635874 </i>
    <i name="e_wo_entrp">    -42.13635874 </i>
    <i name="e_0_energy">    -42.13635874 </i>
   </energy>
  </scstep>
  <scstep>
   <time name="dav">   24.48   35.78</time>
   <time name="total">   24.49   35.79</time>
   <energy>
    <i name="e_fr_energy">    -43.48585213 </i>
    <i name="e_wo_entrp">    -43.48585213 </i>
    <i name="e_0_energy">    -43.48585213 </i>
   </energy>
  </scstep>
  <scstep>
   <time name="dav">   31.27   46.48</time>
   <time name="total">   32.68   48.98</time>
   <energy>
    <i name="e_fr_energy">    -43.54811198 </i>
    <i name="e_wo_entrp">    -43.54811198 </i>
    <i name="e_0_energy">    -43.54811198 </i>
   </energy>
  </scstep>
  <scstep>
   <time name="dav">   28.50   42.03</time>
   <time name="total">   68.86  103.64</time>
   <energy>
    <i name="e_fr_energy">    -49.82279630 </i>
    <i name="e_wo_entrp">    -49.82279630 </i>
    <i name="e_0_energy">    -49.82279630 </i>
   </energy>
  </scstep>
  <scstep>
   <time name="dav">   27.65   41.97</time>
   <time name="total">   67.62  104.10</time>
   <energy>
    <i name="e_fr_energy">    -41.41437315 </i>
    <i name="e_wo_entrp">    -41.41437315 </i>
    <i name="e_0_energy">    -41.41437315 </i>
   </energy>
  </scstep>
  <scstep>
   <time name="dav">   27.67   41.13</time>
   <time name="total">   69.10  103.22</time>
   <energy>
    <i name="e_fr_energy">    -41.38341586 </i>
    <i name="e_wo_entrp">    -41.38341586 </i>
    <i name="e_0_energy">    -41.38341586 </i>
   </energy>
  </scstep>
  <scstep>
   <time name="dav">   25.91   38.49</time>
   <time name="total">   66.08   99.48</time>
   <energy>
    <i name="e_fr_energy">    -41.91376640 </i>
    <i name="e_wo_entrp">    -41.91376640 </i>
    <i name="e_0_energy">    -41.91376640 </i>
   </energy>
  </scstep>
  <scstep>
   <time name="dav">   25.66   38.51</time>
   <time name="total">   65.13   99.61</time>
   <energy>
    <i name="e_fr_energy">    -42.45677228 </i>
    <i name="e_wo_entrp">    -42.45677228 </i>
    <i name="e_0_energy">    -42.45677228 </i>
   </energy>
  </scstep>
  <scstep>
   <time name="dav">   23.11   34.35</time>
   <time name="total">   63.55   95.68</time>
   <energy>
    <i name="e_fr_energy">    -42.58890560 </i>
    <i name="e_wo_entrp">    -42.58890560 </i>
    <i name="e_0_energy">    -42.58890560 </i>
   </energy>
  </scstep>
  <scstep>
   <time name="dav">   22.72   34.05</time>
   <time name="total">   63.96   95.86</time>
   <energy>
    <i name="e_fr_energy">    -42.84624639 </i>
    <i name="e_wo_entrp">    -42.84624639 </i>
    <i name="e_0_energy">    -42.84624639 </i>
   </energy>
  </scstep>
  <scstep>
   <time name="dav">   20.18   30.21</time>
   <time name="total">   61.95   91.80</time>
   <energy>
    <i name="e_fr_energy">    -42.95196899 </i>
    <i name="e_wo_entrp">    -42.95196899 </i>
    <i name="e_0_energy">    -42.95196899 </i>
   </energy>
  </scstep>
  <scstep>
   <time name="dav">   20.59   32.39</time>
   <time name="total">   61.80   94.54</time>
   <energy>
    <i name="e_fr_energy">    -42.95685730 </i>
    <i name="e_wo_entrp">    -42.95685730 </i>
    <i name="e_0_energy">    -42.95685730 </i>
   </energy>
  </scstep>
  <scstep>
   <time name="dav">   20.02   31.27</time>
   <time name="total">   60.50   92.67</time>
   <energy>
    <i name="e_fr_energy">    -42.95636097 </i>
    <i name="e_wo_entrp">    -42.95636097 </i>
    <i name="e_0_energy">    -42.95636097 </i>
   </energy>
  </scstep>
  <scstep>
   <time name="dav">   22.59   32.77</time>
   <time name="total">   61.01   93.39</time>
   <energy>
    <i name="e_fr_energy">    -42.95647910 </i>
    <i name="e_wo_entrp">    -42.95647910 </i>
    <i name="e_0_energy">    -42.95647910 </i>
   </energy>
  </scstep>
  <scstep>
   <time name="dav">   20.37   30.86</time>
   <time name="total">   57.91   89.22</time>
   <energy>
    <i name="alphaZ">     12.19922354 </i>
    <i name="ewald">   6462.22987265 </i>
    <i name="hartreedc">  -8466.53370623 </i>
    <i name="XCdc">   -206.18059372 </i>
    <i name="pawpsdc">   1234.33153801 </i>
    <i name="pawaedc">   -936.33828934 </i>
    <i name="eentropy">      0.00000000 </i>
    <i name="bandstr">   -398.72135430 </i>
    <i name="atom">   2256.05692028 </i>
    <i name="e_fr_energy">    -42.95638913 </i>
    <i name="e_wo_entrp">    -42.95638913 </i>
    <i name="e_0_energy">    -42.95638913 </i>
   </energy>
  </scstep>
  <structure>
   <crystal>
    <varray name="basis" >
     <v>       6.90777700      -0.00000000       0.00000000 </v>
     <v>       3.45388800       5.98231000       0.00000000 </v>
     <v>       0.00000000       0.00000000      23.44458800 </v>
    </varray>
    <i name="volume">    968.83501932 </i>
    <varray name="rec_basis" >
     <v>       0.14476437      -0.08357974       0.00000000 </v>
     <v>       0.00000000       0.16715951      -0.00000000 </v>
     <v>      -0.00000000       0.00000000       0.04265377 </v>
    </varray>
   </crystal>
   <varray name="positions" >
    <v>       0.33333300       0.33333300       0.49992500 </v>
    <v>       0.66666700       0.66666700       0.50007500 </v>
    <v>       0.00000000       0.00000000       0.44821600 </v>
    <v>       0.00000000       0.00000000       0.55178400 </v>
    <v>       0.62635700       0.00042000       0.57375200 </v>
    <v>       0.00042000       0.37322400       0.57375200 </v>
    <v>       0.37322400       0.62635700       0.57375200 </v>
    <v>       0.37364300       0.99958000       0.42624800 </v>
    <v>       0.99958000       0.62677600       0.42624800 </v>
    <v>       0.62677600       0.37364300       0.42624800 </v>
   </varray>
  </structure>
  <varray name="forces" >
   <v>      -0.00000000       0.00000000      -0.00164807 </v>
   <v>       0.00000000      -0.00000000       0.00164807 </v>
   <v>      -0.00000000       0.00000000       0.95255440 </v>
   <v>       0.00000000       0.00000000      -0.95255440 </v>
   <v>      -0.13392518      -0.00703411      -0.25852559 </v>
   <v>       0.06087087       0.11949965      -0.25852559 </v>
   <v>       0.07305431      -0.11246555      -0.25852559 </v>
   <v>       0.13392518       0.00703411       0.25852559 </v>
   <v>      -0.06087087      -0.11949965       0.25852559 </v>
   <v>      -0.07305431       0.11246555       0.25852559 </v>
  </varray>
  <varray name="stress" >
   <v>      -4.47661388       0.00000054      -0.00000000 </v>
   <v>       0.00000021      -4.47661333       0.00000000 </v>
   <v>      -0.00000000       0.00000000      -8.15807821 </v>
  </varray>
  <energy>
   <i name="e_fr_energy">    -42.95638913 </i>
   <i name="e_wo_entrp">    -42.95638913 </i>
   <i name="e_0_energy">      0.00000000 </i>
  </energy>
  <time name="totalsc"> 1054.68 1598.18</time>
 </calculation>
 <calculation>
  <scstep>
   <time name="dav">   21.84   34.01</time>
   <time name="total">   61.90   94.58</time>
   <energy>
    <i name="alphaZ">     12.82953208 </i>
    <i name="ewald">   6462.29585526 </i>
    <i name="hartreedc">  -8507.53210658 </i>
    <i name="XCdc">   -204.81812154 </i>
    <i name="pawpsdc">   1234.33762961 </i>
    <i name="pawaedc">   -936.34788008 </i>
    <i name="eentropy">      0.00000000 </i>
    <i name="bandstr">   -360.37013930 </i>
    <i name="atom">   2256.05692028 </i>
    <i name="e_fr_energy">    -43.54831026 </i>
    <i name="e_wo_entrp">    -43.54831026 </i>
    <i name="e_0_energy">    -43.54831026 </i>
   </energy>
  </scstep>
  <scstep>
   <time name="dav">   21.74   34.14</time>
   <time name="total">   61.85   94.74</time>
   <energy>
    <i name="e_fr_energy">    -43.50573433 </i>
    <i name="e_wo_entrp">    -43.50573433 </i>
    <i name="e_0_energy">    -43.50573433 </i>
   </energy>
  </scstep>
  <scstep>
   <time name="dav">   23.70   36.75</time>
   <time name="total">   64.47   98.00</time>
   <energy>
    <i name="e_fr_energy">    -43.23097287 </i>
    <i name="e_wo_entrp">    -43.23097287 </i>
    <i name="e_0_energy">    -43.23097287 </i>
   </energy>
  </scstep>
  <scstep>
   <time name="dav">   27.15   39.76</time>
   <time name="total">   68.79  102.56</time>
   <energy>
    <i name="e_fr_energy">    -43.09687956 </i>
    <i name="e_wo_entrp">    -43.09687956 </i>
    <i name="e_0_energy">    -43.09687956 </i>
   </energy>
  </scstep>
  <scstep>
   <time name="dav">   25.34   37.66</time>
   <time name="total">   67.69   99.33</time>
   <energy>
    <i name="e_fr_energy">    -43.08996068 </i>
    <i name="e_wo_entrp">    -43.08996068 </i>
    <i name="e_0_energy">    -43.08996068 </i>
   </energy>
  </scstep>
  <scstep>
   <time name="dav">   22.37   34.44</time>
   <time name="total">   63.71   97.01</time>
   <energy>
    <i name="e_fr_energy">    -43.09094682 </i>
    <i name="e_wo_entrp">    -43.09094682 </i>
    <i name="e_0_energy">    -43.09094682 </i>
   </energy>
  </scstep>
  <scstep>
   <time name="dav">   22.53   33.28</time>
   <time name="total">   63.55   94.85</time>
   <energy>
    <i name="e_fr_energy">    -43.09313760 </i>
    <i name="e_wo_entrp">    -43.09313760 </i>
    <i name="e_0_energy">    -43.09313760 </i>
   </energy>
  </scstep>
  <scstep>
   <time name="dav">   20.60   33.20</time>
   <time name="total">   60.30   93.69</time>
   <energy>
    <i name="e_fr_energy">    -43.09517941 </i>
    <i name="e_wo_entrp">    -43.09517941 </i>
    <i name="e_0_energy">    -43.09517941 </i>
   </energy>
  </scstep>
  <scstep>
   <time name="dav">   20.94   32.01</time>
   <time name="total">   62.82   94.12</time>
   <energy>
    <i name="e_fr_energy">    -43.09791865 </i>
    <i name="e_wo_entrp">    -43.09791865 </i>
    <i name="e_0_energy">    -43.09791865 </i>
   </energy>
  </scstep>
  <scstep>
   <time name="dav">   21.58   33.11</time>
   <time name="total">   61.54   93.89</time>
   <energy>
    <i name="e_fr_energy">    -43.09956994 </i>
    <i name="e_wo_entrp">    -43.09956994 </i>
    <i name="e_0_energy">    -43.09956994 </i>
   </energy>
  </scstep>
  <scstep>
   <time name="dav">   24.26   37.15</time>
   <time name="total">   64.65   98.50</time>
   <energy>
    <i name="e_fr_energy">    -43.10021001 </i>
    <i name="e_wo_entrp">    -43.10021001 </i>
    <i name="e_0_energy">    -43.10021001 </i>
   </energy>
  </scstep>
  <scstep>
   <time name="dav">   24.26   35.15</time>
   <time name="total">   64.34   94.45</time>
   <energy>
    <i name="alphaZ">     12.82953208 </i>
    <i name="ewald">   6462.29585526 </i>
    <i name="hartreedc">  -8478.22864916 </i>
    <i name="XCdc">   -205.39849929 </i>
    <i name="pawpsdc">   1252.95193501 </i>
    <i name="pawaedc">   -955.21667678 </i>
    <i name="eentropy">      0.00000000 </i>
    <i name="bandstr">   -388.39068556 </i>
    <i name="atom">   2256.05692028 </i>
    <i name="e_fr_energy">    -43.10026817 </i>
    <i name="e_wo_entrp">    -43.10026817 </i>
    <i name="e_0_energy">    -43.10026817 </i>
   </energy>
  </scstep>
  <structure>
   <crystal>
    <varray name="basis" >
     <v>       6.81756623       0.00000001      -0.00000000 </v>
     <v>       3.40878263       5.90418520       0.00000000 </v>
     <v>      -0.00000000       0.00000000      22.88663077 </v>
    </varray>
    <i name="volume">    921.23663537 </i>
    <varray name="rec_basis" >
     <v>       0.14667991      -0.08468568       0.00000000 </v>
     <v>      -0.00000000       0.16937138      -0.00000000 </v>
     <v>       0.00000000      -0.00000000       0.04369363 </v>
    </varray>
   </crystal>
   <varray name="positions" >
    <v>       0.33333300       0.33333300       0.49992500 </v>
    <v>       0.66666700       0.66666700       0.50007500 </v>
    <v>      -0.00000000       0.00000000       0.45017610 </v>
    <v>       0.00000000       0.00000000       0.54982390 </v>
    <v>       0.62635700       0.00042000       0.57375200 </v>
    <v>       0.00042000       0.37322400       0.57375200 </v>
    <v>       0.37322400       0.62635700       0.57375200 </v>
    <v>       0.37364300       0.99958000       0.42624800 </v>
    <v>       0.99958000       0.62677600       0.42624800 </v>
    <v>       0.62677600       0.37364300       0.42624800 </v>
   </varray>
  </structure>
  <varray name="forces" >
   <v>      -0.00000000       0.00000000      -0.00475522 </v>
   <v>      -0.00000000       0.00000000       0.00475522 </v>
   <v>      -0.00000000       0.00000000       0.27681559 </v>
   <v>      -0.00000000       0.00000000      -0.27681559 </v>
   <v>      -0.16391312      -0.00740806       0.03786445 </v>
   <v>       0.07554098       0.14565695       0.03786445 </v>
   <v>       0.08837214      -0.13824888       0.03786445 </v>
   <v>       0.16391312       0.00740806      -0.03786445 </v>
   <v>      -0.07554098      -0.14565695      -0.03786445 </v>
   <v>      -0.08837214       0.13824888      -0.03786445 </v>
  </varray>
  <varray name="stress" >
   <v>       2.34394247      -0.00000015      -0.00000000 </v>
   <v>      -0.00000023       2.34394219       0.00000000 </v>
   <v>       0.00000000       0.00000000      -0.77710215 </v>
  </varray>
  <energy>
   <i name="e_fr_energy">    -43.10026817 </i>
   <i name="e_wo_entrp">    -43.10026817 </i>
   <i name="e_0_energy">      0.00000000 </i>
  </energy>
  <time name="totalsc">  867.01 1307.72</time>
 </calculation>
 <calculation>
  <scstep>
   <time name="dav">   23.25   35.13</time>
   <time name="total">   63.46   95.94</time>
   <energy>
    <i name="alphaZ">     12.83138037 </i>
    <i name="ewald">   6462.29282452 </i>
    <i name="hartreedc">  -8477.69253253 </i>
    <i name="XCdc">   -205.39241772 </i>
    <i name="pawpsdc">   1253.05003960 </i>
    <i name="pawaedc">   -955.32493701 </i>
    <i name="eentropy">      0.00000000 </i>
    <i name="bandstr">   -388.92126144 </i>
    <i name="atom">   2256.05692028 </i>
    <i name="e_fr_energy">    -43.09998393 </i>
    <i name="e_wo_entrp">    -43.09998393 </i>
    <i name="e_0_energy">    -43.09998393 </i>
   </energy>
  </scstep>
  <scstep>
   <time name="dav">   21.95   32.91</time>
   <time name="total">   60.70   91.61</time>
   <energy>
    <i name="alphaZ">     12.83138037 </i>
    <i name="ewald">   6462.29282452 </i>
    <i name="hartreedc">  -8477.59513021 </i>
    <i name="XCdc">   -205.39589910 </i>
    <i name="pawpsdc">   1253.06035237 </i>
    <i name="pawaedc">   -955.33047779 </i>
    <i name="eentropy">      0.00000000 </i>
    <i name="bandstr">   -389.01989233 </i>
    <i name="atom">   2256.05692028 </i>
    <i name="e_fr_energy">    -43.09992190 </i>
    <i name="e_wo_entrp">    -43.09992190 </i>
    <i name="e_0_energy">    -43.09992190 </i>
   </energy>
  </scstep>
  <structure>
   <crystal>
    <varray name="basis" >
     <v>       6.81731064       0.00000001      -0.00000000 </v>
     <v>       3.40865483       5.90396386       0.00000000 </v>
     <v>      -0.00000000       0.00000000      22.88504995 </v>
    </varray>
    <i name="volume">    921.10393653 </i>
    <varray name="rec_basis" >
     <v>       0.14668541      -0.08468885       0.00000000 </v>
     <v>      -0.00000000       0.16937773      -0.00000000 </v>
     <v>       0.00000000      -0.00000000       0.04369665 </v>
    </varray>
   </crystal>
   <varray name="positions" >
    <v>       0.33333300       0.33333300       0.49992500 </v>
    <v>       0.66666700       0.66666700       0.50007500 </v>
    <v>      -0.00000000      -0.00000000       0.45018179 </v>
    <v>       0.00000000       0.00000000       0.54981821 </v>
    <v>       0.62635700       0.00042000       0.57375200 </v>
    <v>       0.00042000       0.37322400       0.57375200 </v>
    <v>       0.37322400       0.62635700       0.57375200 </v>
    <v>       0.37364300       0.99958000       0.42624800 </v>
    <v>       0.99958000       0.62677600       0.42624800 </v>
    <v>       0.62677600       0.37364300       0.42624800 </v>
   </varray>
  </structure>
  <varray name="forces" >
   <v>       0.00000000      -0.00000000      -0.00472072 </v>
   <v>       0.00000000       0.00000000       0.00472072 </v>
   <v>       0.00000000       0.00000000       0.27361535 </v>
   <v>       0.00000000      -0.00000000      -0.27361535 </v>
   <v>      -0.16451515      -0.00694703       0.03759368 </v>
   <v>       0.07624126       0.14594780       0.03759368 </v>
   <v>       0.08827389      -0.13900077       0.03759368 </v>
   <v>       0.16451515       0.00694703      -0.03759368 </v>
   <v>      -0.07624126      -0.14594780      -0.03759368 </v>
   <v>      -0.08827389       0.13900077      -0.03759368 </v>
  </varray>
  <varray name="stress" >
   <v>       2.45734989      -0.00000002       0.00000000 </v>
   <v>      -0.00000038       2.45734959       0.00000000 </v>
   <v>       0.00000000       0.00000000      -0.62371865 </v>
  </varray>
  <energy>
   <i name="e_fr_energy">    -43.09992190 </i>
   <i name="e_wo_entrp">    -43.09992190 </i>
   <i name="e_0_energy">      0.00000000 </i>
  </energy>
  <time name="totalsc">  224.83  339.29</time>
 </calculation>
 <calculation>
  <scstep>
   <time name="dav">   21.22   32.49</time>
   <time name="total">   63.80   95.13</time>
   <energy>
    <i name="alphaZ">     12.74982763 </i>
    <i name="ewald">   6343.46367155 </i>
    <i name="hartreedc">  -8360.82516808 </i>
    <i name="XCdc">   -205.51646010 </i>
    <i name="pawpsdc">   1253.11003396 </i>
    <i name="pawaedc">   -955.38452691 </i>
    <i name="eentropy">      0.00000000 </i>
    <i name="bandstr">   -386.77249294 </i>
    <i name="atom">   2256.05692028 </i>
    <i name="e_fr_energy">    -43.11819461 </i>
    <i name="e_wo_entrp">    -43.11819461 </i>
    <i name="e_0_energy">    -43.11819461 </i>
   </energy>
  </scstep>
  <scstep>
   <time name="dav">   22.14   32.88</time>
   <time name="total">   62.83   94.45</time>
   <energy>
    <i name="e_fr_energy">    -43.11821927 </i>
    <i name="e_wo_entrp">    -43.11821927 </i>
    <i name="e_0_energy">    -43.11821927 </i>
   </energy>
  </scstep>
  <scstep>
   <time name="dav">   25.10   37.60</time>
   <time name="total">   65.24   98.82</time>
   <energy>
    <i name="e_fr_energy">    -43.11556239 </i>
    <i name="e_wo_entrp">    -43.11556239 </i>
    <i name="e_0_energy">    -43.11556239 </i>
   </energy>
  </scstep>
  <scstep>
   <time name="dav">   23.78   35.90</time>
   <time name="total">   64.99   97.39</time>
   <energy>
    <i name="e_fr_energy">    -43.11216259 </i>
    <i name="e_wo_entrp">    -43.11216259 </i>
    <i name="e_0_energy">    -43.11216259 </i>
   </energy>
  </scstep>
  <scstep>
   <time name="dav">   26.71   40.49</time>
   <time name="total">   67.48  101.36</time>
   <energy>
    <i name="e_fr_energy">    -43.11101174 </i>
    <i name="e_wo_entrp">    -43.11101174 </i>
    <i name="e_0_energy">    -43.11101174 </i>
   </energy>
  </scstep>
  <scstep>
   <time name="dav">   20.72   33.04</time>
   <time name="total">   62.14   95.03</time>
   <energy>
    <i name="e_fr_energy">    -43.11088748 </i>
    <i name="e_wo_entrp">    -43.11088748 </i>
    <i name="e_0_energy">    -43.11088748 </i>
   </energy>
  </scstep>
  <scstep>
   <time name="dav">   19.11   28.06</time>
   <time name="total">   58.81   90.05</time>
   <energy>
    <i name="e_fr_energy">    -43.11069459 </i>
    <i name="e_wo_entrp">    -43.11069459 </i>
    <i name="e_0_energy">    -43.11069459 </i>
   </energy>
  </scstep>
  <scstep>
   <time name="dav">   19.07   28.38</time>
   <time name="total">   57.80   87.96</time>
   <energy>
    <i name="alphaZ">     12.74982763 </i>
    <i name="ewald">   6343.46367155 </i>
    <i name="hartreedc">  -8359.04513675 </i>
    <i name="XCdc">   -205.49486747 </i>
    <i name="pawpsdc">   1250.50268796 </i>
    <i name="pawaedc">   -952.72336327 </i>
    <i name="eentropy">      0.00000000 </i>
    <i name="bandstr">   -388.62038692 </i>
    <i name="atom">   2256.05692028 </i>
    <i name="e_fr_energy">    -43.11064700 </i>
    <i name="e_wo_entrp">    -43.11064700 </i>
    <i name="e_0_energy">    -43.11064700 </i>
   </energy>
  </scstep>
  <structure>
   <crystal>
    <varray name="basis" >
     <v>       6.85400249       0.00000001      -0.00000000 </v>
     <v>       3.42700075       5.93573992       0.00000000 </v>
     <v>      -0.00000000       0.00000000      22.78550106 </v>
    </varray>
    <i name="volume">    926.99566714 </i>
    <varray name="rec_basis" >
     <v>       0.14590015      -0.08423548       0.00000000 </v>
     <v>      -0.00000000       0.16847099      -0.00000000 </v>
     <v>       0.00000000      -0.00000000       0.04388756 </v>
    </varray>
   </crystal>
   <varray name="positions" >
    <v>       0.33333300       0.33333300       0.49992500 </v>
    <v>       0.66666700       0.66666700       0.50007500 </v>
    <v>       0.00000000       0.00000000       0.45097989 </v>
    <v>       0.00000000      -0.00000000       0.54902011 </v>
    <v>       0.62635700       0.00042000       0.57375200 </v>
    <v>       0.00042000       0.37322400       0.57375200 </v>
    <v>       0.37322400       0.62635700       0.57375200 </v>
    <v>       0.37364300       0.99958000       0.42624800 </v>
    <v>       0.99958000       0.62677600       0.42624800 </v>
    <v>       0.62677600       0.37364300       0.42624800 </v>
   </varray>
  </structure>
  <varray name="forces" >
   <v>       0.00000000       0.00000000      -0.00495888 </v>
   <v>       0.00000000       0.00000000       0.00495888 </v>
   <v>       0.00000000       0.00000000      -0.11560836 </v>
   <v>       0.00000000       0.00000000       0.11560836 </v>
   <v>      -0.11595773      -0.00733983       0.00758736 </v>
   <v>       0.05162238       0.10409225       0.00758736 </v>
   <v>       0.06433535      -0.09675242       0.00758736 </v>
   <v>       0.11595773       0.00733983      -0.00758736 </v>
   <v>      -0.05162238      -0.10409225      -0.00758736 </v>
   <v>      -0.06433535       0.09675242      -0.00758736 </v>
  </varray>
  <varray name="stress" >
   <v>       0.19330814       0.00000075       0.00000000 </v>
   <v>      -0.00000078       0.19330812       0.00000000 </v>
   <v>       0.00000000      -0.00000000       0.09596497 </v>
  </varray>
  <energy>
   <i name="e_fr_energy">    -43.11064700 </i>
   <i name="e_wo_entrp">    -43.11064700 </i>
   <i name="e_0_energy">      0.00000000 </i>
  </energy>
  <time name="totalsc">  603.35  911.98</time>
 </calculation>
 <calculation>
  <scstep>
   <time name="dav">   22.12   34.62</time>
   <time name="total">   62.36   97.12</time>
   <energy>
    <i name="alphaZ">     12.76051550 </i>
    <i name="ewald">   6359.03626595 </i>
    <i name="hartreedc">  -8373.72904396 </i>
    <i name="XCdc">   -205.48428648 </i>
    <i name="pawpsdc">   1250.58643408 </i>
    <i name="pawaedc">   -952.80958225 </i>
    <i name="eentropy">      0.00000000 </i>
    <i name="bandstr">   -389.52825862 </i>
    <i name="atom">   2256.05692028 </i>
    <i name="e_fr_energy">    -43.11103550 </i>
    <i name="e_wo_entrp">    -43.11103550 </i>
    <i name="e_0_energy">    -43.11103550 </i>
   </energy>
  </scstep>
  <scstep>
   <time name="dav">   22.61   35.08</time>
   <time name="total">   63.67   97.03</time>
   <energy>
    <i name="e_fr_energy">    -43.11105539 </i>
    <i name="e_wo_entrp">    -43.11105539 </i>
    <i name="e_0_energy">    -43.11105539 </i>
   </energy>
  </scstep>
  <scstep>
   <time name="dav">   19.89   30.88</time>
   <time name="total">   60.71   93.26</time>
   <energy>
    <i name="e_fr_energy">    -43.11117933 </i>
    <i name="e_wo_entrp">    -43.11117933 </i>
    <i name="e_0_energy">    -43.11117933 </i>
   </energy>
  </scstep>
  <scstep>
   <time name="dav">   19.13   29.25</time>
   <time name="total">   57.63   89.40</time>
   <energy>
    <i name="alphaZ">     12.76051550 </i>
    <i name="ewald">   6359.03626595 </i>
    <i name="hartreedc">  -8373.38015099 </i>
    <i name="XCdc">   -205.49268972 </i>
    <i name="pawpsdc">   1250.88860663 </i>
    <i name="pawaedc">   -953.11371905 </i>
    <i name="eentropy">      0.00000000 </i>
    <i name="bandstr">   -389.86685141 </i>
    <i name="atom">   2256.05692028 </i>
    <i name="e_fr_energy">    -43.11110282 </i>
    <i name="e_wo_entrp">    -43.11110282 </i>
    <i name="e_0_energy">    -43.11110282 </i>
   </energy>
  </scstep>
  <structure>
   <crystal>
    <varray name="basis" >
     <v>       6.84915524       0.00000001      -0.00000000 </v>
     <v>       3.42457712       5.93154209       0.00000000 </v>
     <v>      -0.00000000       0.00000000      22.79865215 </v>
    </varray>
    <i name="volume">    926.21923996 </i>
    <varray name="rec_basis" >
     <v>       0.14600341      -0.08429510       0.00000000 </v>
     <v>      -0.00000000       0.16859022      -0.00000000 </v>
     <v>       0.00000000      -0.00000000       0.04386224 </v>
    </varray>
   </crystal>
   <varray name="positions" >
    <v>       0.33333300       0.33333300       0.49992500 </v>
    <v>       0.66666700       0.66666700       0.50007500 </v>
    <v>       0.00000000       0.00000000       0.45087400 </v>
    <v>       0.00000000      -0.00000000       0.54912600 </v>
    <v>       0.62635700       0.00042000       0.57375200 </v>
    <v>       0.00042000       0.37322400       0.57375200 </v>
    <v>       0.37322400       0.62635700       0.57375200 </v>
    <v>       0.37364300       0.99958000       0.42624800 </v>
    <v>       0.99958000       0.62677600       0.42624800 </v>
    <v>       0.62677600       0.37364300       0.42624800 </v>
   </varray>
  </structure>
  <varray name="forces" >
   <v>       0.00000000      -0.00000000      -0.00497867 </v>
   <v>       0.00000000       0.00000000       0.00497867 </v>
   <v>       0.00000000      -0.00000000      -0.05805068 </v>
   <v>       0.00000000       0.00000000       0.05805068 </v>
   <v>      -0.12301395      -0.00741692       0.01028012 </v>
   <v>       0.05508372       0.11024166       0.01028012 </v>
   <v>       0.06793023      -0.10282474       0.01028012 </v>
   <v>       0.12301395       0.00741692      -0.01028012 </v>
   <v>      -0.05508372      -0.11024166      -0.01028012 </v>
   <v>      -0.06793023       0.10282474      -0.01028012 </v>
  </varray>
  <varray name="stress" >
   <v>       0.49706527      -0.00000040      -0.00000000 </v>
   <v>       0.00000032       0.49706521       0.00000000 </v>
   <v>       0.00000000       0.00000000       0.31751494 </v>
  </varray>
  <energy>
   <i name="e_fr_energy">    -43.11110282 </i>
   <i name="e_wo_entrp">    -43.11110282 </i>
   <i name="e_0_energy">      0.00000000 </i>
  </energy>
  <time name="totalsc">  343.30  528.29</time>
 </calculation>
 <calculation>
  <scstep>
   <time name="dav">   22.60   34.99</time>
   <time name="total">   62.87   96.29</time>
   <energy>
    <i name="alphaZ">     12.71744247 </i>
    <i name="ewald">   6347.99978932 </i>
    <i name="hartreedc">  -8360.16378928 </i>
    <i name="XCdc">   -205.58382291 </i>
    <i name="pawpsdc">   1250.99161906 </i>
    <i name="pawaedc">   -953.22256385 </i>
    <i name="eentropy">      0.00000000 </i>
    <i name="bandstr">   -391.90892478 </i>
    <i name="atom">   2256.05692028 </i>
    <i name="e_fr_energy">    -43.11332970 </i>
    <i name="e_wo_entrp">    -43.11332970 </i>
    <i name="e_0_energy">    -43.11332970 </i>
   </energy>
  </scstep>
  <scstep>
   <time name="dav">   25.27   37.27</time>
   <time name="total">   65.31   98.98</time>
   <energy>
    <i name="e_fr_energy">    -43.11397558 </i>
    <i name="e_wo_entrp">    -43.11397558 </i>
    <i name="e_0_energy">    -43.11397558 </i>
   </energy>
  </scstep>
  <scstep>
   <time name="dav">   23.39   36.08</time>
   <time name="total">   65.08   99.02</time>
   <energy>
    <i name="e_fr_energy">    -43.11214569 </i>
    <i name="e_wo_entrp">    -43.11214569 </i>
    <i name="e_0_energy">    -43.11214569 </i>
   </energy>
  </scstep>
  <scstep>
   <time name="dav">   23.17   35.13</time>
   <time name="total">   63.14   97.06</time>
   <energy>
    <i name="e_fr_energy">    -43.11184725 </i>
    <i name="e_wo_entrp">    -43.11184725 </i>
    <i name="e_0_energy">    -43.11184725 </i>
   </energy>
  </scstep>
  <scstep>
   <time name="dav">   21.85   31.44</time>
   <time name="total">   60.38   91.18</time>
   <energy>
    <i name="alphaZ">     12.71744247 </i>
    <i name="ewald">   6347.99978932 </i>
    <i name="hartreedc">  -8361.02197005 </i>
    <i name="XCdc">   -205.55314721 </i>
    <i name="pawpsdc">   1250.12093841 </i>
    <i name="pawaedc">   -952.35115610 </i>
    <i name="eentropy">      0.00000000 </i>
    <i name="bandstr">   -391.08061131 </i>
    <i name="atom">   2256.05692028 </i>
    <i name="e_fr_energy">    -43.11179421 </i>
    <i name="e_wo_entrp">    -43.11179421 </i>
    <i name="e_0_energy">    -43.11179421 </i>
   </energy>
  </scstep>
  <structure>
   <crystal>
    <varray name="basis" >
     <v>       6.85736820       0.00000000      -0.00000000 </v>
     <v>       3.42868361       5.93865471       0.00000000 </v>
     <v>      -0.00000000       0.00000000      22.82110622 </v>
    </varray>
    <i name="volume">    929.35627579 </i>
    <varray name="rec_basis" >
     <v>       0.14582854      -0.08419414       0.00000000 </v>
     <v>      -0.00000000       0.16838831      -0.00000000 </v>
     <v>       0.00000000      -0.00000000       0.04381909 </v>
    </varray>
   </crystal>
   <varray name="positions" >
    <v>       0.33333300       0.33333300       0.49992500 </v>
    <v>       0.66666700       0.66666700       0.50007500 </v>
    <v>       0.00000000       0.00000000       0.45073182 </v>
    <v>       0.00000000      -0.00000000       0.54926818 </v>
    <v>       0.62635700       0.00042000       0.57375200 </v>
    <v>       0.00042000       0.37322400       0.57375200 </v>
    <v>       0.37322400       0.62635700       0.57375200 </v>
    <v>       0.37364300       0.99958000       0.42624800 </v>
    <v>       0.99958000       0.62677600       0.42624800 </v>
    <v>       0.62677600       0.37364300       0.42624800 </v>
   </varray>
  </structure>
  <varray name="forces" >
   <v>      -0.00000000      -0.00000000      -0.00485484 </v>
   <v>      -0.00000000       0.00000000       0.00485484 </v>
   <v>      -0.00000000      -0.00000000       0.00930020 </v>
   <v>      -0.00000000       0.00000000      -0.00930020 </v>
   <v>      -0.11860773      -0.00561356      -0.00759032 </v>
   <v>       0.05444237       0.10552408      -0.00759032 </v>
   <v>       0.06416536      -0.09991052      -0.00759032 </v>
   <v>       0.11860773       0.00561356       0.00759032 </v>
   <v>      -0.05444237      -0.10552408       0.00759032 </v>
   <v>      -0.06416536       0.09991052       0.00759032 </v>
  </varray>
  <varray name="stress" >
   <v>      -0.07833166      -0.00000001       0.00000000 </v>
   <v>       0.00000003      -0.07833165       0.00000000 </v>
   <v>       0.00000000       0.00000000      -0.27923390 </v>
  </varray>
  <energy>
   <i name="e_fr_energy">    -43.11179421 </i>
   <i name="e_wo_entrp">    -43.11179421 </i>
   <i name="e_0_energy">      0.00000000 </i>
  </energy>
  <time name="totalsc">  416.39  633.43</time>
 </calculation>
 <calculation>
  <scstep>
   <time name="dav">   21.50   32.33</time>
   <time name="total">   62.52   93.83</time>
   <energy>
    <i name="alphaZ">     12.72641774 </i>
    <i name="ewald">   6350.30073435 </i>
    <i name="hartreedc">  -8363.71483122 </i>
    <i name="XCdc">   -205.53528364 </i>
    <i name="pawpsdc">   1249.92506791 </i>
    <i name="pawaedc">   -952.14746993 </i>
    <i name="eentropy">      0.00000000 </i>
    <i name="bandstr">   -390.72342170 </i>
    <i name="atom">   2256.05692028 </i>
    <i name="e_fr_energy">    -43.11186620 </i>
    <i name="e_wo_entrp">    -43.11186620 </i>
    <i name="e_0_energy">    -43.11186620 </i>
   </energy>
  </scstep>
  <scstep>
   <time name="dav">   21.36   30.65</time>
   <time name="total">   62.65   93.12</time>
   <energy>
    <i name="e_fr_energy">    -43.11176206 </i>
    <i name="e_wo_entrp">    -43.11176206 </i>
    <i name="e_0_energy">    -43.11176206 </i>
   </energy>
  </scstep>
  <scstep>
   <time name="dav">   17.26   26.36</time>
   <time name="total">   56.21   85.61</time>
   <energy>
    <i name="alphaZ">     12.72641774 </i>
    <i name="ewald">   6350.30073435 </i>
    <i name="hartreedc">  -8363.52646074 </i>
    <i name="XCdc">   -205.54146961 </i>
    <i name="pawpsdc">   1249.89359310 </i>
    <i name="pawaedc">   -952.11057382 </i>
    <i name="eentropy">      0.00000000 </i>
    <i name="bandstr">   -390.91096104 </i>
    <i name="atom">   2256.05692028 </i>
    <i name="e_fr_energy">    -43.11179976 </i>
    <i name="e_wo_entrp">    -43.11179976 </i>
    <i name="e_0_energy">    -43.11179976 </i>
   </energy>
  </scstep>
  <structure>
   <crystal>
    <varray name="basis" >
     <v>       6.85565378       0.00000001      -0.00000000 </v>
     <v>       3.42782639       5.93716998       0.00000000 </v>
     <v>      -0.00000000       0.00000000      22.81641902 </v>
    </varray>
    <i name="volume">    928.70085012 </i>
    <varray name="rec_basis" >
     <v>       0.14586501      -0.08421520       0.00000000 </v>
     <v>      -0.00000000       0.16843041      -0.00000000 </v>
     <v>       0.00000000      -0.00000000       0.04382809 </v>
    </varray>
   </crystal>
   <varray name="positions" >
    <v>       0.33333300       0.33333300       0.49992500 </v>
    <v>       0.66666700       0.66666700       0.50007500 </v>
    <v>       0.00000000       0.00000000       0.45076147 </v>
    <v>       0.00000000      -0.00000000       0.54923853 </v>
    <v>       0.62635700       0.00042000       0.57375200 </v>
    <v>       0.00042000       0.37322400       0.57375200 </v>
    <v>       0.37322400       0.62635700       0.57375200 </v>
    <v>       0.37364300       0.99958000       0.42624800 </v>
    <v>       0.99958000       0.62677600       0.42624800 </v>
    <v>       0.62677600       0.37364300       0.42624800 </v>
   </varray>
  </structure>
  <varray name="forces" >
   <v>      -0.00000000      -0.00000000      -0.00487255 </v>
   <v>      -0.00000000      -0.00000000       0.00487255 </v>
   <v>      -0.00000000      -0.00000000      -0.00747899 </v>
   <v>      -0.00000000      -0.00000000       0.00747899 </v>
   <v>      -0.12017645      -0.00604386      -0.00254656 </v>
   <v>       0.05485408       0.10709779      -0.00254656 </v>
   <v>       0.06532237      -0.10105393      -0.00254656 </v>
   <v>       0.12017645       0.00604386       0.00254656 </v>
   <v>      -0.05485408      -0.10709779       0.00254656 </v>
   <v>      -0.06532237       0.10105393       0.00254656 </v>
  </varray>
  <varray name="stress" >
   <v>      -0.35872695       0.00000000       0.00000000 </v>
   <v>       0.00000006      -0.35872690       0.00000000 </v>
   <v>      -0.00000000       0.00000000      -0.65851628 </v>
  </varray>
  <energy>
   <i name="e_fr_energy">    -43.11179976 </i>
   <i name="e_wo_entrp">    -43.11179976 </i>
   <i name="e_0_energy">      0.00000000 </i>
  </energy>
  <time name="totalsc">  278.47  421.30</time>
  <eigenvalues>
   <array>
    <dimension dim="1">band</dimension>
    <dimension dim="2">kpoint</dimension>
    <dimension dim="3">spin</dimension>
    <field>eigene</field>
    <field>occ</field>
    <set>
     <set comment="spin 1">
      <set comment="kpoint 1">
       <r>  -15.5158    1.0000 </r>
       <r>  -13.9675    1.0000 </r>
       <r>  -12.6518    1.0000 </r>
       <r>  -12.6518    1.0000 </r>
       <r>  -12.6087    1.0000 </r>
       <r>  -12.6087    1.0000 </r>
       <r>  -12.5525    1.0000 </r>
       <r>  -10.3023    1.0000 </r>
       <r>   -7.0590    1.0000 </r>
       <r>   -7.0590    1.0000 </r>
       <r>   -6.9008    1.0000 </r>
       <r>   -6.5899    1.0000 </r>
       <r>   -6.3603    1.0000 </r>
       <r>   -6.3603    1.0000 </r>
       <r>   -5.2705    1.0000 </r>
       <r>   -5.0088    1.0000 </r>
       <r>   -4.3779    1.0000 </r>
       <r>   -4.3779    1.0000 </r>
       <r>   -4.0631    1.0000 </r>
       <r>   -4.0631    1.0000 </r>
       <r>   -3.6460    1.0000 </r>
       <r>   -3.6459    1.0000 </r>
       <r>   -3.3872    1.0000 </r>
       <r>   -3.0816    1.0000 </r>
       <r>   -3.0816    1.0000 </r>
       <r>   -2.9789    1.0000 </r>
       <r>   -2.9760    1.0000 </r>
       <r>   -2.9760    1.0000 </r>
       <r>   -2.9537    1.0000 </r>
       <r>   -2.2549    1.0000 </r>
       <r>   -2.2548    1.0000 </r>
       <r>   -1.1865   -0.3554 </r>
       <r>   -1.0274    0.0000 </r>
       <r>   -1.0274    0.0000 </r>
       <r>   -0.9132    0.0000 </r>
       <r>   -0.1718    0.0000 </r>
       <r>   -0.1717    0.0000 </r>
       <r>    0.0183    0.0000 </r>
       <r>    0.0184    0.0000 </r>
       <r>    0.8974    0.0000 </r>
       <r>    0.8974    0.0000 </r>
       <r>    1.1190    0.0000 </r>
       <r>    1.8618    0.0000 </r>
       <r>    2.0495    0.0000 </r>
       <r>    2.3257    0.0000 </r>
       <r>    3.2439    0.0000 </r>
       <r>    3.2439    0.0000 </r>
       <r>    3.2950    0.0000 </r>
      </set>
      <set comment="kpoint 2">
       <r>  -15.4421    1.0000 </r>
       <r>  -13.8812    1.0000 </r>
       <r>  -13.1594    1.0000 </r>
       <r>  -12.7807    1.0000 </r>
       <r>  -12.7423    1.0000 </r>
       <r>  -12.6502    1.0000 </r>
       <r>  -12.0250    1.0000 </r>
       <r>  -10.2665    1.0000 </r>
       <r>   -7.0437    1.0000 </r>
       <r>   -7.0139    1.0000 </r>
       <r>   -6.7566    1.0000 </r>
       <r>   -6.6247    1.0000 </r>
       <r>   -6.0208    1.0000 </r>
       <r>   -5.7166    1.0000 </r>
       <r>   -5.1709    1.0000 </r>
       <r>   -5.0769    1.0000 </r>
       <r>   -4.5536    1.0000 </r>
       <r>   -4.4208    1.0000 </r>
       <r>   -4.0790    1.0000 </r>
       <r>   -3.9693    1.0000 </r>
       <r>   -3.9225    1.0000 </r>
       <r>   -3.8714    1.0000 </r>
       <r>   -3.8061    1.0000 </r>
       <r>   -3.2938    1.0000 </r>
       <r>   -3.2187    1.0000 </r>
       <r>   -3.0481    1.0000 </r>
       <r>   -3.0233    1.0000 </r>
       <r>   -2.9358    1.0000 </r>
       <r>   -2.8000    1.0000 </r>
       <r>   -2.5141    1.0000 </r>
       <r>   -2.4127    1.0000 </r>
       <r>   -1.5135    0.8531 </r>
       <r>   -0.8426    0.0000 </r>
       <r>   -0.8306    0.0000 </r>
       <r>   -0.7190    0.0000 </r>
       <r>   -0.5180    0.0000 </r>
       <r>   -0.2271    0.0000 </r>
       <r>    0.0092    0.0000 </r>
       <r>    0.3364    0.0000 </r>
       <r>    0.9505    0.0000 </r>
       <r>    0.9964    0.0000 </r>
       <r>    1.1823    0.0000 </r>
       <r>    2.0463    0.0000 </r>
       <r>    2.2254    0.0000 </r>
       <r>    2.4635    0.0000 </r>
       <r>    3.0838    0.0000 </r>
       <r>    3.2623    0.0000 </r>
       <r>    3.4684    0.0000 </r>
      </set>
      <set comment="kpoint 3">
       <r>  -15.2983    1.0000 </r>
       <r>  -13.6891    1.0000 </r>
       <r>  -13.5780    1.0000 </r>
       <r>  -12.9312    1.0000 </r>
       <r>  -12.8775    1.0000 </r>
       <r>  -12.8368    1.0000 </r>
       <r>  -11.6685    1.0000 </r>
       <r>  -10.1828    1.0000 </r>
       <r>   -6.9637    1.0000 </r>
       <r>   -6.9058    1.0000 </r>
       <r>   -6.4350    1.0000 </r>
       <r>   -6.1342    1.0000 </r>
       <r>   -5.4268    1.0000 </r>
       <r>   -5.3868    1.0000 </r>
       <r>   -5.1490    1.0000 </r>
       <r>   -4.9879    1.0000 </r>
       <r>   -4.7994    1.0000 </r>
       <r>   -4.7648    1.0000 </r>
       <r>   -4.4561    1.0000 </r>
       <r>   -4.4425    1.0000 </r>
       <r>   -4.2429    1.0000 </r>
       <r>   -3.8113    1.0000 </r>
       <r>   -3.7394    1.0000 </r>
       <r>   -3.5877    1.0000 </r>
       <r>   -3.2774    1.0000 </r>
       <r>   -3.1004    1.0000 </r>
       <r>   -3.0267    1.0000 </r>
       <r>   -2.8624    1.0000 </r>
       <r>   -2.7420    1.0000 </r>
       <r>   -2.6534    1.0000 </r>
       <r>   -2.6267    1.0000 </r>
       <r>   -1.5032    1.0000 </r>
       <r>   -1.2282    0.0000 </r>
       <r>   -0.8657    0.0000 </r>
       <r>   -0.7575    0.0000 </r>
       <r>   -0.5528    0.0000 </r>
       <r>   -0.4455    0.0000 </r>
       <r>   -0.2178    0.0000 </r>
       <r>    0.7109    0.0000 </r>
       <r>    0.8744    0.0000 </r>
       <r>    0.9594    0.0000 </r>
       <r>    1.3053    0.0000 </r>
       <r>    2.1516    0.0000 </r>
       <r>    2.5500    0.0000 </r>
       <r>    2.8210    0.0000 </r>
       <r>    3.0130    0.0000 </r>
       <r>    3.2495    0.0000 </r>
       <r>    3.5861    0.0000 </r>
      </set>
      <set comment="kpoint 4">
       <r>  -15.3301    1.0000 </r>
       <r>  -13.7373    1.0000 </r>
       <r>  -13.4371    1.0000 </r>
       <r>  -13.0702    1.0000 </r>
       <r>  -12.8483    1.0000 </r>
       <r>  -12.7045    1.0000 </r>
       <r>  -11.7155    1.0000 </r>
       <r>  -10.1844    1.0000 </r>
       <r>   -7.1169    1.0000 </r>
       <r>   -6.7277    1.0000 </r>
       <r>   -6.5285    1.0000 </r>
       <r>   -6.4535    1.0000 </r>
       <r>   -5.4647    1.0000 </r>
       <r>   -5.2950    1.0000 </r>
       <r>   -5.1369    1.0000 </r>
       <r>   -4.9180    1.0000 </r>
       <r>   -4.8495    1.0000 </r>
       <r>   -4.7292    1.0000 </r>
       <r>   -4.6268    1.0000 </r>
       <r>   -4.2806    1.0000 </r>
       <r>   -4.2168    1.0000 </r>
       <r>   -3.7738    1.0000 </r>
       <r>   -3.5774    1.0000 </r>
       <r>   -3.3623    1.0000 </r>
       <r>   -3.2900    1.0000 </r>
       <r>   -3.1048    1.0000 </r>
       <r>   -3.0877    1.0000 </r>
       <r>   -2.9469    1.0000 </r>
       <r>   -2.7321    1.0000 </r>
       <r>   -2.6382    1.0000 </r>
       <r>   -2.5567    1.0000 </r>
       <r>   -1.6979    1.0000 </r>
       <r>   -1.0055    0.0000 </r>
       <r>   -0.8692    0.0000 </r>
       <r>   -0.6797    0.0000 </r>
       <r>   -0.6223    0.0000 </r>
       <r>   -0.4930    0.0000 </r>
       <r>    0.2300    0.0000 </r>
       <r>    0.2332    0.0000 </r>
       <r>    0.8530    0.0000 </r>
       <r>    0.9184    0.0000 </r>
       <r>    1.2114    0.0000 </r>
       <r>    2.3974    0.0000 </r>
       <r>    2.4631    0.0000 </r>
       <r>    2.7335    0.0000 </r>
       <r>    3.0983    0.0000 </r>
       <r>    3.1063    0.0000 </r>
       <r>    3.7029    0.0000 </r>
      </set>
      <set comment="kpoint 5">
       <r>  -15.2488    1.0000 </r>
       <r>  -13.6139    1.0000 </r>
       <r>  -13.5680    1.0000 </r>
       <r>  -13.2354    1.0000 </r>
       <r>  -12.9304    1.0000 </r>
       <r>  -12.7943    1.0000 </r>
       <r>  -11.5496    1.0000 </r>
       <r>  -10.1131    1.0000 </r>
       <r>   -6.9691    1.0000 </r>
       <r>   -6.5918    1.0000 </r>
       <r>   -6.5750    1.0000 </r>
       <r>   -6.0646    1.0000 </r>
       <r>   -5.7452    1.0000 </r>
       <r>   -5.3393    1.0000 </r>
       <r>   -4.9626    1.0000 </r>
       <r>   -4.9042    1.0000 </r>
       <r>   -4.7929    1.0000 </r>
       <r>   -4.7363    1.0000 </r>
       <r>   -4.5732    1.0000 </r>
       <r>   -4.4362    1.0000 </r>
       <r>   -4.2537    1.0000 </r>
       <r>   -3.9773    1.0000 </r>
       <r>   -3.4202    1.0000 </r>
       <r>   -3.3966    1.0000 </r>
       <r>   -3.3068    1.0000 </r>
       <r>   -3.1703    1.0000 </r>
       <r>   -3.0002    1.0000 </r>
       <r>   -2.9686    1.0000 </r>
       <r>   -2.7650    1.0000 </r>
       <r>   -2.7092    1.0000 </r>
       <r>   -2.6034    1.0000 </r>
       <r>   -1.7086    1.0000 </r>
       <r>   -1.2420    0.0000 </r>
       <r>   -1.0758    0.0000 </r>
       <r>   -0.7701    0.0000 </r>
       <r>   -0.4788    0.0000 </r>
       <r>   -0.4118    0.0000 </r>
       <r>   -0.2553    0.0000 </r>
       <r>    0.3735    0.0000 </r>
       <r>    0.5844    0.0000 </r>
       <r>    0.9835    0.0000 </r>
       <r>    1.0490    0.0000 </r>
       <r>    2.6068    0.0000 </r>
       <r>    2.9079    0.0000 </r>
       <r>    2.9424    0.0000 </r>
       <r>    2.9612    0.0000 </r>
       <r>    3.1179    0.0000 </r>
       <r>    3.4623    0.0000 </r>
      </set>
     </set>
     <set comment="spin 2">
      <set comment="kpoint 1">
       <r>  -15.5021    1.0000 </r>
       <r>  -13.9941    1.0000 </r>
       <r>  -12.6896    1.0000 </r>
       <r>  -12.6896    1.0000 </r>
       <r>  -12.6416    1.0000 </r>
       <r>  -12.6416    1.0000 </r>
       <r>  -12.5229    1.0000 </r>
       <r>  -10.2963    1.0000 </r>
       <r>   -6.9788    1.0000 </r>
       <r>   -6.9788    1.0000 </r>
       <r>   -6.8237    1.0000 </r>
       <r>   -6.2879    1.0000 </r>
       <r>   -6.2878    1.0000 </r>
       <r>   -6.2770    1.0000 </r>
       <r>   -5.2045    1.0000 </r>
       <r>   -4.7422    1.0000 </r>
       <r>   -3.8383    1.0000 </r>
       <r>   -3.8383    1.0000 </r>
       <r>   -3.5550    1.0000 </r>
       <r>   -3.5550    1.0000 </r>
       <r>   -3.4111    1.0000 </r>
       <r>   -3.2869    1.0000 </r>
       <r>   -3.2869    1.0000 </r>
       <r>   -2.3738    1.0000 </r>
       <r>   -2.3737    1.0000 </r>
       <r>   -1.3582    0.0000 </r>
       <r>   -1.1699    0.0000 </r>
       <r>   -0.7899    0.0000 </r>
       <r>   -0.7899    0.0000 </r>
       <r>   -0.7521    0.0000 </r>
       <r>   -0.7521    0.0000 </r>
       <r>   -0.2192    0.0000 </r>
       <r>   -0.0743    0.0000 </r>
       <r>   -0.0067    0.0000 </r>
       <r>   -0.0067    0.0000 </r>
       <r>    0.6971    0.0000 </r>
       <r>    0.6971    0.0000 </r>
       <r>    0.9271    0.0000 </r>
       <r>    0.9271    0.0000 </r>
       <r>    1.1148    0.0000 </r>
       <r>    1.1149    0.0000 </r>
       <r>    1.1295    0.0000 </r>
       <r>    1.9903    0.0000 </r>
       <r>    2.3254    0.0000 </r>
       <r>    2.6164    0.0000 </r>
       <r>    3.3215    0.0000 </r>
       <r>    3.5230    0.0000 </r>
       <r>    3.5230    0.0000 </r>
      </set>
      <set comment="kpoint 2">
       <r>  -15.4297    1.0000 </r>
       <r>  -13.9067    1.0000 </r>
       <r>  -13.1604    1.0000 </r>
       <r>  -12.8180    1.0000 </r>
       <r>  -12.7699    1.0000 </r>
       <r>  -12.6846    1.0000 </r>
       <r>  -12.0327    1.0000 </r>
       <r>  -10.2593    1.0000 </r>
       <r>   -6.9766    1.0000 </r>
       <r>   -6.9071    1.0000 </r>
       <r>   -6.6579    1.0000 </r>
       <r>   -6.4974    1.0000 </r>
       <r>   -5.9361    1.0000 </r>
       <r>   -5.5136    1.0000 </r>
       <r>   -4.9133    1.0000 </r>
       <r>   -4.8995    1.0000 </r>
       <r>   -4.0184    1.0000 </r>
       <r>   -4.0060    1.0000 </r>
       <r>   -3.9667    1.0000 </r>
       <r>   -3.5241    1.0000 </r>
       <r>   -3.4586    1.0000 </r>
       <r>   -3.4398    1.0000 </r>
       <r>   -3.3443    1.0000 </r>
       <r>   -3.2145    1.0000 </r>
       <r>   -2.6939    1.0000 </r>
       <r>   -1.3087    0.3401 </r>
       <r>   -1.1506    0.0000 </r>
       <r>   -0.8711    0.0000 </r>
       <r>   -0.7622    0.0000 </r>
       <r>   -0.5178    0.0000 </r>
       <r>   -0.4278    0.0000 </r>
       <r>   -0.2582    0.0000 </r>
       <r>   -0.0968    0.0000 </r>
       <r>    0.1033    0.0000 </r>
       <r>    0.2611    0.0000 </r>
       <r>    0.4009    0.0000 </r>
       <r>    0.5132    0.0000 </r>
       <r>    0.5476    0.0000 </r>
       <r>    1.0307    0.0000 </r>
       <r>    1.1495    0.0000 </r>
       <r>    1.2593    0.0000 </r>
       <r>    1.4854    0.0000 </r>
       <r>    2.1625    0.0000 </r>
       <r>    2.4805    0.0000 </r>
       <r>    2.7256    0.0000 </r>
       <r>    3.3511    0.0000 </r>
       <r>    3.4675    0.0000 </r>
       <r>    3.5783    0.0000 </r>
      </set>
      <set comment="kpoint 3">
       <r>  -15.2885    1.0000 </r>
       <r>  -13.7110    1.0000 </r>
       <r>  -13.5751    1.0000 </r>
       <r>  -12.9699    1.0000 </r>
       <r>  -12.8942    1.0000 </r>
       <r>  -12.8732    1.0000 </r>
       <r>  -11.6837    1.0000 </r>
       <r>  -10.1730    1.0000 </r>
       <r>   -6.8543    1.0000 </r>
       <r>   -6.8421    1.0000 </r>
       <r>   -6.3619    1.0000 </r>
       <r>   -6.0369    1.0000 </r>
       <r>   -5.3407    1.0000 </r>
       <r>   -5.1695    1.0000 </r>
       <r>   -4.9247    1.0000 </r>
       <r>   -4.7669    1.0000 </r>
       <r>   -4.4111    1.0000 </r>
       <r>   -4.3827    1.0000 </r>
       <r>   -4.1969    1.0000 </r>
       <r>   -4.1482    1.0000 </r>
       <r>   -3.6746    1.0000 </r>
       <r>   -3.4160    1.0000 </r>
       <r>   -3.3099    1.0000 </r>
       <r>   -3.2720    1.0000 </r>
       <r>   -2.9642    1.0000 </r>
       <r>   -2.0248    1.0177 </r>
       <r>   -1.3031    0.0238 </r>
       <r>   -1.0232    0.0000 </r>
       <r>   -0.5878    0.0000 </r>
       <r>   -0.5243    0.0000 </r>
       <r>   -0.4028    0.0000 </r>
       <r>   -0.3424    0.0000 </r>
       <r>   -0.0079    0.0000 </r>
       <r>    0.0023    0.0000 </r>
       <r>    0.3142    0.0000 </r>
       <r>    0.3996    0.0000 </r>
       <r>    0.4898    0.0000 </r>
       <r>    0.6126    0.0000 </r>
       <r>    1.1799    0.0000 </r>
       <r>    1.1963    0.0000 </r>
       <r>    1.2784    0.0000 </r>
       <r>    1.5550    0.0000 </r>
       <r>    2.5252    0.0000 </r>
       <r>    2.6533    0.0000 </r>
       <r>    2.8679    0.0000 </r>
       <r>    3.1925    0.0000 </r>
       <r>    3.3069    0.0000 </r>
       <r>    3.7825    0.0000 </r>
      </set>
      <set comment="kpoint 4">
       <r>  -15.3197    1.0000 </r>
       <r>  -13.7605    1.0000 </r>
       <r>  -13.4354    1.0000 </r>
       <r>  -13.0901    1.0000 </r>
       <r>  -12.8851    1.0000 </r>
       <r>  -12.7390    1.0000 </r>
       <r>  -11.7312    1.0000 </r>
       <r>  -10.1747    1.0000 </r>
       <r>   -7.0120    1.0000 </r>
       <r>   -6.6720    1.0000 </r>
       <r>   -6.4109    1.0000 </r>
       <r>   -6.3865    1.0000 </r>
       <r>   -5.3553    1.0000 </r>
       <r>   -5.0560    1.0000 </r>
       <r>   -4.9161    1.0000 </r>
       <r>   -4.6237    1.0000 </r>
       <r>   -4.5633    1.0000 </r>
       <r>   -4.4668    1.0000 </r>
       <r>   -4.3147    1.0000 </r>
       <r>   -3.9656    1.0000 </r>
       <r>   -3.5457    1.0000 </r>
       <r>   -3.3332    1.0000 </r>
       <r>   -3.2615    1.0000 </r>
       <r>   -3.0900    1.0000 </r>
       <r>   -2.9333    1.0000 </r>
       <r>   -2.0172    1.0579 </r>
       <r>   -1.3407    0.1146 </r>
       <r>   -0.9086    0.0000 </r>
       <r>   -0.8983    0.0000 </r>
       <r>   -0.3987    0.0000 </r>
       <r>   -0.3731    0.0000 </r>
       <r>   -0.2786    0.0000 </r>
       <r>   -0.0711    0.0000 </r>
       <r>    0.1382    0.0000 </r>
       <r>    0.1582    0.0000 </r>
       <r>    0.5109    0.0000 </r>
       <r>    0.5491    0.0000 </r>
       <r>    0.6886    0.0000 </r>
       <r>    0.9368    0.0000 </r>
       <r>    1.1154    0.0000 </r>
       <r>    1.1920    0.0000 </r>
       <r>    1.5792    0.0000 </r>
       <r>    2.4940    0.0000 </r>
       <r>    2.7748    0.0000 </r>
       <r>    2.8677    0.0000 </r>
       <r>    3.3307    0.0000 </r>
       <r>    3.3598    0.0000 </r>
       <r>    3.7604    0.0000 </r>
      </set>
      <set comment="kpoint 5">
       <r>  -15.2398    1.0000 </r>
       <r>  -13.6339    1.0000 </r>
       <r>  -13.5673    1.0000 </r>
       <r>  -13.2469    1.0000 </r>
       <r>  -12.9693    1.0000 </r>
       <r>  -12.8298    1.0000 </r>
       <r>  -11.5706    1.0000 </r>
       <r>  -10.1011    1.0000 </r>
       <r>   -6.8643    1.0000 </r>
       <r>   -6.5518    1.0000 </r>
       <r>   -6.4837    1.0000 </r>
       <r>   -5.9873    1.0000 </r>
       <r>   -5.6041    1.0000 </r>
       <r>   -5.1740    1.0000 </r>
       <r>   -4.7969    1.0000 </r>
       <r>   -4.5994    1.0000 </r>
       <r>   -4.4300    1.0000 </r>
       <r>   -4.4021    1.0000 </r>
       <r>   -4.2576    1.0000 </r>
       <r>   -4.0332    1.0000 </r>
       <r>   -3.5880    1.0000 </r>
       <r>   -3.5554    1.0000 </r>
       <r>   -3.1651    1.0000 </r>
       <r>   -3.0204    1.0000 </r>
       <r>   -2.9687    1.0000 </r>
       <r>   -2.3638    1.0000 </r>
       <r>   -1.6897    0.9854 </r>
       <r>   -1.1594    0.0000 </r>
       <r>   -0.9217    0.0000 </r>
       <r>   -0.4789    0.0000 </r>
       <r>   -0.4044    0.0000 </r>
       <r>   -0.2723    0.0000 </r>
       <r>   -0.0677    0.0000 </r>
       <r>    0.0822    0.0000 </r>
       <r>    0.1733    0.0000 </r>
       <r>    0.5153    0.0000 </r>
       <r>    0.5984    0.0000 </r>
       <r>    0.6708    0.0000 </r>
       <r>    0.9905    0.0000 </r>
       <r>    1.0200    0.0000 </r>
       <r>    1.3569    0.0000 </r>
       <r>    1.4332    0.0000 </r>
       <r>    2.9243    0.0000 </r>
       <r>    2.9725    0.0000 </r>
       <r>    3.0491    0.0000 </r>
       <r>    3.1498    0.0000 </r>
       <r>    3.2060    0.0000 </r>
       <r>    3.5095    0.0000 </r>
      </set>
     </set>
    </set>
   </array>
  </eigenvalues>
  <separator name="orbital magnetization" >
   <v name="MAGDIPOLOUT">      0.00000000      0.00000000      0.00000000</v>
  </separator>
  <dos>
   <i name="efermi">     -1.46882888 </i>
   <total>
    <array>
     <dimension dim="1">gridpoints</dimension>
     <dimension dim="2">spin</dimension>
     <field>energy</field>
     <field>total</field>
     <field>integrated</field>
     <set>
      <set comment="spin 1">
       <r>   -16.4807     0.0000     0.0000 </r>
       <r>   -16.4099     0.0000     0.0000 </r>
       <r>   -16.3391     0.0000     0.0000 </r>
       <r>   -16.2684     0.0000     0.0000 </r>
       <r>   -16.1976     0.0000     0.0000 </r>
       <r>   -16.1269     0.0000     0.0000 </r>
       <r>   -16.0561     0.0000     0.0000 </r>
       <r>   -15.9853     0.0000     0.0000 </r>
       <r>   -15.9146     0.0000     0.0000 </r>
       <r>   -15.8438     0.0000     0.0000 </r>
       <r>   -15.7731     0.0000     0.0000 </r>
       <r>   -15.7023     0.0000     0.0000 </r>
       <r>   -15.6315     0.0000     0.0000 </r>
       <r>   -15.5608     0.0000     0.0000 </r>
       <r>   -15.4900     1.1377     0.0146 </r>
       <r>   -15.4193     2.3871     0.1717 </r>
       <r>   -15.3485     3.1424     0.3673 </r>
       <r>   -15.2777     8.1850     0.7988 </r>
       <r>   -15.2070     0.0000     1.0000 </r>
       <r>   -15.1362     0.0000     1.0000 </r>
       <r>   -15.0655     0.0000     1.0000 </r>
       <r>   -14.9947     0.0000     1.0000 </r>
       <r>   -14.9239     0.0000     1.0000 </r>
       <r>   -14.8532     0.0000     1.0000 </r>
       <r>   -14.7824     0.0000     1.0000 </r>
       <r>   -14.7117     0.0000     1.0000 </r>
       <r>   -14.6409     0.0000     1.0000 </r>
       <r>   -14.5701     0.0000     1.0000 </r>
       <r>   -14.4994     0.0000     1.0000 </r>
       <r>   -14.4286     0.0000     1.0000 </r>
       <r>   -14.3579     0.0000     1.0000 </r>
       <r>   -14.2871     0.0000     1.0000 </r>
       <r>   -14.2163     0.0000     1.0000 </r>
       <r>   -14.1456     0.0000     1.0000 </r>
       <r>   -14.0748     0.0000     1.0000 </r>
       <r>   -14.0041     0.0000     1.0000 </r>
       <r>   -13.9333     1.1026     1.0189 </r>
       <r>   -13.8625     1.7757     1.1521 </r>
       <r>   -13.7918     2.1842     1.2922 </r>
       <r>   -13.7210     3.2259     1.4664 </r>
       <r>   -13.6503     4.7959     1.8376 </r>
       <r>   -13.5795     0.0000     2.0000 </r>
       <r>   -13.5087     3.4297     2.4369 </r>
       <r>   -13.4380     1.1744     2.5998 </r>
       <r>   -13.3672     1.0755     2.6784 </r>
       <r>   -13.2965     1.0035     2.7520 </r>
       <r>   -13.2257     2.4167     2.8747 </r>
       <r>   -13.1549     2.1912     3.0498 </r>
       <r>   -13.0842     2.3627     3.2109 </r>
       <r>   -13.0134     2.6862     3.3885 </r>
       <r>   -12.9427     3.0473     3.5913 </r>
       <r>   -12.8719     8.0225     4.2044 </r>
       <r>   -12.8011     8.7579     4.7605 </r>
       <r>   -12.7304     6.7279     5.4597 </r>
       <r>   -12.6596     4.9093     5.8221 </r>
       <r>   -12.5889     0.0000     6.0000 </r>
       <r>   -12.5181     0.0296     6.0005 </r>
       <r>   -12.4473     0.0907     6.0048 </r>
       <r>   -12.3766     0.1518     6.0133 </r>
       <r>   -12.3058     0.2128     6.0262 </r>
       <r>   -12.2350     0.2739     6.0435 </r>
       <r>   -12.1643     0.3349     6.0650 </r>
       <r>   -12.0935     0.3960     6.0909 </r>
       <r>   -12.0228     0.7796     6.1218 </r>
       <r>   -11.9520     0.9101     6.1816 </r>
       <r>   -11.8812     1.0407     6.2506 </r>
       <r>   -11.8105     1.1712     6.3288 </r>
       <r>   -11.7397     1.3017     6.4163 </r>
       <r>   -11.6690     3.2829     6.5561 </r>
       <r>   -11.5982     3.0298     6.8511 </r>
       <r>   -11.5274     0.0000     7.0000 </r>
       <r>   -11.4567     0.0000     7.0000 </r>
       <r>   -11.3859     0.0000     7.0000 </r>
       <r>   -11.3152     0.0000     7.0000 </r>
       <r>   -11.2444     0.0000     7.0000 </r>
       <r>   -11.1736     0.0000     7.0000 </r>
       <r>   -11.1029     0.0000     7.0000 </r>
[...]
        <r>  0.0014  0.0068  0.0026  0.0039  0.0011  0.0001  0.0017  0.0002  0.0019 </r>
        <r>  0.0000  0.0006  0.0000  0.0016  0.0009  0.0000  0.0000  0.0000  0.0028 </r>
        <r>  0.0013  0.0091  0.0025  0.0016  0.0019  0.0002  0.0017  0.0000  0.0012 </r>
       </set>
       <set comment="band 30">
        <r>  0.0048  0.0006  0.0018  0.0015  0.0731  0.0277  0.0884  0.0145  0.0260 </r>
        <r>  0.0048  0.0006  0.0018  0.0015  0.0731  0.0277  0.0884  0.0145  0.0260 </r>
        <r>  0.0000  0.0102  0.0000  0.0294  0.0000  0.0000  0.0000  0.0000  0.0000 </r>
        <r>  0.0000  0.0102  0.0000  0.0294  0.0000  0.0000  0.0000  0.0000  0.0000 </r>
        <r>  0.0033  0.0003  0.0015  0.0248  0.0008  0.0006  0.0006  0.0003  0.0002 </r>
        <r>  0.0000  0.0012  0.0000  0.0039  0.0005  0.0004  0.0000  0.0013  0.0016 </r>
        <r>  0.0033  0.0169  0.0016  0.0085  0.0000  0.0000  0.0006  0.0009  0.0010 </r>
        <r>  0.0033  0.0003  0.0015  0.0248  0.0008  0.0006  0.0006  0.0003  0.0002 </r>
        <r>  0.0000  0.0012  0.0000  0.0039  0.0005  0.0004  0.0000  0.0013  0.0016 </r>
        <r>  0.0033  0.0169  0.0016  0.0085  0.0000  0.0000  0.0006  0.0009  0.0010 </r>
       </set>
       <set comment="band 31">
        <r>  0.0026  0.0006  0.0008  0.0016  0.0189  0.0023  0.2174  0.0049  0.0256 </r>
        <r>  0.0026  0.0006  0.0008  0.0016  0.0189  0.0023  0.2174  0.0049  0.0256 </r>
        <r>  0.0010  0.0254  0.0021  0.0088  0.0000  0.0000  0.0000  0.0000  0.0000 </r>
        <r>  0.0010  0.0254  0.0021  0.0088  0.0000  0.0000  0.0000  0.0000  0.0000 </r>
        <r>  0.0006  0.0015  0.0008  0.0036  0.0009  0.0010  0.0001  0.0000  0.0001 </r>
        <r>  0.0021  0.0223  0.0007  0.0073  0.0001  0.0004  0.0018  0.0001  0.0000 </r>
        <r>  0.0005  0.0018  0.0008  0.0031  0.0006  0.0003  0.0001  0.0007  0.0005 </r>
        <r>  0.0006  0.0015  0.0008  0.0036  0.0009  0.0010  0.0001  0.0000  0.0001 </r>
        <r>  0.0021  0.0223  0.0007  0.0073  0.0001  0.0004  0.0018  0.0001  0.0000 </r>
        <r>  0.0005  0.0018  0.0008  0.0031  0.0006  0.0003  0.0001  0.0007  0.0005 </r>
       </set>
       <set comment="band 32">
        <r>  0.0000  0.0006  0.0000  0.0002  0.1389  0.0219  0.0241  0.0176  0.2240 </r>
        <r>  0.0000  0.0006  0.0000  0.0002  0.1389  0.0219  0.0241  0.0176  0.2240 </r>
        <r>  0.0000  0.0001  0.0000  0.0004  0.0000  0.0000  0.0000  0.0000  0.0000 </r>
        <r>  0.0000  0.0001  0.0000  0.0004  0.0000  0.0000  0.0000  0.0000  0.0000 </r>
        <r>  0.0001  0.0029  0.0006  0.0003  0.0008  0.0002  0.0002  0.0000  0.0001 </r>
        <r>  0.0000  0.0005  0.0000  0.0015  0.0002  0.0002  0.0000  0.0005  0.0006 </r>
        <r>  0.0001  0.0017  0.0006  0.0015  0.0002  0.0001  0.0002  0.0001  0.0007 </r>
        <r>  0.0001  0.0029  0.0006  0.0003  0.0008  0.0002  0.0002  0.0000  0.0001 </r>
        <r>  0.0000  0.0005  0.0000  0.0015  0.0002  0.0002  0.0000  0.0005  0.0006 </r>
        <r>  0.0001  0.0017  0.0006  0.0015  0.0002  0.0001  0.0002  0.0001  0.0007 </r>
       </set>
       <set comment="band 33">
        <r>  0.0011  0.0002  0.0004  0.0002  0.0588  0.0093  0.0006  0.0167  0.1013 </r>
        <r>  0.0011  0.0002  0.0004  0.0002  0.0588  0.0093  0.0006  0.0167  0.1013 </r>
        <r>  0.0052  0.0050  0.0463  0.0017  0.0000  0.0000  0.0000  0.0000  0.0000 </r>
        <r>  0.0052  0.0050  0.0463  0.0017  0.0000  0.0000  0.0000  0.0000  0.0000 </r>
        <r>  0.0019  0.0007  0.0003  0.0031  0.0002  0.0003  0.0001  0.0039  0.0000 </r>
        <r>  0.0094  0.0088  0.0020  0.0030  0.0001  0.0004  0.0001  0.0001  0.0000 </r>
        <r>  0.0019  0.0016  0.0003  0.0021  0.0001  0.0022  0.0001  0.0020  0.0001 </r>
        <r>  0.0019  0.0007  0.0003  0.0031  0.0002  0.0003  0.0001  0.0039  0.0000 </r>
        <r>  0.0094  0.0088  0.0020  0.0030  0.0001  0.0004  0.0001  0.0001  0.0000 </r>
        <r>  0.0019  0.0016  0.0003  0.0021  0.0001  0.0022  0.0001  0.0020  0.0001 </r>
       </set>
       <set comment="band 34">
        <r>  0.0002  0.0001  0.0009  0.0000  0.0370  0.0692  0.1763  0.0247  0.0155 </r>
        <r>  0.0002  0.0001  0.0009  0.0000  0.0370  0.0692  0.1763  0.0247  0.0155 </r>
        <r>  0.0000  0.0015  0.0000  0.0046  0.0000  0.0000  0.0000  0.0000  0.0000 </r>
        <r>  0.0000  0.0015  0.0000  0.0046  0.0000  0.0000  0.0000  0.0000  0.0000 </r>
        <r>  0.0021  0.0001  0.0049  0.0134  0.0010  0.0001  0.0004  0.0004  0.0004 </r>
        <r>  0.0000  0.0007  0.0000  0.0019  0.0004  0.0000  0.0000  0.0001  0.0011 </r>
        <r>  0.0020  0.0103  0.0049  0.0031  0.0003  0.0002  0.0004  0.0003  0.0011 </r>
        <r>  0.0021  0.0001  0.0049  0.0134  0.0010  0.0001  0.0004  0.0004  0.0004 </r>
        <r>  0.0000  0.0007  0.0000  0.0019  0.0004  0.0000  0.0000  0.0001  0.0011 </r>
        <r>  0.0020  0.0103  0.0049  0.0031  0.0003  0.0002  0.0004  0.0003  0.0011 </r>
       </set>
       <set comment="band 35">
        <r>  0.0004  0.0002  0.0006  0.0002  0.0513  0.0170  0.0612  0.0480  0.0347 </r>
        <r>  0.0004  0.0002  0.0006  0.0002  0.0513  0.0170  0.0612  0.0480  0.0347 </r>
        <r>  0.0006  0.0136  0.0070  0.0045  0.0000  0.0000  0.0000  0.0000  0.0000 </r>
        <r>  0.0006  0.0136  0.0070  0.0045  0.0000  0.0000  0.0000  0.0000  0.0000 </r>
        <r>  0.0021  0.0002  0.0035  0.0096  0.0016  0.0002  0.0000  0.0001  0.0006 </r>
        <r>  0.0020  0.0265  0.0032  0.0089  0.0008  0.0027  0.0001  0.0009  0.0003 </r>
        <r>  0.0021  0.0063  0.0035  0.0036  0.0008  0.0000  0.0000  0.0003  0.0014 </r>
        <r>  0.0021  0.0002  0.0035  0.0096  0.0016  0.0002  0.0000  0.0001  0.0006 </r>
        <r>  0.0020  0.0265  0.0032  0.0089  0.0008  0.0027  0.0001  0.0009  0.0003 </r>
        <r>  0.0021  0.0063  0.0035  0.0036  0.0008  0.0000  0.0000  0.0003  0.0014 </r>
       </set>
       <set comment="band 36">
        <r>  0.0004  0.0002  0.0000  0.0006  0.0917  0.0765  0.0003  0.0916  0.0305 </r>
        <r>  0.0004  0.0002  0.0000  0.0006  0.0917  0.0765  0.0003  0.0916  0.0305 </r>
        <r>  0.0096  0.0016  0.0156  0.0006  0.0000  0.0000  0.0000  0.0000  0.0000 </r>
        <r>  0.0096  0.0016  0.0156  0.0006  0.0000  0.0000  0.0000  0.0000  0.0000 </r>
        <r>  0.0003  0.0013  0.0003  0.0181  0.0000  0.0004  0.0000  0.0007  0.0003 </r>
        <r>  0.0028  0.0149  0.0043  0.0048  0.0002  0.0005  0.0001  0.0002  0.0000 </r>
        <r>  0.0002  0.0109  0.0004  0.0087  0.0004  0.0008  0.0000  0.0003  0.0000 </r>
        <r>  0.0003  0.0013  0.0003  0.0181  0.0000  0.0004  0.0000  0.0007  0.0003 </r>
        <r>  0.0028  0.0149  0.0043  0.0048  0.0002  0.0005  0.0001  0.0002  0.0000 </r>
        <r>  0.0002  0.0109  0.0004  0.0087  0.0004  0.0008  0.0000  0.0003  0.0000 </r>
       </set>
       <set comment="band 37">
        <r>  0.0021  0.0015  0.0000  0.0007  0.0358  0.0433  0.0217  0.1168  0.0500 </r>
        <r>  0.0021  0.0015  0.0000  0.0007  0.0358  0.0433  0.0217  0.1168  0.0500 </r>
        <r>  0.0000  0.0039  0.0000  0.0117  0.0000  0.0000  0.0000  0.0000  0.0000 </r>
        <r>  0.0000  0.0039  0.0000  0.0117  0.0000  0.0000  0.0000  0.0000  0.0000 </r>
        <r>  0.0080  0.0152  0.0039  0.0064  0.0000  0.0004  0.0002  0.0004  0.0002 </r>
        <r>  0.0000  0.0027  0.0000  0.0083  0.0001  0.0011  0.0000  0.0034  0.0004 </r>
        <r>  0.0079  0.0119  0.0038  0.0097  0.0001  0.0007  0.0002  0.0001  0.0001 </r>
        <r>  0.0080  0.0152  0.0039  0.0064  0.0000  0.0004  0.0002  0.0004  0.0002 </r>
        <r>  0.0000  0.0027  0.0000  0.0083  0.0001  0.0011  0.0000  0.0034  0.0004 </r>
        <r>  0.0079  0.0119  0.0038  0.0097  0.0001  0.0007  0.0002  0.0001  0.0001 </r>
       </set>
       <set comment="band 38">
        <r>  0.0004  0.0001  0.0000  0.0001  0.0185  0.1645  0.0186  0.1025  0.0120 </r>
        <r>  0.0004  0.0001  0.0000  0.0001  0.0185  0.1645  0.0186  0.1025  0.0120 </r>
        <r>  0.0004  0.0008  0.0018  0.0003  0.0000  0.0000  0.0000  0.0000  0.0000 </r>
        <r>  0.0004  0.0008  0.0018  0.0003  0.0000  0.0000  0.0000  0.0000  0.0000 </r>
        <r>  0.0022  0.0076  0.0072  0.0053  0.0001  0.0019  0.0001  0.0006  0.0009 </r>
        <r>  0.0038  0.0108  0.0061  0.0037  0.0006  0.0001  0.0002  0.0000  0.0002 </r>
        <r>  0.0022  0.0061  0.0073  0.0069  0.0010  0.0014  0.0001  0.0010  0.0000 </r>
        <r>  0.0022  0.0076  0.0072  0.0053  0.0001  0.0019  0.0001  0.0006  0.0009 </r>
        <r>  0.0038  0.0108  0.0061  0.0037  0.0006  0.0001  0.0002  0.0000  0.0002 </r>
        <r>  0.0022  0.0061  0.0073  0.0069  0.0010  0.0014  0.0001  0.0010  0.0000 </r>
       </set>
       <set comment="band 39">
        <r>  0.0060  0.0005  0.0027  0.0002  0.0146  0.0041  0.0614  0.0093  0.0322 </r>
        <r>  0.0060  0.0005  0.0027  0.0002  0.0146  0.0041  0.0614  0.0093  0.0322 </r>
        <r>  0.0019  0.0515  0.0112  0.0173  0.0000  0.0000  0.0000  0.0000  0.0000 </r>
        <r>  0.0019  0.0515  0.0112  0.0173  0.0000  0.0000  0.0000  0.0000  0.0000 </r>
        <r>  0.0007  0.0053  0.0009  0.0025  0.0019  0.0001  0.0001  0.0000  0.0009 </r>
        <r>  0.0120  0.0289  0.0047  0.0091  0.0017  0.0013  0.0001  0.0004  0.0005 </r>
        <r>  0.0008  0.0010  0.0009  0.0057  0.0021  0.0001  0.0001  0.0001  0.0009 </r>
        <r>  0.0007  0.0053  0.0009  0.0025  0.0019  0.0001  0.0001  0.0000  0.0009 </r>
        <r>  0.0120  0.0289  0.0047  0.0091  0.0017  0.0013  0.0001  0.0004  0.0005 </r>
        <r>  0.0008  0.0010  0.0009  0.0057  0.0021  0.0001  0.0001  0.0001  0.0009 </r>
       </set>
       <set comment="band 40">
        <r>  0.0016  0.0004  0.0000  0.0002  0.0316  0.1038  0.0007  0.0879  0.0098 </r>
        <r>  0.0016  0.0004  0.0000  0.0002  0.0316  0.1038  0.0007  0.0879  0.0098 </r>
        <r>  0.0000  0.0029  0.0000  0.0080  0.0000  0.0000  0.0000  0.0000  0.0000 </r>
        <r>  0.0000  0.0029  0.0000  0.0080  0.0000  0.0000  0.0000  0.0000  0.0000 </r>
        <r>  0.0007  0.0295  0.0004  0.0128  0.0011  0.0024  0.0000  0.0008  0.0001 </r>
        <r>  0.0000  0.0063  0.0000  0.0212  0.0001  0.0001  0.0000  0.0004  0.0004 </r>
        <r>  0.0008  0.0297  0.0003  0.0136  0.0005  0.0018  0.0000  0.0014  0.0007 </r>
        <r>  0.0007  0.0295  0.0004  0.0128  0.0011  0.0024  0.0000  0.0008  0.0001 </r>
        <r>  0.0000  0.0063  0.0000  0.0212  0.0001  0.0001  0.0000  0.0004  0.0004 </r>
        <r>  0.0008  0.0297  0.0003  0.0136  0.0005  0.0018  0.0000  0.0014  0.0007 </r>
       </set>
       <set comment="band 41">
        <r>  0.0030  0.0006  0.0012  0.0002  0.0073  0.0412  0.0100  0.0462  0.0166 </r>
        <r>  0.0030  0.0006  0.0012  0.0002  0.0073  0.0412  0.0100  0.0462  0.0166 </r>
        <r>  0.0000  0.0137  0.0000  0.0414  0.0000  0.0000  0.0000  0.0000  0.0000 </r>
        <r>  0.0000  0.0137  0.0000  0.0414  0.0000  0.0000  0.0000  0.0000  0.0000 </r>
        <r>  0.0022  0.0092  0.0007  0.0348  0.0007  0.0002  0.0006  0.0002  0.0021 </r>
        <r>  0.0000  0.0056  0.0000  0.0168  0.0009  0.0001  0.0000  0.0004  0.0027 </r>
        <r>  0.0021  0.0413  0.0007  0.0028  0.0007  0.0001  0.0006  0.0003  0.0021 </r>
        <r>  0.0022  0.0092  0.0007  0.0348  0.0007  0.0002  0.0006  0.0002  0.0021 </r>
        <r>  0.0000  0.0056  0.0000  0.0168  0.0009  0.0001  0.0000  0.0004  0.0027 </r>
        <r>  0.0021  0.0413  0.0007  0.0028  0.0007  0.0001  0.0006  0.0003  0.0021 </r>
       </set>
       <set comment="band 42">
        <r>  0.0002  0.0029  0.0000  0.0015  0.0543  0.0201  0.0047  0.0309  0.0433 </r>
        <r>  0.0002  0.0029  0.0000  0.0015  0.0543  0.0201  0.0047  0.0309  0.0433 </r>
        <r>  0.0114  0.0022  0.0589  0.0007  0.0000  0.0000  0.0000  0.0000  0.0000 </r>
        <r>  0.0114  0.0022  0.0589  0.0007  0.0000  0.0000  0.0000  0.0000  0.0000 </r>
        <r>  0.0017  0.0012  0.0140  0.0004  0.0003  0.0006  0.0001  0.0016  0.0005 </r>
        <r>  0.0026  0.0019  0.0232  0.0006  0.0016  0.0006  0.0006  0.0002  0.0005 </r>
        <r>  0.0017  0.0002  0.0139  0.0013  0.0004  0.0021  0.0001  0.0000  0.0003 </r>
        <r>  0.0017  0.0012  0.0140  0.0004  0.0003  0.0006  0.0001  0.0016  0.0005 </r>
        <r>  0.0026  0.0019  0.0232  0.0006  0.0016  0.0006  0.0006  0.0002  0.0005 </r>
        <r>  0.0017  0.0002  0.0139  0.0013  0.0004  0.0021  0.0001  0.0000  0.0003 </r>
       </set>
       <set comment="band 43">
        <r>  0.0472  0.0033  0.0004  0.0016  0.0020  0.0056  0.0021  0.0026  0.0007 </r>
        <r>  0.0472  0.0033  0.0004  0.0016  0.0020  0.0056  0.0021  0.0026  0.0007 </r>
        <r>  0.0007  0.0054  0.0038  0.0018  0.0000  0.0000  0.0000  0.0000  0.0000 </r>
        <r>  0.0007  0.0054  0.0038  0.0018  0.0000  0.0000  0.0000  0.0000  0.0000 </r>
        <r>  0.0004  0.0043  0.0018  0.0035  0.0018  0.0095  0.0002  0.0011  0.0001 </r>
        <r>  0.0027  0.0031  0.0066  0.0010  0.0015  0.0042  0.0016  0.0014  0.0005 </r>
        <r>  0.0004  0.0005  0.0018  0.0074  0.0003  0.0060  0.0002  0.0047  0.0016 </r>
        <r>  0.0004  0.0043  0.0018  0.0035  0.0018  0.0095  0.0002  0.0011  0.0001 </r>
        <r>  0.0027  0.0031  0.0066  0.0010  0.0015  0.0042  0.0016  0.0014  0.0005 </r>
        <r>  0.0004  0.0005  0.0018  0.0074  0.0003  0.0060  0.0002  0.0047  0.0016 </r>
       </set>
       <set comment="band 44">
        <r>  0.0092  0.0022  0.0025  0.0061  0.0014  0.0007  0.0005  0.0011  0.0038 </r>
        <r>  0.0092  0.0022  0.0025  0.0061  0.0014  0.0007  0.0005  0.0011  0.0038 </r>
        <r>  0.0004  0.0026  0.0017  0.0009  0.0000  0.0000  0.0000  0.0000  0.0000 </r>
        <r>  0.0004  0.0026  0.0017  0.0009  0.0000  0.0000  0.0000  0.0000  0.0000 </r>
        <r>  0.0009  0.0005  0.0017  0.0016  0.0009  0.0051  0.0007  0.0002  0.0000 </r>
        <r>  0.0011  0.0049  0.0080  0.0016  0.0000  0.0010  0.0040  0.0003  0.0000 </r>
        <r>  0.0009  0.0020  0.0017  0.0001  0.0004  0.0010  0.0007  0.0044  0.0005 </r>
        <r>  0.0009  0.0005  0.0017  0.0016  0.0009  0.0051  0.0007  0.0002  0.0000 </r>
        <r>  0.0011  0.0049  0.0080  0.0016  0.0000  0.0010  0.0040  0.0003  0.0000 </r>
        <r>  0.0009  0.0020  0.0017  0.0001  0.0004  0.0010  0.0007  0.0044  0.0005 </r>
       </set>
       <set comment="band 45">
        <r>  0.0020  0.0045  0.0026  0.0029  0.0052  0.0005  0.0003  0.0003  0.0064 </r>
        <r>  0.0020  0.0045  0.0026  0.0029  0.0052  0.0005  0.0003  0.0003  0.0064 </r>
        <r>  0.0000  0.0014  0.0000  0.0040  0.0000  0.0000  0.0000  0.0000  0.0000 </r>
        <r>  0.0000  0.0014  0.0000  0.0040  0.0000  0.0000  0.0000  0.0000  0.0000 </r>
        <r>  0.0009  0.0008  0.0080  0.0041  0.0002  0.0018  0.0029  0.0019  0.0006 </r>
        <r>  0.0000  0.0003  0.0000  0.0009  0.0002  0.0015  0.0000  0.0046  0.0005 </r>
        <r>  0.0009  0.0043  0.0079  0.0005  0.0003  0.0005  0.0030  0.0030  0.0005 </r>
        <r>  0.0009  0.0008  0.0080  0.0041  0.0002  0.0018  0.0029  0.0019  0.0006 </r>
        <r>  0.0000  0.0003  0.0000  0.0009  0.0002  0.0015  0.0000  0.0046  0.0005 </r>
        <r>  0.0009  0.0043  0.0079  0.0005  0.0003  0.0005  0.0030  0.0030  0.0005 </r>
       </set>
       <set comment="band 46">
        <r>  0.0083  0.0009  0.0092  0.0013  0.0056  0.0015  0.0091  0.0008  0.0147 </r>
        <r>  0.0083  0.0009  0.0092  0.0013  0.0056  0.0015  0.0091  0.0008  0.0147 </r>
        <r>  0.0004  0.0012  0.0005  0.0004  0.0000  0.0000  0.0000  0.0000  0.0000 </r>
        <r>  0.0004  0.0012  0.0005  0.0004  0.0000  0.0000  0.0000  0.0000  0.0000 </r>
        <r>  0.0005  0.0003  0.0042  0.0001  0.0050  0.0019  0.0002  0.0007  0.0008 </r>
        <r>  0.0010  0.0008  0.0076  0.0003  0.0041  0.0036  0.0040  0.0012  0.0014 </r>
        <r>  0.0005  0.0003  0.0043  0.0001  0.0013  0.0001  0.0001  0.0025  0.0045 </r>
        <r>  0.0005  0.0003  0.0042  0.0001  0.0050  0.0019  0.0002  0.0007  0.0008 </r>
        <r>  0.0010  0.0008  0.0076  0.0003  0.0041  0.0036  0.0040  0.0012  0.0014 </r>
        <r>  0.0005  0.0003  0.0043  0.0001  0.0013  0.0001  0.0001  0.0025  0.0045 </r>
       </set>
       <set comment="band 47">
        <r>  0.0048  0.0002  0.0001  0.0005  0.0011  0.0010  0.0113  0.0007  0.0020 </r>
        <r>  0.0048  0.0002  0.0001  0.0005  0.0011  0.0010  0.0113  0.0007  0.0020 </r>
        <r>  0.0000  0.0001  0.0000  0.0004  0.0000  0.0000  0.0000  0.0000  0.0000 </r>
        <r>  0.0000  0.0001  0.0000  0.0004  0.0000  0.0000  0.0000  0.0000  0.0000 </r>
        <r>  0.0031  0.0010  0.0044  0.0008  0.0000  0.0002  0.0026  0.0003  0.0003 </r>
        <r>  0.0000  0.0008  0.0000  0.0026  0.0001  0.0001  0.0000  0.0004  0.0003 </r>
        <r>  0.0030  0.0009  0.0043  0.0009  0.0002  0.0001  0.0025  0.0004  0.0001 </r>
        <r>  0.0031  0.0010  0.0044  0.0008  0.0000  0.0002  0.0026  0.0003  0.0003 </r>
        <r>  0.0000  0.0008  0.0000  0.0026  0.0001  0.0001  0.0000  0.0004  0.0003 </r>
        <r>  0.0030  0.0009  0.0043  0.0009  0.0002  0.0001  0.0025  0.0004  0.0001 </r>
       </set>
       <set comment="band 48">
        <r>  0.0054  0.0003  0.0057  0.0002  0.0028  0.0010  0.0003  0.0006  0.0010 </r>
        <r>  0.0054  0.0003  0.0057  0.0002  0.0028  0.0010  0.0003  0.0006  0.0010 </r>
        <r>  0.0015  0.0027  0.0163  0.0009  0.0000  0.0000  0.0000  0.0000  0.0000 </r>
        <r>  0.0015  0.0027  0.0163  0.0009  0.0000  0.0000  0.0000  0.0000  0.0000 </r>
        <r>  0.0006  0.0005  0.0003  0.0006  0.0026  0.0017  0.0022  0.0006  0.0010 </r>
        <r>  0.0003  0.0003  0.0065  0.0001  0.0024  0.0015  0.0010  0.0005  0.0008 </r>
        <r>  0.0006  0.0003  0.0003  0.0008  0.0008  0.0010  0.0022  0.0014  0.0028 </r>
        <r>  0.0006  0.0005  0.0003  0.0006  0.0026  0.0017  0.0022  0.0006  0.0010 </r>
        <r>  0.0003  0.0003  0.0065  0.0001  0.0024  0.0015  0.0010  0.0005  0.0008 </r>
        <r>  0.0006  0.0003  0.0003  0.0008  0.0008  0.0010  0.0022  0.0014  0.0028 </r>
       </set>
      </set>
     </set>
    </set>
   </array>
  </projected>
 </calculation>
 <structure name="finalpos" >
  <crystal>
   <varray name="basis" >
    <v>       6.85565378       0.00000001      -0.00000000 </v>
    <v>       3.42782639       5.93716998       0.00000000 </v>
    <v>      -0.00000000       0.00000000      22.81641902 </v>
   </varray>
   <i name="volume">    928.70085012 </i>
   <varray name="rec_basis" >
    <v>       0.14586501      -0.08421520       0.00000000 </v>
    <v>      -0.00000000       0.16843041      -0.00000000 </v>
    <v>       0.00000000      -0.00000000       0.04382809 </v>
   </varray>
  </crystal>
  <varray name="positions" >
   <v>       0.33333300       0.33333300       0.49992500 </v>
   <v>       0.66666700       0.66666700       0.50007500 </v>
   <v>       0.00000000       0.00000000       0.45076147 </v>
   <v>       0.00000000      -0.00000000       0.54923853 </v>
   <v>       0.62635700       0.00042000       0.57375200 </v>
   <v>       0.00042000       0.37322400       0.57375200 </v>
   <v>       0.37322400       0.62635700       0.57375200 </v>
   <v>       0.37364300       0.99958000       0.42624800 </v>
   <v>       0.99958000       0.62677600       0.42624800 </v>
   <v>       0.62677600       0.37364300       0.42624800 </v>
  </varray>
  <varray name="selective"  type="logical" >
   <v type="logical" >  F  F  F </v>
   <v type="logical" >  F  F  F </v>
   <v type="logical" >  T  T  T </v>
   <v type="logical" >  T  T  T </v>
   <v type="logical" >  F  F  F </v>
   <v type="logical" >  F  F  F </v>
   <v type="logical" >  F  F  F </v>
   <v type="logical" >  F  F  F </v>
   <v type="logical" >  F  F  F </v>
   <v type="logical" >  F  F  F </v>
  </varray>
  <nose>
   <v>      -3.00000000       0.00000000       0.00010000       0.00010000 </v>
  </nose>
 </structure>
</modeling>
