       N       E                     dE             d eps       ncg     rms          rms(c)
DAV:   1     0.353162354936E+03    0.35316E+03   -0.16471E+04   960   0.816E+02
DAV:   2    -0.909671885456E+01   -0.36226E+03   -0.34469E+03  1416   0.153E+02
DAV:   3    -0.434006162856E+02   -0.34304E+02   -0.33933E+02  1392   0.571E+01
DAV:   4    -0.445236841732E+02   -0.11231E+01   -0.11216E+01  1248   0.130E+01
DAV:   5    -0.445702655678E+02   -0.46581E-01   -0.46579E-01  1656   0.259E+00    0.147E+01
DAV:   6    -0.473910437596E+02   -0.28208E+01   -0.41572E+01  1488   0.455E+01    0.229E+01
DAV:   7    -0.428058337044E+02    0.45852E+01   -0.37088E+01  1392   0.696E+01    0.905E+00
DAV:   8    -0.424464057983E+02    0.35943E+00   -0.27615E+00  1296   0.917E+00    0.552E+00
DAV:   9    -0.428760532911E+02   -0.42965E+00   -0.17607E+00  1512   0.872E+00    0.309E+00
DAV:  10    -0.432842349490E+02   -0.40818E+00   -0.29632E-01  1248   0.329E+00    0.290E+00
DAV:  11    -0.434517052447E+02   -0.16747E+00   -0.11866E-01  1200   0.299E+00    0.187E+00
DAV:  12    -0.437153006922E+02   -0.26360E+00   -0.16605E-01  1104   0.258E+00    0.839E-01
DAV:  13    -0.438166951213E+02   -0.10139E+00   -0.40067E-02  1080   0.111E+00    0.435E-01
DAV:  14    -0.438338724234E+02   -0.17177E-01   -0.67562E-03  1032   0.412E-01    0.153E-01
DAV:  15    -0.438340763286E+02   -0.20391E-03   -0.10873E-03  1032   0.147E-01    0.595E-02
DAV:  16    -0.438341815874E+02   -0.10526E-03   -0.45697E-04   960   0.117E-01    0.264E-02
DAV:  17    -0.438341666238E+02    0.14964E-04   -0.22642E-04  1032   0.537E-02
   1 F= -.43834167E+02 E0= -.43834167E+02  d E =-.438342E+02  mag=     6.0054
       N       E                     dE             d eps       ncg     rms          rms(c)
DAV:   1    -0.443740691905E+02   -0.53989E+00   -0.12201E+01  1200   0.208E+01    0.413E+00
DAV:   2    -0.442508068987E+02    0.12326E+00   -0.20254E+00  1344   0.141E+01    0.403E+00
DAV:   3    -0.440160308148E+02    0.23478E+00   -0.11692E+00  1272   0.127E+01    0.179E+00
DAV:   4    -0.439297840201E+02    0.86247E-01   -0.32379E-01  1416   0.424E+00    0.350E-01
DAV:   5    -0.439264389177E+02    0.33451E-02   -0.17261E-02  1368   0.767E-01    0.139E-01
DAV:   6    -0.439265800080E+02   -0.14109E-03   -0.16101E-03  1176   0.183E-01    0.834E-02
DAV:   7    -0.439278328218E+02   -0.12528E-02   -0.59800E-04  1032   0.133E-01    0.333E-02
DAV:   8    -0.439290050326E+02   -0.11722E-02   -0.41442E-04  1008   0.897E-02    0.180E-02
DAV:   9    -0.439300732570E+02   -0.10682E-02   -0.30334E-04  1032   0.615E-02    0.123E-02
DAV:  10    -0.439314623122E+02   -0.13891E-02   -0.60465E-04  1056   0.644E-02    0.882E-03
DAV:  11    -0.439321810632E+02   -0.71875E-03   -0.28656E-04  1056   0.416E-02    0.757E-03
DAV:  12    -0.439325990726E+02   -0.41801E-03   -0.19140E-04  1032   0.323E-02    0.441E-03
DAV:  13    -0.439327437670E+02   -0.14469E-03   -0.71480E-05   984   0.216E-02    0.292E-03
DAV:  14    -0.439327804976E+02   -0.36731E-04   -0.40830E-05  1056   0.172E-02
   2 F= -.43932780E+02 E0= -.43932780E+02  d E =-.986139E-01  mag=     5.9999
       N       E                     dE             d eps       ncg     rms          rms(c)
DAV:   1    -0.439666615683E+02   -0.33918E-01   -0.63353E-01  1392   0.476E+00    0.950E-01
DAV:   2    -0.439622961704E+02    0.43654E-02   -0.11098E-01  1272   0.368E+00    0.960E-01
DAV:   3    -0.439475025344E+02    0.14794E-01   -0.52789E-02  1272   0.261E+00    0.361E-01
DAV:   4    -0.439434099437E+02    0.40926E-02   -0.14686E-02  1272   0.838E-01    0.702E-02
DAV:   5    -0.439432393738E+02    0.17057E-03   -0.54128E-04  1296   0.161E-01    0.294E-02
DAV:   6    -0.439432148060E+02    0.24568E-04   -0.65692E-05   936   0.383E-02
   3 F= -.43943215E+02 E0= -.43943215E+02  d E =-.109048E+00  mag=     6.0000
       N       E                     dE             d eps       ncg     rms          rms(c)
DAV:   1    -0.439750066913E+02   -0.31767E-01   -0.10047E+00  1080   0.296E+00    0.307E-01
DAV:   2    -0.439804852510E+02   -0.54786E-02   -0.67958E-02  1032   0.207E+00    0.475E-01
DAV:   3    -0.439770848416E+02    0.34004E-02   -0.89862E-03  1224   0.107E+00    0.118E-01
DAV:   4    -0.439766712550E+02    0.41359E-03   -0.17132E-03  1176   0.166E-01    0.534E-02
DAV:   5    -0.439763715905E+02    0.29966E-03   -0.69190E-04  1176   0.804E-02    0.188E-02
DAV:   6    -0.439763219629E+02    0.49628E-04   -0.59446E-05   984   0.398E-02
   4 F= -.43976322E+02 E0= -.43976322E+02  d E =-.331072E-01  mag=     6.0000
       N       E                     dE             d eps       ncg     rms          rms(c)
DAV:   1    -0.440020125253E+02   -0.25641E-01   -0.21405E+00   984   0.432E+00    0.445E-01
DAV:   2    -0.440118679200E+02   -0.98554E-02   -0.14338E-01  1080   0.297E+00    0.693E-01
DAV:   3    -0.440043752888E+02    0.74926E-02   -0.19251E-02  1008   0.155E+00    0.171E-01
DAV:   4    -0.440026295895E+02    0.17457E-02   -0.38186E-03  1224   0.252E-01    0.781E-02
DAV:   5    -0.440020226808E+02    0.60691E-03   -0.11523E-03  1032   0.117E-01    0.298E-02
DAV:   6    -0.440021446448E+02   -0.12196E-03   -0.17475E-04   888   0.697E-02    0.196E-02
DAV:   7    -0.440023801152E+02   -0.23547E-03   -0.11131E-04   864   0.522E-02    0.120E-02
DAV:   8    -0.440026606175E+02   -0.28050E-03   -0.11916E-04   912   0.374E-02    0.934E-03
DAV:   9    -0.440030802340E+02   -0.41962E-03   -0.19356E-04  1080   0.352E-02    0.736E-03
DAV:  10    -0.440034524837E+02   -0.37225E-03   -0.27397E-04  1152   0.377E-02    0.684E-03
DAV:  11    -0.440035765434E+02   -0.12406E-03   -0.18782E-04  1128   0.266E-02    0.497E-03
DAV:  12    -0.440035214130E+02    0.55130E-04   -0.14417E-04  1056   0.204E-02
   5 F= -.44003521E+02 E0= -.44003521E+02  d E =-.603066E-01  mag=     6.0000
       N       E                     dE             d eps       ncg     rms          rms(c)
DAV:   1    -0.439741277523E+02    0.29449E-01   -0.86189E+00  1008   0.864E+00    0.894E-01
DAV:   2    -0.440182644171E+02   -0.44137E-01   -0.57378E-01  1032   0.586E+00    0.141E+00
DAV:   3    -0.439885905869E+02    0.29674E-01   -0.77862E-02  1344   0.313E+00    0.343E-01
DAV:   4    -0.439817578008E+02    0.68328E-02   -0.15394E-02  1200   0.478E-01    0.152E-01
DAV:   5    -0.439793629808E+02    0.23948E-02   -0.46191E-03  1272   0.209E-01    0.575E-02
DAV:   6    -0.439797613361E+02   -0.39836E-03   -0.63215E-04  1008   0.124E-01    0.364E-02
DAV:   7    -0.439798892516E+02   -0.12792E-03   -0.24314E-04   960   0.787E-02    0.217E-02
DAV:   8    -0.439805495947E+02   -0.66034E-03   -0.28761E-04  1056   0.624E-02    0.162E-02
DAV:   9    -0.439811181932E+02   -0.56860E-03   -0.29674E-04  1104   0.537E-02    0.123E-02
DAV:  10    -0.439817384051E+02   -0.62021E-03   -0.68032E-04  1032   0.637E-02    0.123E-02
DAV:  11    -0.439818540048E+02   -0.11560E-03   -0.38140E-04  1176   0.414E-02    0.950E-03
DAV:  12    -0.439816744167E+02    0.17959E-03   -0.23422E-04  1056   0.298E-02    0.763E-03
DAV:  13    -0.439813779434E+02    0.29647E-03   -0.11015E-04  1008   0.211E-02    0.730E-03
DAV:  14    -0.439813085649E+02    0.69378E-04   -0.26811E-05  1008   0.172E-02
   6 F= -.43981309E+02 E0= -.43981309E+02  d E =-.380938E-01  mag=     6.0000
       N       E                     dE             d eps       ncg     rms          rms(c)
DAV:   1    -0.440034212566E+02   -0.22043E-01   -0.42783E+00   960   0.610E+00    0.633E-01
DAV:   2    -0.440262898024E+02   -0.22869E-01   -0.29655E-01  1152   0.429E+00    0.992E-01
DAV:   3    -0.440110106968E+02    0.15279E-01   -0.38866E-02  1176   0.211E+00    0.249E-01
DAV:   4    -0.440087102779E+02    0.23004E-02   -0.72561E-03  1272   0.383E-01    0.116E-01
DAV:   5    -0.440077417828E+02    0.96850E-03   -0.23443E-03  1200   0.174E-01    0.419E-02
DAV:   6    -0.440076341351E+02    0.10765E-03   -0.28942E-04  1032   0.765E-02    0.263E-02
DAV:   7    -0.440075124865E+02    0.12165E-03   -0.71348E-05   864   0.343E-02    0.164E-02
DAV:   8    -0.440074559621E+02    0.56524E-04   -0.55291E-05   912   0.289E-02
   7 F= -.44007456E+02 E0= -.44007456E+02  d E =-.642412E-01  mag=     6.0000
       N       E                     dE             d eps       ncg     rms          rms(c)
DAV:   1    -0.440402648414E+02   -0.32752E-01   -0.19363E+00  1320   0.421E+00    0.614E-01
DAV:   2    -0.440325825877E+02    0.76823E-02   -0.75295E-02  1032   0.143E+00    0.434E-01
DAV:   3    -0.440280921819E+02    0.44904E-02   -0.18509E-02  1248   0.141E+00    0.396E-01
DAV:   4    -0.440215108860E+02    0.65813E-02   -0.10115E-02  1248   0.841E-01    0.104E-01
DAV:   5    -0.440204708630E+02    0.10400E-02   -0.21417E-03  1200   0.172E-01    0.427E-02
DAV:   6    -0.440208690579E+02   -0.39819E-03   -0.24066E-04  1032   0.689E-02    0.263E-02
DAV:   7    -0.440211967296E+02   -0.32767E-03   -0.18485E-04   960   0.553E-02    0.146E-02
DAV:   8    -0.440217737934E+02   -0.57706E-03   -0.17592E-04   984   0.458E-02    0.110E-02
DAV:   9    -0.440224389655E+02   -0.66517E-03   -0.27937E-04  1104   0.455E-02    0.799E-03
DAV:  10    -0.440229596459E+02   -0.52068E-03   -0.26993E-04  1320   0.434E-02    0.703E-03
DAV:  11    -0.440232866793E+02   -0.32703E-03   -0.23342E-04  1080   0.330E-02    0.459E-03
DAV:  12    -0.440233842014E+02   -0.97522E-04   -0.13624E-04  1128   0.233E-02
   8 F= -.44023384E+02 E0= -.44023384E+02  d E =-.159282E-01  mag=     6.0000
       N       E                     dE             d eps       ncg     rms          rms(c)
DAV:   1    -0.440246765906E+02   -0.13899E-02   -0.77458E-02  1128   0.848E-01    0.123E-01
DAV:   2    -0.440244421477E+02    0.23444E-03   -0.30056E-03   984   0.283E-01    0.860E-02
DAV:   3    -0.440242991542E+02    0.14299E-03   -0.72654E-04  1104   0.282E-01    0.804E-02
DAV:   4    -0.440240087770E+02    0.29038E-03   -0.42281E-04  1104   0.172E-01    0.212E-02
DAV:   5    -0.440238927886E+02    0.11599E-03   -0.10090E-04   984   0.378E-02    0.935E-03
DAV:   6    -0.440238374869E+02    0.55302E-04   -0.25067E-05   768   0.232E-02
   9 F= -.44023837E+02 E0= -.44023837E+02  d E =-.163815E-01  mag=     6.0000
       N       E                     dE             d eps       ncg     rms          rms(c)
DAV:   1    -0.440537400598E+02   -0.29847E-01   -0.77620E-01  1272   0.378E+00    0.744E-01
DAV:   2    -0.440484487098E+02    0.52913E-02   -0.80358E-02  1200   0.284E+00    0.807E-01
DAV:   3    -0.440379161272E+02    0.10533E-01   -0.34293E-02  1176   0.219E+00    0.297E-01
DAV:   4    -0.440320790833E+02    0.58370E-02   -0.14227E-02  1440   0.682E-01    0.699E-02
DAV:   5    -0.440320263057E+02    0.52778E-04   -0.62202E-04   984   0.152E-01
  10 F= -.44032026E+02 E0= -.44032026E+02  d E =-.818882E-02  mag=     6.0000
       N       E                     dE             d eps       ncg     rms          rms(c)
DAV:   1    -0.442269311469E+02   -0.19485E+00   -0.71933E+00  1224   0.115E+01    0.227E+00
DAV:   2    -0.441754793928E+02    0.51452E-01   -0.75533E-01  1176   0.839E+00    0.243E+00
DAV:   3    -0.440827288441E+02    0.92751E-01   -0.33555E-01  1128   0.695E+00    0.931E-01
DAV:   4    -0.440360834480E+02    0.46645E-01   -0.13748E-01  1560   0.222E+00    0.229E-01
DAV:   5    -0.440353624567E+02    0.72099E-03   -0.69475E-03  1176   0.508E-01    0.105E-01
DAV:   6    -0.440366166094E+02   -0.12542E-02   -0.13481E-03  1008   0.185E-01    0.742E-02
DAV:   7    -0.440390999737E+02   -0.24834E-02   -0.24292E-03  1008   0.179E-01    0.467E-02
DAV:   8    -0.440404635011E+02   -0.13635E-02   -0.13367E-03  1152   0.151E-01    0.404E-02
DAV:   9    -0.440421738338E+02   -0.17103E-02   -0.40947E-03   960   0.154E-01    0.309E-02
DAV:  10    -0.440420233935E+02    0.15044E-03   -0.82347E-04  1176   0.718E-02    0.267E-02
DAV:  11    -0.440412080894E+02    0.81530E-03   -0.70246E-04  1008   0.638E-02    0.211E-02
DAV:  12    -0.440406523099E+02    0.55578E-03   -0.17462E-04  1032   0.522E-02    0.199E-02
DAV:  13    -0.440401681153E+02    0.48419E-03   -0.77930E-05  1008   0.365E-02    0.157E-02
DAV:  14    -0.440397134822E+02    0.45463E-03   -0.11794E-04   864   0.403E-02    0.127E-02
DAV:  15    -0.440394537423E+02    0.25974E-03   -0.10795E-04   864   0.344E-02    0.865E-03
DAV:  16    -0.440392427442E+02    0.21100E-03   -0.53463E-04  1008   0.637E-02    0.559E-03
DAV:  17    -0.440394672499E+02   -0.22451E-03   -0.75741E-05   984   0.343E-02    0.307E-03
DAV:  18    -0.440396551047E+02   -0.18785E-03   -0.26440E-05   840   0.167E-02    0.138E-03
DAV:  19    -0.440397768668E+02   -0.12176E-03   -0.22420E-05   864   0.135E-02    0.664E-04
DAV:  20    -0.440398221912E+02   -0.45324E-04   -0.50960E-06   816   0.685E-03
  11 F= -.44039822E+02 E0= -.44039822E+02  d E =-.159847E-01  mag=     6.0000
       N       E                     dE             d eps       ncg     rms          rms(c)
DAV:   1    -0.440556145999E+02   -0.15838E-01   -0.54552E-01  1104   0.318E+00    0.618E-01
DAV:   2    -0.440527265706E+02    0.28880E-02   -0.55702E-02  1176   0.243E+00    0.664E-01
DAV:   3    -0.440452866999E+02    0.74399E-02   -0.22208E-02  1296   0.175E+00    0.241E-01
DAV:   4    -0.440421690007E+02    0.31177E-02   -0.92375E-03  1176   0.512E-01    0.527E-02
DAV:   5    -0.440419742735E+02    0.19473E-03   -0.33673E-04   960   0.876E-02    0.278E-02
DAV:   6    -0.440418544211E+02    0.11985E-03   -0.61721E-05   816   0.525E-02    0.186E-02
DAV:   7    -0.440417589032E+02    0.95518E-04   -0.11922E-04   888   0.425E-02
  12 F= -.44041759E+02 E0= -.44041759E+02  d E =-.179214E-01  mag=     6.0000
       N       E                     dE             d eps       ncg     rms          rms(c)
DAV:   1    -0.440568945996E+02   -0.15040E-01   -0.44071E-01  1176   0.300E+00    0.536E-01
DAV:   2    -0.440571281685E+02   -0.23357E-03   -0.49193E-02   984   0.220E+00    0.588E-01
DAV:   3    -0.440515624923E+02    0.55657E-02   -0.18184E-02  1032   0.158E+00    0.192E-01
DAV:   4    -0.440504906302E+02    0.10719E-02   -0.49920E-03  1200   0.428E-01    0.419E-02
DAV:   5    -0.440506607203E+02   -0.17009E-03   -0.15132E-04   864   0.790E-02    0.193E-02
DAV:   6    -0.440507474881E+02   -0.86768E-04   -0.41232E-05   768   0.321E-02
  13 F= -.44050747E+02 E0= -.44050747E+02  d E =-.898858E-02  mag=     6.0000
       N       E                     dE             d eps       ncg     rms          rms(c)
DAV:   1    -0.440933480485E+02   -0.42687E-01   -0.23778E+00  1176   0.706E+00    0.126E+00
DAV:   2    -0.440938596267E+02   -0.51158E-03   -0.27076E-01  1080   0.512E+00    0.138E+00
DAV:   3    -0.440638185645E+02    0.30041E-01   -0.10406E-01  1152   0.381E+00    0.460E-01
DAV:   4    -0.440564854463E+02    0.73331E-02   -0.28181E-02  1320   0.105E+00    0.100E-01
DAV:   5    -0.440565030114E+02   -0.17565E-04   -0.10523E-03  1440   0.199E-01    0.449E-02
DAV:   6    -0.440565094459E+02   -0.64345E-05   -0.86999E-05   768   0.508E-02
  14 F= -.44056509E+02 E0= -.44056509E+02  d E =-.147505E-01  mag=     6.0000
       N       E                     dE             d eps       ncg     rms          rms(c)
DAV:   1    -0.440611333762E+02   -0.46304E-02   -0.71704E-01   984   0.295E+00    0.342E-01
DAV:   2    -0.440634397972E+02   -0.23064E-02   -0.37650E-02  1056   0.899E-01    0.211E-01
DAV:   3    -0.440630094712E+02    0.43033E-03   -0.38541E-03  1176   0.627E-01    0.168E-01
DAV:   4    -0.440626140447E+02    0.39543E-03   -0.16584E-03  1128   0.390E-01    0.436E-02
DAV:   5    -0.440626197802E+02   -0.57355E-05   -0.32138E-04  1128   0.100E-01
  15 F= -.44062620E+02 E0= -.44062620E+02  d E =-.611033E-02  mag=     6.0000
       N       E                     dE             d eps       ncg     rms          rms(c)
DAV:   1    -0.440627331132E+02   -0.11907E-03   -0.80078E-03  1056   0.321E-01    0.331E-02
DAV:   2    -0.440627459896E+02   -0.12876E-04   -0.41906E-04  1104   0.861E-02
  16 F= -.44062746E+02 E0= -.44062746E+02  d E =-.623654E-02  mag=     6.0000
