 vasp.5.4.4.18Apr17-6-g9f103f2a35 (build May  1 2020 15:48:39) complex           
 executed on             LinuxGNU date 2020.06.13  18:31:04
 running on   24 total cores
 distrk:  each k-point on   24 cores,    1 groups
 distr:  one band on NCORES_PER_BAND=   1 cores,   24 groups


--------------------------------------------------------------------------------------------------------


 INCAR:
 POTCAR:   PAW_PBE Cr 06Sep2000                   
 POTCAR:   PAW_PBE Si 05Jan2001                   
 POTCAR:   PAW_PBE Te 08Apr2002                   

 ----------------------------------------------------------------------------- 
|                                                                             |
|           W    W    AA    RRRRR   N    N  II  N    N   GGGG   !!!           |
|           W    W   A  A   R    R  NN   N  II  NN   N  G    G  !!!           |
|           W    W  A    A  R    R  N N  N  II  N N  N  G       !!!           |
|           W WW W  AAAAAA  RRRRR   N  N N  II  N  N N  G  GGG   !            |
|           WW  WW  A    A  R   R   N   NN  II  N   NN  G    G                |
|           W    W  A    A  R    R  N    N  II  N    N   GGGG   !!!           |
|                                                                             |
|      For optimal performance we recommend to set                            |
|        NCORE= 4 - approx SQRT( number of cores)                             |
|      NCORE specifies how many cores store one orbital (NPAR=cpu/NCORE).     |
|      This setting can  greatly improve the performance of VASP for DFT.     |
|      The default,   NCORE=1            might be grossly inefficient         |
|      on modern multi-core architectures or massively parallel machines.     |
|      Do your own testing !!!!                                               |
|      Unfortunately you need to use the default for GW and RPA calculations. |
|      (for HF NCORE is supported but not extensively tested yet)             |
|                                                                             |
 ----------------------------------------------------------------------------- 


 ----------------------------------------------------------------------------- 
|                                                                             |
|  ADVICE TO THIS USER RUNNING 'VASP/VAMP'   (HEAR YOUR MASTER'S VOICE ...):  |
|                                                                             |
|      You have switched on vdW-DFT.                                          |
|      This routine was written and supplied by Jiri Klimes.                  |
|      We recommed that you carefully read and cite the following             |
|      publication                                                            |
|      J. Klimes, D.R. Bowler, A. Michelides                                  |
|        J. Phys.: Cond Matt. 22 022201 (2010)                                |
|      J. Klimes, D.R. Bowler, A. Michelides                                  |
|        Phys. Rev. B. 83, 195131 (2011)                                      |
|      and references therein.                                                |
|                                                                             |
 ----------------------------------------------------------------------------- 

 POTCAR:   PAW_PBE Cr 06Sep2000                   
   VRHFIN =Cr : d5 s1                                                           
   LEXCH  = PE                                                                  
   EATOM  =   276.9744 eV,   20.3570 Ry                                         
                                                                                
   TITEL  = PAW_PBE Cr 06Sep2000                                                
   LULTRA =        F    use ultrasoft PP ?                                      
   IUNSCR =        1    unscreen: 0-lin 1-nonlin 2-no                           
   RPACOR =    2.080    partial core radius                                     
   POMASS =   51.996; ZVAL   =    6.000    mass and valenz                      
   RCORE  =    2.500    outmost cutoff radius                                   
   RWIGS  =    2.500; RWIGS  =    1.323    wigner-seitz radius (au A)           
   ENMAX  =  227.082; ENMIN  =  170.311 eV                                      
   RCLOC  =    1.721    cutoff for local pot                                    
   LCOR   =        T    correct aug charges                                     
   LPAW   =        T    paw PP                                                  
   EAUG   =  402.108                                                            
   DEXC   =    -.035                                                            
   RMAX   =    3.060    core radius for proj-oper                               
   RAUG   =    1.300    factor for augmentation sphere                          
   RDEP   =    2.609    radius for radial grids                                 
   QCUT   =   -4.085; QGAM   =    8.171    optimization parameters              
                                                                                
   Description                                                                  
     l     E      TYP  RCUT    TYP  RCUT                                        
     2   .000     23  2.500                                                     
     2   .000     23  2.500                                                     
     0   .000     23  2.500                                                     
     0   .000     23  2.500                                                     
     1  -.400     23  2.500                                                     
     1  2.000     23  2.500                                                     
     3   .000      7   .000                                                     
  local pseudopotential read in
  partial core-charges read in
  atomic valenz-charges read in
  non local Contribution for L=           2  read in
    real space projection operators read in
  non local Contribution for L=           2  read in
    real space projection operators read in
  non local Contribution for L=           0  read in
    real space projection operators read in
  non local Contribution for L=           0  read in
    real space projection operators read in
  non local Contribution for L=           1  read in
    real space projection operators read in
  non local Contribution for L=           1  read in
    real space projection operators read in
    PAW grid and wavefunctions read in

   number of l-projection  operators is LMAX  =           6
   number of lm-projection operators is LMMAX =          18

 POTCAR:   PAW_PBE Si 05Jan2001                   
   VRHFIN =Si: s2p2                                                             
   LEXCH  = PE                                                                  
   EATOM  =   103.0669 eV,    7.5752 Ry                                         
                                                                                
   TITEL  = PAW_PBE Si 05Jan2001                                                
   LULTRA =        F    use ultrasoft PP ?                                      
   IUNSCR =        1    unscreen: 0-lin 1-nonlin 2-no                           
   RPACOR =    1.500    partial core radius                                     
   POMASS =   28.085; ZVAL   =    4.000    mass and valenz                      
   RCORE  =    1.900    outmost cutoff radius                                   
   RWIGS  =    2.480; RWIGS  =    1.312    wigner-seitz radius (au A)           
   ENMAX  =  245.345; ENMIN  =  184.009 eV                                      
   ICORE  =        2    local potential                                         
   LCOR   =        T    correct aug charges                                     
   LPAW   =        T    paw PP                                                  
   EAUG   =  322.069                                                            
   DEXC   =    -.007                                                            
   RMAX   =    2.944    core radius for proj-oper                               
   RAUG   =    1.300    factor for augmentation sphere                          
   RDEP   =    1.993    radius for radial grids                                 
   QCUT   =   -4.246; QGAM   =    8.493    optimization parameters              
                                                                                
   Description                                                                  
     l     E      TYP  RCUT    TYP  RCUT                                        
     0   .000     23  1.900                                                     
     0   .000     23  1.900                                                     
     1   .000     23  1.900                                                     
     1   .000     23  1.900                                                     
     2   .000      7  1.900                                                     
  local pseudopotential read in
  partial core-charges read in
  atomic valenz-charges read in
  non local Contribution for L=           0  read in
    real space projection operators read in
  non local Contribution for L=           0  read in
    real space projection operators read in
  non local Contribution for L=           1  read in
    real space projection operators read in
  non local Contribution for L=           1  read in
    real space projection operators read in
    PAW grid and wavefunctions read in

   number of l-projection  operators is LMAX  =           4
   number of lm-projection operators is LMMAX =           8

 POTCAR:   PAW_PBE Te 08Apr2002                   
   VRHFIN =Te: s2p4                                                             
   LEXCH  = PE                                                                  
   EATOM  =   223.2721 eV,   16.4100 Ry                                         
                                                                                
   TITEL  = PAW_PBE Te 08Apr2002                                                
   LULTRA =        F    use ultrasoft PP ?                                      
   IUNSCR =        1    unscreen: 0-lin 1-nonlin 2-no                           
   RPACOR =    2.200    partial core radius                                     
   POMASS =  127.600; ZVAL   =    6.000    mass and valenz                      
   RCORE  =    2.300    outmost cutoff radius                                   
   RWIGS  =    2.900; RWIGS  =    1.535    wigner-seitz radius (au A)           
   ENMAX  =  174.982; ENMIN  =  131.236 eV                                      
   ICORE  =        3    local potential                                         
   LCOR   =        T    correct aug charges                                     
   LPAW   =        T    paw PP                                                  
   EAUG   =  368.792                                                            
   DEXC   =    -.169                                                            
   RMAX   =    3.486    core radius for proj-oper                               
   RAUG   =    1.300    factor for augmentation sphere                          
   RDEP   =    2.397    radius for radial grids                                 
   QCUT   =   -3.586; QGAM   =    7.172    optimization parameters              
                                                                                
   Description                                                                  
     l     E      TYP  RCUT    TYP  RCUT                                        
     0   .000     23  2.300                                                     
     0   .000     23  2.300                                                     
     1   .000     23  2.300                                                     
     1   .000     23  2.300                                                     
     2   .000     23  2.300                                                     
     3  -.100     23  2.300                                                     
  local pseudopotential read in
  partial core-charges read in
  atomic valenz-charges read in
  non local Contribution for L=           0  read in
    real space projection operators read in
  non local Contribution for L=           0  read in
    real space projection operators read in
  non local Contribution for L=           1  read in
    real space projection operators read in
  non local Contribution for L=           1  read in
    real space projection operators read in
  non local Contribution for L=           2  read in
    real space projection operators read in
    PAW grid and wavefunctions read in

   number of l-projection  operators is LMAX  =           5
   number of lm-projection operators is LMMAX =          13

 Optimization of the real space projectors (new method)

 maximal supplied QI-value         = 15.12
 optimisation between [QCUT,QGAM] = [ 11.64, 23.28] = [ 37.95,151.78] Ry 
 Optimized for a Real-space Cutoff    1.49 Angstroem

   l    n(q)    QCUT    max X(q) W(low)/X(q) W(high)/X(q)  e(spline) 
   2      9    11.641     4.777    0.25E-04    0.21E-05    0.63E-07
   2      9    11.641    31.132    0.13E-03    0.22E-03    0.64E-06
   0     10    11.641    20.416    0.11E-04    0.74E-05    0.19E-07
   0     10    11.641    45.408    0.10E-03    0.85E-04    0.30E-06
   1     10    11.641     7.848    0.22E-04    0.23E-04    0.56E-07
   1     10    11.641     9.895    0.85E-04    0.54E-04    0.16E-06
 Optimization of the real space projectors (new method)

 maximal supplied QI-value         = 19.84
 optimisation between [QCUT,QGAM] = [ 11.51, 23.22] = [ 37.09,150.92] Ry 
 Optimized for a Real-space Cutoff    1.21 Angstroem

   l    n(q)    QCUT    max X(q) W(low)/X(q) W(high)/X(q)  e(spline) 
   0      8    11.508     8.708    0.18E-04    0.44E-05    0.47E-08
   0      8    11.508   106.241    0.70E-04    0.15E-03    0.51E-07
   1      8    11.508     5.901    0.63E-05    0.23E-04    0.21E-07
   1      8    11.508    73.241    0.15E-03    0.36E-04    0.79E-07
 Optimization of the real space projectors (new method)

 maximal supplied QI-value         = 16.25
 optimisation between [QCUT,QGAM] = [ 11.54, 23.24] = [ 37.28,151.24] Ry 
 Optimized for a Real-space Cutoff    1.36 Angstroem

   l    n(q)    QCUT    max X(q) W(low)/X(q) W(high)/X(q)  e(spline) 
   0      9    11.539     7.090    0.13E-04    0.25E-05    0.51E-08
   0      9    11.539   101.654    0.53E-04    0.69E-04    0.12E-06
   1      9    11.539     5.276    0.20E-04    0.98E-05    0.24E-07
   1      9    11.539    81.891    0.24E-03    0.13E-04    0.15E-06
   2      9    11.539     5.599    0.30E-04    0.97E-04    0.54E-07

 ----------------------------------------------------------------------------- 
|                                                                             |
|  ADVICE TO THIS USER RUNNING 'VASP/VAMP'   (HEAR YOUR MASTER'S VOICE ...):  |
|                                                                             |
|      You enforced a specific xc-type in the INCAR file,                     |
|      a different type was found on the POTCAR file                          |
|          I HOPE YOU KNOW, WHAT YOU ARE  DOING                               |
|                                                                             |
 ----------------------------------------------------------------------------- 

 PAW_PBE Cr 06Sep2000                   :
 energy of atom  1       EATOM= -276.9744
 kinetic energy error for atom=    0.0010 (will be added to EATOM!!)
 PAW_PBE Si 05Jan2001                   :
 energy of atom  2       EATOM= -103.0669
 kinetic energy error for atom=    0.0005 (will be added to EATOM!!)
 PAW_PBE Te 08Apr2002                   :
 energy of atom  3       EATOM= -223.2721
 kinetic energy error for atom=    0.0007 (will be added to EATOM!!)


 POSCAR: Cr2 Si2 Te6                             
  positions in direct lattice
  velocities in cartesian coordinates
  No initial velocities read in
 exchange correlation table for  LEXCH =       42
   RHO(1)=    0.500       N(1)  =     2000
   RHO(2)=  100.500       N(2)  =     4000



--------------------------------------------------------------------------------------------------------


 ion  position               nearest neighbor table
   1  0.333  0.333  0.500-   6 2.78   5 2.78   7 2.78   8 2.78  10 2.78   9 2.78
   2  0.667  0.667  0.500-   9 2.78   8 2.78  10 2.78   5 2.78   7 2.78   6 2.78
   3  0.000  0.000  0.448-   4 2.43   8 2.63  10 2.63   9 2.63
   4  0.000  0.000  0.552-   3 2.43   5 2.63   7 2.63   6 2.63
   5  0.626  0.000  0.574-   4 2.63   1 2.78   2 2.78
   6  0.000  0.373  0.574-   4 2.63   1 2.78   2 2.78
   7  0.373  0.626  0.574-   4 2.63   1 2.78   2 2.78
   8  0.374  1.000  0.426-   3 2.63   2 2.78   1 2.78
   9  1.000  0.627  0.426-   3 2.63   2 2.78   1 2.78
  10  0.627  0.374  0.426-   3 2.63   2 2.78   1 2.78

  LATTYP: Found a hexagonal cell.
 ALAT       =     6.9077769333
 C/A-ratio  =     3.3939410937
  
  Lattice vectors:
  
 A1 = (   3.4538890000,  -5.9823100000,   0.0000000000)
 A2 = (  -6.9077770000,   0.0000000000,   0.0000000000)
 A3 = (   0.0000000000,   0.0000000000, -23.4445880000)


Analysis of symmetry for initial positions (statically):
=====================================================================
 Subroutine PRICEL returns:
 Original cell was already a primitive cell.
 

 Routine SETGRP: Setting up the symmetry group for a 
 hexagonal supercell.


 Subroutine GETGRP returns: Found  6 space group operations
 (whereof  6 operations were pure point group operations)
 out of a pool of 24 trial point group operations.


The static configuration has the point symmetry S_6 .


Analysis of symmetry for dynamics (positions and initial velocities):
=====================================================================
 Subroutine PRICEL returns:
 Original cell was already a primitive cell.
 

 Routine SETGRP: Setting up the symmetry group for a 
 hexagonal supercell.


 Subroutine GETGRP returns: Found  6 space group operations
 (whereof  6 operations were pure point group operations)
 out of a pool of 24 trial point group operations.


The dynamic configuration has the point symmetry S_6 .


Analysis of constrained symmetry for selective dynamics:
=====================================================================
 Subroutine PRICEL returns:
 Original cell was already a primitive cell.
 

 Routine SETGRP: Setting up the symmetry group for a 
 hexagonal supercell.


 Subroutine GETGRP returns: Found  6 space group operations
 (whereof  6 operations were pure point group operations)
 out of a pool of 24 trial point group operations.


The constrained configuration has the point symmetry S_6 .


Analysis of structural, dynamic, and magnetic symmetry:
=====================================================================
 Subroutine PRICEL returns:
 Original cell was already a primitive cell.
 

 Routine SETGRP: Setting up the symmetry group for a 
 hexagonal supercell.


 Subroutine GETGRP returns: Found  6 space group operations
 (whereof  6 operations were pure point group operations)
 out of a pool of 24 trial point group operations.


The magnetic configuration has the point symmetry S_6 .


 Subroutine INISYM returns: Found  6 space group operations
 (whereof  6 operations are pure point group operations),
 and found     1 'primitive' translations



 KPOINTS: Kpoints from vasprun.xml                

Automatic generation of k-mesh.
Space group operators:
 irot       det(A)        alpha          n_x          n_y          n_z        tau_x        tau_y        tau_z
    1     1.000000     0.000000     1.000000     0.000000     0.000000     0.000000     0.000000     0.000000
    2    -1.000000     0.000000     1.000000     0.000000     0.000000     0.000000     0.000000     0.000000
    3     1.000000   120.000000     0.000000     0.000000     1.000000     0.000000     0.000000     0.000000
    4    -1.000000   120.000000     0.000000     0.000000     1.000000     0.000000     0.000000     0.000000
    5     1.000000   120.000000     0.000000     0.000000    -1.000000     0.000000     0.000000     0.000000
    6    -1.000000   120.000000     0.000000     0.000000    -1.000000     0.000000     0.000000     0.000000
 
 Subroutine IBZKPT returns following result:
 ===========================================
 
 Found      5 irreducible k-points:
 
 Following reciprocal coordinates:
            Coordinates               Weight
  0.000000  0.000000  0.000000      1.000000
  0.200000  0.000000  0.000000      6.000000
  0.400000  0.000000  0.000000      6.000000
  0.400000  0.200000  0.000000      6.000000
 -0.400000  0.200000  0.000000      6.000000
 
 Following cartesian coordinates:
            Coordinates               Weight
  0.000000  0.000000  0.000000      1.000000
  0.028953 -0.016716  0.000000      6.000000
  0.057906 -0.033432  0.000000      6.000000
  0.057906  0.000000  0.000000      6.000000
 -0.057906  0.066864  0.000000      6.000000
 
 TETIRR: Found     15 inequivalent tetrahedra from      150


--------------------------------------------------------------------------------------------------------




 Dimension of arrays:
   k-points           NKPTS =      5   k-points in BZ     NKDIM =      5   number of bands    NBANDS=     48
   number of dos      NEDOS =    301   number of ions     NIONS =     10
   non local maximal  LDIM  =      6   non local SUM 2l+1 LMDIM =     18
   total plane-waves  NPLWV = 524880
   max r-space proj   IRMAX =   7543   max aug-charges    IRDMAX=  31706
   dimension x,y,z NGX =    54 NGY =   54 NGZ =  180
   dimension x,y,z NGXF=   108 NGYF=  108 NGZF=  360
   support grid    NGXF=   108 NGYF=  108 NGZF=  360
   ions per type =               2   2   6
   NGX,Y,Z   is equivalent  to a cutoff of  13.00, 13.00, 12.76 a.u.
   NGXF,Y,Z  is equivalent  to a cutoff of  25.99, 25.99, 25.53 a.u.

 SYSTEM =  unknown system                          
 POSCAR =  Cr2 Si2 Te6                             

 Startparameter for this run:
   NWRITE =      2    write-flag & timer
   PREC   = accura    normal or accurate (medium, high low for compatibility)
   ISTART =      0    job   : 0-new  1-cont  2-samecut
   ICHARG =      2    charge: 1-file 2-atom 10-const
   ISPIN  =      2    spin polarized calculation?
   LNONCOLLINEAR =      F non collinear calculations
   LSORBIT =      F    spin-orbit coupling
   INIWAV =      1    electr: 0-lowe 1-rand  2-diag
   LASPH  =      F    aspherical Exc in radial PAW
   METAGGA=      F    non-selfconsistent MetaGGA calc.

 Electronic Relaxation 1
   ENCUT  =  520.0 eV  38.22 Ry    6.18 a.u.  12.84 12.84 43.59*2*pi/ulx,y,z
   ENINI  =  520.0     initial cutoff
   ENAUG  =  402.1 eV  augmentation charge cutoff
   NELM   =    400;   NELMIN=  2; NELMDL=  0     # of ELM steps 
   EDIFF  = 0.1E-03   stopping-criterion for ELM
   LREAL  =      T    real-space projection
   NLSPLINE    = F    spline interpolate recip. space projectors
   LCOMPAT=      F    compatible to vasp.4.4
   GGA_COMPAT  = T    GGA compatible to vasp.4.4-vasp.4.6
   LMAXPAW     = -100 max onsite density
   LMAXMIX     =    2 max onsite mixed and CHGCAR
   VOSKOWN=      0    Vosko Wilk Nusair interpolation
   ROPT   =   -0.00025  -0.00025  -0.00025
 Ionic relaxation
   EDIFFG = 0.1E-02   stopping-criterion for IOM
   NSW    =     99    number of steps for IOM
   NBLOCK =      1;   KBLOCK =     99    inner block; outer block 
   IBRION =      2    ionic relax: 0-MD 1-quasi-New 2-CG
   NFREE  =      1    steps in history (QN), initial steepest desc. (CG)
   ISIF   =      3    stress and relaxation
   IWAVPR =     11    prediction:  0-non 1-charg 2-wave 3-comb
   ISYM   =      2    0-nonsym 1-usesym 2-fastsym
   LCORR  =      T    Harris-Foulkes like correction to forces

   POTIM  = 0.5000    time-step for ionic-motion
   TEIN   =    0.0    initial temperature
   TEBEG  =    0.0;   TEEND  =   0.0 temperature during run
   SMASS  =  -3.00    Nose mass-parameter (am)
   estimated Nose-frequenzy (Omega)   =  0.10E-29 period in steps =****** mass=  -0.109E-26a.u.
   SCALEE = 1.0000    scale energy and forces
   NPACO  =    256;   APACO  = 16.0  distance and # of slots for P.C.
   PSTRESS=    0.0 pullay stress

  Mass of Ions in am
   POMASS =  52.00 28.09127.60
  Ionic Valenz
   ZVAL   =   6.00  4.00  6.00
  Atomic Wigner-Seitz radii
   RWIGS  =  -1.00 -1.00 -1.00
  virtual crystal weights 
   VCA    =   1.00  1.00  1.00
   NELECT =      56.0000    total number of electrons
   NUPDOWN=      -1.0000    fix difference up-down

 DOS related values:
   EMIN   =  10.00;   EMAX   =-10.00  energy-range for DOS
   EFERMI =   0.00
   ISMEAR =    -5;   SIGMA  =   0.05  broadening in eV -4-tet -1-fermi 0-gaus

 Electronic relaxation 2 (details)
   IALGO  =     38    algorithm
   LDIAG  =      T    sub-space diagonalisation (order eigenvalues)
   LSUBROT=      F    optimize rotation matrix (better conditioning)
   TURBO    =      0    0=normal 1=particle mesh
   IRESTART =      0    0=no restart 2=restart with 2 vectors
   NREBOOT  =      0    no. of reboots
   NMIN     =      0    reboot dimension
   EREF     =   0.00    reference energy to select bands
   IMIX   =      4    mixing-type and parameters
     AMIX     =   0.40;   BMIX     =  1.00
     AMIX_MAG =   1.60;   BMIX_MAG =  1.00
     AMIN     =   0.01
     WC   =   100.;   INIMIX=   1;  MIXPRE=   1;  MAXMIX= -45

 Intra band minimization:
   WEIMIN = 0.0010     energy-eigenvalue tresh-hold
   EBREAK =  0.52E-06  absolut break condition
   DEPER  =   0.30     relativ break condition  

   TIME   =   0.40     timestep for ELM

  volume/ion in A,a.u.               =      96.88       653.80
  Fermi-wavevector in a.u.,A,eV,Ry     =   0.632976  1.196152  5.451299  0.400659
  Thomas-Fermi vector in A             =   1.696476

 Write flags
   LWAVE        =      F    write WAVECAR
   LDOWNSAMPLE  =      F    k-point downsampling of WAVECAR
   LCHARG       =      T    write CHGCAR
   LVTOT        =      F    write LOCPOT, total local potential
   LVHAR        =      F    write LOCPOT, Hartree potential only
   LELF         =      F    write electronic localiz. function (ELF)
   LORBIT       =     11    0 simple, 1 ext, 2 COOP (PROOUT), +10 PAW based schemes


 Dipole corrections
   LMONO  =      F    monopole corrections only (constant potential shift)
   LDIPOL =      F    correct potential (dipole corrections)
   IDIPOL =      0    1-x, 2-y, 3-z, 4-all directions 
   EPSILON=  1.0000000 bulk dielectric constant

 Exchange correlation treatment:
   GGA     =    BO    GGA type
   LEXCH   =    42    internal setting for exchange type
   VOSKOWN=      0    Vosko Wilk Nusair interpolation
   LHFCALC =     F    Hartree Fock is set to
   LHFONE  =     F    Hartree Fock one center treatment
   AEXX    =    0.0000 exact exchange contribution

 vdW DFT:
   LUSE_VDW   =     T    switch on vdW DFT
   Zab_VDW    =-.8491    correlation parameter
   PARAM1     =0.1833
   PARAM2     =0.2200
   PARAM3     =0.0000
   -- rVV10 --
   BPARAM     = 6.3000
   CPARAM     = 0.0093

 Linear response parameters
   LEPSILON=     F    determine dielectric tensor
   LRPA    =     F    only Hartree local field effects (RPA)
   LNABLA  =     F    use nabla operator in PAW spheres
   LVEL    =     F    velocity operator in full k-point grid
   LINTERFAST=   F  fast interpolation
   KINTER  =     0    interpolate to denser k-point grid
   CSHIFT  =0.1000    complex shift for real part using Kramers Kronig
   OMEGAMAX=  -1.0    maximum frequency
   DEG_THRESHOLD= 0.2000000E-02 threshold for treating states as degnerate
   RTIME   =   -0.100 relaxation time in fs
  (WPLASMAI=    0.000 imaginary part of plasma frequency in eV, 0.658/RTIME)
   DFIELD  = 0.0000000 0.0000000 0.0000000 field for delta impulse in time

 Orbital magnetization related:
   ORBITALMAG=     F  switch on orbital magnetization
   LCHIMAG   =     F  perturbation theory with respect to B field
   DQ        =  0.001000  dq finite difference perturbation B field
   LLRAUG    =     F  two centre corrections for induced B field



--------------------------------------------------------------------------------------------------------


 conjugate gradient relaxation of ions
   using selective dynamics as specified on POSCAR
 charge density and potential will be updated during run
 spin polarized calculation
 Variant of blocked Davidson
 Davidson routine will perform the subspace rotation
 perform sub-space diagonalisation
    after iterative eigenvector-optimisation
 modified Broyden-mixing scheme, WC =      100.0
 initial mixing is a Kerker type mixing with AMIX =  0.4000 and BMIX =      1.0000
 Hartree-type preconditioning will be used
 using additional bands           20
 real space projection scheme for non local part
 use partial core corrections
 calculate Harris-corrections to forces   (improved forces if not selfconsistent)
 use gradient corrections 
 use of overlap-Matrix (Vanderbilt PP)
 Fermi weights with tetrahedron method with Bloechl corrections


--------------------------------------------------------------------------------------------------------


  energy-cutoff  :      520.00
  volume of cell :      968.84
      direct lattice vectors                 reciprocal lattice vectors
     6.907777000 -0.000000000  0.000000000     0.144764372 -0.083579742  0.000000000
     3.453888000  5.982310000  0.000000000     0.000000000  0.167159509 -0.000000000
     0.000000000  0.000000000 23.444588000    -0.000000000  0.000000000  0.042653767

  length of vectors
     6.907777000  6.907776433 23.444588000     0.167159495  0.167159509  0.042653767



 k-points in units of 2pi/SCALE and weight: Kpoints from vasprun.xml                
   0.00000000  0.00000000  0.00000000       0.040
   0.02895287 -0.01671595  0.00000000       0.240
   0.05790575 -0.03343190  0.00000000       0.240
   0.05790575  0.00000000  0.00000000       0.240
  -0.05790575  0.06686380  0.00000000       0.240

 k-points in reciprocal lattice and weights: Kpoints from vasprun.xml                
   0.00000000  0.00000000  0.00000000       0.040
   0.20000000  0.00000000  0.00000000       0.240
   0.40000000  0.00000000  0.00000000       0.240
   0.40000000  0.20000000  0.00000000       0.240
  -0.40000000  0.20000000  0.00000000       0.240

 position of ions in fractional coordinates (direct lattice) 
   0.33333300  0.33333300  0.49992500
   0.66666700  0.66666700  0.50007500
   0.00000000  0.00000000  0.44821600
   0.00000000  0.00000000  0.55178400
   0.62635700  0.00042000  0.57375200
   0.00042000  0.37322400  0.57375200
   0.37322400  0.62635700  0.57375200
   0.37364300  0.99958000  0.42624800
   0.99958000  0.62677600  0.42624800
   0.62677600  0.37364300  0.42624800

 position of ions in cartesian coordinates  (Angst):
   3.45388488  1.99410134 11.72053566
   6.90778012  3.98820866 11.72405234
   0.00000000  0.00000000 10.50823946
   0.00000000  0.00000000 12.93634854
   4.32818511  0.00251257 13.45137925
   1.29197516  2.23274167 13.45137925
   4.74151509  3.74706174 13.45137925
   6.03347989  5.97979743  9.99320875
   9.06968984  3.74956833  9.99320875
   5.62014991  2.23524826  9.99320875



--------------------------------------------------------------------------------------------------------


 k-point  1 :   0.0000 0.0000 0.0000  plane waves:   26073
 k-point  2 :   0.2000 0.0000 0.0000  plane waves:   26070
 k-point  3 :   0.4000 0.0000 0.0000  plane waves:   26086
 k-point  4 :   0.4000 0.2000 0.0000  plane waves:   26085
 k-point  5 :  -0.4000 0.2000 0.0000  plane waves:   26115

 maximum and minimum number of plane-waves per node :     26115    26070

 maximum number of plane-waves:     26115
 maximum index in each direction: 
   IXMAX=   13   IYMAX=   12   IZMAX=   43
   IXMIN=  -13   IYMIN=  -13   IZMIN=  -43


 serial   3D FFT for wavefunctions
 parallel 3D FFT for charge:
    minimum data exchange during FFTs selected (reduces bandwidth)


 total amount of memory used by VASP MPI-rank0   114493. kBytes
=======================================================================

   base      :      30000. kBytes
   nonlr-proj:       7947. kBytes
   fftplans  :       8558. kBytes
   grid      :      59268. kBytes
   one-center:        311. kBytes
   wavefun   :       8409. kBytes

     INWAV:  cpu time    0.0000: real time    0.0000
 Broyden mixing: mesh for mixing (old mesh)
   NGX = 25   NGY = 25   NGZ = 87
  (NGX  =108   NGY  =108   NGZ  =360)
  gives a total of  54375 points

 initial charge density was supplied:
 charge density of overlapping atoms calculated
 number of electron      56.0000000 magnetization      14.8000000
 keeping initial charge density in first step


--------------------------------------------------------------------------------------------------------


 Maximum index for non-local projection operator         7247
 Maximum index for augmentation-charges         1805 (set IRDMAX)


--------------------------------------------------------------------------------------------------------


 First call to EWALD:  gamma=   0.179
 Maximum number of real-space cells 4x 4x 1
 Maximum number of reciprocal cells 2x 2x 6

    FEWALD:  cpu time    0.0040: real time    0.0021


--------------------------------------- Iteration      1(   1)  ---------------------------------------


vdW kernel read from vdw_kernel.bindat
  0.0000  0.2424  0.5071  0.7962  1.1119  1.4567  1.8333  2.2446  2.6937  3.1842
  3.7199  4.3049  4.9438  5.6415  6.4036  7.2358  8.1446  9.1372 10.2212 11.4050
 12.6979 14.1099 15.6519 17.3360 19.1751 21.1837 23.3773 25.7729 28.3892 31.2465
 34.3669 37.7748 41.4965 45.5611 50.0000

    POTLOK:  cpu time   40.9280: real time   61.0407
    SETDIJ:  cpu time    0.0320: real time    0.0765
     EDDAV:  cpu time   20.2120: real time   31.4860
 BZINTS: Fermi energy:  5.943927; 56.000000 electrons
         Band energy:  10.013161;  BLOECHL correction: -0.048417
       DOS:  cpu time    0.0080: real time    0.0144
    --------------------------------------------
      LOOP:  cpu time   61.1800: real time   92.6177

 eigenvalue-minimisations  :   960
 total energy-change (2. order) : 0.3531624E+03  (-0.1647113E+04)
 number of electron      56.0000000 magnetization      14.8000000
 augmentation part       56.0000000 magnetization      14.8000000

 Free energy of the ion-electron system (eV)
  ---------------------------------------------------
  alpha Z        PSCENC =        10.43337871
  Ewald energy   TEWEN  =      5985.89955237
  -Hartree energ DENC   =     -7850.85503700
  -exchange      EXHF   =         0.00000000
  -V(xc)+E(xc)   XCENC  =      -230.59539499
  PAW double counting   =      1143.42517624     -824.83664442
  entropy T*S    EENTRO =         0.00000000
  eigenvalues    EBANDS =        10.01316134
  atomic energy  EATOM  =      2109.67816268
  Solvation  Ediel_sol  =         0.00000000
  ---------------------------------------------------
  free energy    TOTEN  =       353.16235494 eV

  energy without entropy =      353.16235494  energy(sigma->0) =      353.16235494


--------------------------------------------------------------------------------------------------------




--------------------------------------- Iteration      1(   2)  ---------------------------------------


     EDDAV:  cpu time   27.1000: real time   41.4487
 BZINTS: Fermi energy: -1.043731; 56.000000 electrons
         Band energy:-352.245912;  BLOECHL correction:  0.000000
       DOS:  cpu time    0.0040: real time    0.0057
    --------------------------------------------
      LOOP:  cpu time   27.1040: real time   41.4544

 eigenvalue-minimisations  :  1416
 total energy-change (2. order) :-0.3622591E+03  (-0.3446919E+03)
 number of electron      56.0000000 magnetization      14.8000000
 augmentation part       56.0000000 magnetization      14.8000000

 Free energy of the ion-electron system (eV)
  ---------------------------------------------------
  alpha Z        PSCENC =        10.43337871
  Ewald energy   TEWEN  =      5985.89955237
  -Hartree energ DENC   =     -7850.85503700
  -exchange      EXHF   =         0.00000000
  -V(xc)+E(xc)   XCENC  =      -230.59539499
  PAW double counting   =      1143.42517624     -824.83664442
  entropy T*S    EENTRO =         0.00000000
  eigenvalues    EBANDS =      -352.24591245
  atomic energy  EATOM  =      2109.67816268
  Solvation  Ediel_sol  =         0.00000000
  ---------------------------------------------------
  free energy    TOTEN  =        -9.09671885 eV

  energy without entropy =       -9.09671885  energy(sigma->0) =       -9.09671885


--------------------------------------------------------------------------------------------------------




--------------------------------------- Iteration      1(   3)  ---------------------------------------


     EDDAV:  cpu time   26.3000: real time   41.3093
 BZINTS: Fermi energy: -2.120759; 56.000000 electrons
         Band energy:-386.549810;  BLOECHL correction:  0.000000
       DOS:  cpu time    0.0040: real time    0.0055
    --------------------------------------------
      LOOP:  cpu time   26.3040: real time   41.3148

 eigenvalue-minimisations  :  1392
 total energy-change (2. order) :-0.3430390E+02  (-0.3393337E+02)
 number of electron      56.0000000 magnetization      14.8000000
 augmentation part       56.0000000 magnetization      14.8000000

 Free energy of the ion-electron system (eV)
  ---------------------------------------------------
  alpha Z        PSCENC =        10.43337871
  Ewald energy   TEWEN  =      5985.89955237
  -Hartree energ DENC   =     -7850.85503700
  -exchange      EXHF   =         0.00000000
  -V(xc)+E(xc)   XCENC  =      -230.59539499
  PAW double counting   =      1143.42517624     -824.83664442
  entropy T*S    EENTRO =         0.00000000
  eigenvalues    EBANDS =      -386.54980988
  atomic energy  EATOM  =      2109.67816268
  Solvation  Ediel_sol  =         0.00000000
  ---------------------------------------------------
  free energy    TOTEN  =       -43.40061629 eV

  energy without entropy =      -43.40061629  energy(sigma->0) =      -43.40061629


--------------------------------------------------------------------------------------------------------




--------------------------------------- Iteration      1(   4)  ---------------------------------------


     EDDAV:  cpu time   25.3040: real time   37.6917
 BZINTS: Fermi energy: -2.155005; 56.000000 electrons
         Band energy:-387.672878;  BLOECHL correction:  0.000000
       DOS:  cpu time    0.0040: real time    0.0021
    --------------------------------------------
      LOOP:  cpu time   25.3080: real time   37.6937

 eigenvalue-minimisations  :  1248
 total energy-change (2. order) :-0.1123068E+01  (-0.1121627E+01)
 number of electron      56.0000000 magnetization      14.8000000
 augmentation part       56.0000000 magnetization      14.8000000

 Free energy of the ion-electron system (eV)
  ---------------------------------------------------
  alpha Z        PSCENC =        10.43337871
  Ewald energy   TEWEN  =      5985.89955237
  -Hartree energ DENC   =     -7850.85503700
  -exchange      EXHF   =         0.00000000
  -V(xc)+E(xc)   XCENC  =      -230.59539499
  PAW double counting   =      1143.42517624     -824.83664442
  entropy T*S    EENTRO =         0.00000000
  eigenvalues    EBANDS =      -387.67287777
  atomic energy  EATOM  =      2109.67816268
  Solvation  Ediel_sol  =         0.00000000
  ---------------------------------------------------
  free energy    TOTEN  =       -44.52368417 eV

  energy without entropy =      -44.52368417  energy(sigma->0) =      -44.52368417


--------------------------------------------------------------------------------------------------------




--------------------------------------- Iteration      1(   5)  ---------------------------------------


     EDDAV:  cpu time   30.5000: real time   46.9986
 BZINTS: Fermi energy: -2.141025; 56.000000 electrons
         Band energy:-387.719459;  BLOECHL correction:  0.000000
       DOS:  cpu time    0.0160: real time    0.0155
    CHARGE:  cpu time    1.4520: real time    2.2210
    MIXING:  cpu time    0.0600: real time    0.0609
    --------------------------------------------
      LOOP:  cpu time   32.0280: real time   49.2960

 eigenvalue-minimisations  :  1656
 total energy-change (2. order) :-0.4658139E-01  (-0.4657924E-01)
 number of electron      56.0000002 magnetization      13.8564751
 augmentation part       -3.8948866 magnetization      11.4636891

 Broyden mixing:
  rms(total) = 0.14684E+01    rms(broyden)= 0.14684E+01
  rms(prec ) = 0.15536E+01
  weight for this iteration     100.00

 Free energy of the ion-electron system (eV)
  ---------------------------------------------------
  alpha Z        PSCENC =        10.43337871
  Ewald energy   TEWEN  =      5985.89955237
  -Hartree energ DENC   =     -7850.85503700
  -exchange      EXHF   =         0.00000000
  -V(xc)+E(xc)   XCENC  =      -230.59539499
  PAW double counting   =      1143.42517624     -824.83664442
  entropy T*S    EENTRO =         0.00000000
  eigenvalues    EBANDS =      -387.71945916
  atomic energy  EATOM  =      2109.67816268
  Solvation  Ediel_sol  =         0.00000000
  ---------------------------------------------------
  free energy    TOTEN  =       -44.57026557 eV

  energy without entropy =      -44.57026557  energy(sigma->0) =      -44.57026557


--------------------------------------------------------------------------------------------------------




--------------------------------------- Iteration      1(   6)  ---------------------------------------


    POTLOK:  cpu time   41.0160: real time   59.0245
    SETDIJ:  cpu time    0.0280: real time    0.0589
     EDDAV:  cpu time   28.1320: real time   42.9452
 BZINTS: Fermi energy: -3.279511; 56.000000 electrons
         Band energy:-415.937053;  BLOECHL correction: -0.024115
       DOS:  cpu time    0.0080: real time    0.0044
    CHARGE:  cpu time    1.3520: real time    2.2753
    MIXING:  cpu time    0.0280: real time    0.0555
    --------------------------------------------
      LOOP:  cpu time   70.5640: real time  104.3639

 eigenvalue-minimisations  :  1488
 total energy-change (2. order) :-0.2820778E+01  (-0.4157200E+01)
 number of electron      56.0000001 magnetization      13.5557012
 augmentation part        1.4761016 magnetization      10.8256034

 Broyden mixing:
  rms(total) = 0.22894E+01    rms(broyden)= 0.22894E+01
  rms(prec ) = 0.25898E+01
  weight for this iteration     100.00

 eigenvalues of (default mixing * dielectric matrix)
  average eigenvalue GAMMA=   0.4491
  0.4491

 Free energy of the ion-electron system (eV)
  ---------------------------------------------------
  alpha Z        PSCENC =        10.43337871
  Ewald energy   TEWEN  =      5985.89955237
  -Hartree energ DENC   =     -7828.13238135
  -exchange      EXHF   =         0.00000000
  -V(xc)+E(xc)   XCENC  =      -232.14545085
  PAW double counting   =      1131.29985147     -808.48710362
  entropy T*S    EENTRO =         0.00000000
  eigenvalues    EBANDS =      -415.93705317
  atomic energy  EATOM  =      2109.67816268
  Solvation  Ediel_sol  =         0.00000000
  ---------------------------------------------------
  free energy    TOTEN  =       -47.39104376 eV

  energy without entropy =      -47.39104376  energy(sigma->0) =      -47.39104376


--------------------------------------------------------------------------------------------------------




--------------------------------------- Iteration      1(   7)  ---------------------------------------


    POTLOK:  cpu time   39.0360: real time   58.4112
    SETDIJ:  cpu time    0.0760: real time    0.0733
     EDDAV:  cpu time   26.4640: real time   40.3230
 BZINTS: Fermi energy: -2.312434; 56.000000 electrons
         Band energy:-381.264163;  BLOECHL correction:  0.000000
       DOS:  cpu time    0.0040: real time    0.0015
    CHARGE:  cpu time    1.5880: real time    2.2381
    MIXING:  cpu time    0.0520: real time    0.0692
    --------------------------------------------
      LOOP:  cpu time   67.2200: real time  101.1163

 eigenvalue-minimisations  :  1392
 total energy-change (2. order) : 0.4585210E+01  (-0.3708806E+01)
 number of electron      56.0000002 magnetization      12.8908440
 augmentation part       -3.4242185 magnetization      10.5004099

 Broyden mixing:
  rms(total) = 0.90493E+00    rms(broyden)= 0.90491E+00
  rms(prec ) = 0.97496E+00
  weight for this iteration     100.00

 eigenvalues of (default mixing * dielectric matrix)
  average eigenvalue GAMMA=   0.5159
  0.7747  0.2570

 Free energy of the ion-electron system (eV)
  ---------------------------------------------------
  alpha Z        PSCENC =        10.43337871
  Ewald energy   TEWEN  =      5985.89955237
  -Hartree energ DENC   =     -7853.42490233
  -exchange      EXHF   =         0.00000000
  -V(xc)+E(xc)   XCENC  =      -232.42234081
  PAW double counting   =      1183.38380257     -865.08932401
  entropy T*S    EENTRO =         0.00000000
  eigenvalues    EBANDS =      -381.26416289
  atomic energy  EATOM  =      2109.67816268
  Solvation  Ediel_sol  =         0.00000000
  ---------------------------------------------------
  free energy    TOTEN  =       -42.80583370 eV

  energy without entropy =      -42.80583370  energy(sigma->0) =      -42.80583370


--------------------------------------------------------------------------------------------------------




--------------------------------------- Iteration      1(   8)  ---------------------------------------


    POTLOK:  cpu time   38.7360: real time   59.9225
    SETDIJ:  cpu time    0.0840: real time    0.0870
     EDDAV:  cpu time   25.0320: real time   38.2971
 BZINTS: Fermi energy: -2.340970; 56.000000 electrons
         Band energy:-383.950624;  BLOECHL correction:  0.000000
       DOS:  cpu time    0.0000: real time    0.0156
    CHARGE:  cpu time    1.5120: real time    2.1866
    MIXING:  cpu time    0.0360: real time    0.0577
    --------------------------------------------
      LOOP:  cpu time   65.4000: real time  100.5664

 eigenvalue-minimisations  :  1296
 total energy-change (2. order) : 0.3594279E+00  (-0.2761542E+00)
 number of electron      56.0000002 magnetization      11.3920805
 augmentation part       -2.8699307 magnetization       9.2589178

 Broyden mixing:
  rms(total) = 0.55229E+00    rms(broyden)= 0.55229E+00
  rms(prec ) = 0.57602E+00
  weight for this iteration     100.00

 eigenvalues of (default mixing * dielectric matrix)
  average eigenvalue GAMMA=   0.7627
  0.2808  1.0037  1.0037

 Free energy of the ion-electron system (eV)
  ---------------------------------------------------
  alpha Z        PSCENC =        10.43337871
  Ewald energy   TEWEN  =      5985.89955237
  -Hartree energ DENC   =     -7850.75105533
  -exchange      EXHF   =         0.00000000
  -V(xc)+E(xc)   XCENC  =      -232.13032294
  PAW double counting   =      1188.45900814     -870.08450567
  entropy T*S    EENTRO =         0.00000000
  eigenvalues    EBANDS =      -383.95062376
  atomic energy  EATOM  =      2109.67816268
  Solvation  Ediel_sol  =         0.00000000
  ---------------------------------------------------
  free energy    TOTEN  =       -42.44640580 eV

  energy without entropy =      -42.44640580  energy(sigma->0) =      -42.44640580


--------------------------------------------------------------------------------------------------------




--------------------------------------- Iteration      1(   9)  ---------------------------------------


    POTLOK:  cpu time   40.4320: real time   58.6568
    SETDIJ:  cpu time    0.0360: real time    0.0863
     EDDAV:  cpu time   29.0080: real time   44.1691
 BZINTS: Fermi energy: -2.287224; 56.000000 electrons
         Band energy:-382.469051;  BLOECHL correction:  0.000000
       DOS:  cpu time    0.0000: real time    0.0016
    CHARGE:  cpu time    1.5640: real time    2.2204
    MIXING:  cpu time    0.0320: real time    0.0555
    --------------------------------------------
      LOOP:  cpu time   71.0720: real time  105.1897

 eigenvalue-minimisations  :  1512
 total energy-change (2. order) :-0.4296475E+00  (-0.1760722E+00)
 number of electron      56.0000002 magnetization      10.0568893
 augmentation part       -2.2356021 magnetization       8.3490510

 Broyden mixing:
  rms(total) = 0.30925E+00    rms(broyden)= 0.30925E+00
  rms(prec ) = 0.31181E+00
  weight for this iteration     100.00

 eigenvalues of (default mixing * dielectric matrix)
  average eigenvalue GAMMA=   1.0330
  1.9773  1.1902  0.2777  0.6867

 Free energy of the ion-electron system (eV)
  ---------------------------------------------------
  alpha Z        PSCENC =        10.43337871
  Ewald energy   TEWEN  =      5985.89955237
  -Hartree energ DENC   =     -7853.59601810
  -exchange      EXHF   =         0.00000000
  -V(xc)+E(xc)   XCENC  =      -230.87392815
  PAW double counting   =      1207.17833523     -889.12648553
  entropy T*S    EENTRO =         0.00000000
  eigenvalues    EBANDS =      -382.46905052
  atomic energy  EATOM  =      2109.67816268
  Solvation  Ediel_sol  =         0.00000000
  ---------------------------------------------------
  free energy    TOTEN  =       -42.87605329 eV

  energy without entropy =      -42.87605329  energy(sigma->0) =      -42.87605329


--------------------------------------------------------------------------------------------------------




--------------------------------------- Iteration      1(  10)  ---------------------------------------


    POTLOK:  cpu time   39.5480: real time   59.6756
    SETDIJ:  cpu time    0.0240: real time    0.0646
     EDDAV:  cpu time   24.8600: real time   37.2915
 BZINTS: Fermi energy: -2.324902; 56.000000 electrons
         Band energy:-379.820047;  BLOECHL correction:  0.000000
       DOS:  cpu time    0.0000: real time    0.0051
    CHARGE:  cpu time    1.4480: real time    2.3128
    MIXING:  cpu time    0.0280: real time    0.0573
    --------------------------------------------
      LOOP:  cpu time   65.9080: real time   99.4068

 eigenvalue-minimisations  :  1248
 total energy-change (2. order) :-0.4081817E+00  (-0.2963200E-01)
 number of electron      56.0000002 magnetization       9.0979782
 augmentation part       -2.0560972 magnetization       7.5433712

 Broyden mixing:
  rms(total) = 0.29038E+00    rms(broyden)= 0.29038E+00
  rms(prec ) = 0.30215E+00
  weight for this iteration     100.00

 eigenvalues of (default mixing * dielectric matrix)
  average eigenvalue GAMMA=   1.1738
  2.8294  1.0542  1.0542  0.2775  0.6538

 Free energy of the ion-electron system (eV)
  ---------------------------------------------------
  alpha Z        PSCENC =        10.43337871
  Ewald energy   TEWEN  =      5985.89955237
  -Hartree energ DENC   =     -7856.66685702
  -exchange      EXHF   =         0.00000000
  -V(xc)+E(xc)   XCENC  =      -230.19835273
  PAW double counting   =      1214.54985239     -897.15992414
  entropy T*S    EENTRO =         0.00000000
  eigenvalues    EBANDS =      -379.82004720
  atomic energy  EATOM  =      2109.67816268
  Solvation  Ediel_sol  =         0.00000000
  ---------------------------------------------------
  free energy    TOTEN  =       -43.28423495 eV

  energy without entropy =      -43.28423495  energy(sigma->0) =      -43.28423495


--------------------------------------------------------------------------------------------------------




--------------------------------------- Iteration      1(  11)  ---------------------------------------


    POTLOK:  cpu time   37.6800: real time   58.6650
    SETDIJ:  cpu time    0.0240: real time    0.0494
     EDDAV:  cpu time   24.7080: real time   36.6099
 BZINTS: Fermi energy: -2.268921; 56.000000 electrons
         Band energy:-377.852877;  BLOECHL correction:  0.000000
       DOS:  cpu time    0.0040: real time    0.0016
    CHARGE:  cpu time    1.3840: real time    2.3671
    MIXING:  cpu time    0.0480: real time    0.0531
    --------------------------------------------
      LOOP:  cpu time   63.8480: real time   97.7460

 eigenvalue-minimisations  :  1200
 total energy-change (2. order) :-0.1674703E+00  (-0.1186570E-01)
 number of electron      56.0000002 magnetization       7.1470488
 augmentation part       -2.2281504 magnetization       5.5263106

 Broyden mixing:
  rms(total) = 0.18698E+00    rms(broyden)= 0.18698E+00
  rms(prec ) = 0.18996E+00
  weight for this iteration     100.00

 eigenvalues of (default mixing * dielectric matrix)
  average eigenvalue GAMMA=   1.4546
  4.1325  1.4111  1.4111  0.2776  0.8554  0.6396

 Free energy of the ion-electron system (eV)
  ---------------------------------------------------
  alpha Z        PSCENC =        10.43337871
  Ewald energy   TEWEN  =      5985.89955237
  -Hartree energ DENC   =     -7858.32265597
  -exchange      EXHF   =         0.00000000
  -V(xc)+E(xc)   XCENC  =      -230.51884752
  PAW double counting   =      1215.45745515     -898.22587321
  entropy T*S    EENTRO =         0.00000000
  eigenvalues    EBANDS =      -377.85287746
  atomic energy  EATOM  =      2109.67816268
  Solvation  Ediel_sol  =         0.00000000
  ---------------------------------------------------
  free energy    TOTEN  =       -43.45170524 eV

  energy without entropy =      -43.45170524  energy(sigma->0) =      -43.45170524


--------------------------------------------------------------------------------------------------------




--------------------------------------- Iteration      1(  12)  ---------------------------------------


    POTLOK:  cpu time   38.1560: real time   59.5598
    SETDIJ:  cpu time    0.0560: real time    0.0566
     EDDAV:  cpu time   22.0800: real time   34.2225
 BZINTS: Fermi energy: -2.322314; 56.000000 electrons
         Band energy:-375.511313;  BLOECHL correction:  0.000000
       DOS:  cpu time    0.0160: real time    0.0352
    CHARGE:  cpu time    1.6880: real time    2.1398
    MIXING:  cpu time    0.0360: real time    0.0781
    --------------------------------------------
      LOOP:  cpu time   62.0320: real time   96.0921

 eigenvalue-minimisations  :  1104
 total energy-change (2. order) :-0.2635954E+00  (-0.1660549E-01)
 number of electron      56.0000002 magnetization       6.3469653
 augmentation part       -2.3790416 magnetization       4.5865729

 Broyden mixing:
  rms(total) = 0.83916E-01    rms(broyden)= 0.83915E-01
  rms(prec ) = 0.85667E-01
  weight for this iteration     100.00

 eigenvalues of (default mixing * dielectric matrix)
  average eigenvalue GAMMA=   1.8140
  6.7405  1.9369  1.1834  1.1834  0.2776  0.7453  0.6306

 Free energy of the ion-electron system (eV)
  ---------------------------------------------------
  alpha Z        PSCENC =        10.43337871
  Ewald energy   TEWEN  =      5985.89955237
  -Hartree energ DENC   =     -7860.21768822
  -exchange      EXHF   =         0.00000000
  -V(xc)+E(xc)   XCENC  =      -231.12021110
  PAW double counting   =      1210.81812497     -893.69530670
  entropy T*S    EENTRO =         0.00000000
  eigenvalues    EBANDS =      -375.51131342
  atomic energy  EATOM  =      2109.67816268
  Solvation  Ediel_sol  =         0.00000000
  ---------------------------------------------------
  free energy    TOTEN  =       -43.71530069 eV

  energy without entropy =      -43.71530069  energy(sigma->0) =      -43.71530069


--------------------------------------------------------------------------------------------------------




--------------------------------------- Iteration      1(  13)  ---------------------------------------


    POTLOK:  cpu time   39.5680: real time   59.3494
    SETDIJ:  cpu time    0.0400: real time    0.0643
     EDDAV:  cpu time   21.6560: real time   33.3677
 BZINTS: Fermi energy: -2.298378; 56.000000 electrons
         Band energy:-375.020603;  BLOECHL correction:  0.000000
       DOS:  cpu time    0.0080: real time    0.0171
    CHARGE:  cpu time    1.3480: real time    2.2844
    MIXING:  cpu time    0.0280: real time    0.0570
    --------------------------------------------
      LOOP:  cpu time   62.6480: real time   95.1398

 eigenvalue-minimisations  :  1080
 total energy-change (2. order) :-0.1013944E+00  (-0.4006748E-02)
 number of electron      56.0000002 magnetization       6.0815406
 augmentation part       -2.3443437 magnetization       4.3504201

 Broyden mixing:
  rms(total) = 0.43511E-01    rms(broyden)= 0.43511E-01
  rms(prec ) = 0.44509E-01
  weight for this iteration     100.00

 eigenvalues of (default mixing * dielectric matrix)
  average eigenvalue GAMMA=   1.9776
  8.2775  2.3646  1.3343  1.3343  0.2776  0.8662  0.7410  0.6250

 Free energy of the ion-electron system (eV)
  ---------------------------------------------------
  alpha Z        PSCENC =        10.43337871
  Ewald energy   TEWEN  =      5985.89955237
  -Hartree energ DENC   =     -7860.92538556
  -exchange      EXHF   =         0.00000000
  -V(xc)+E(xc)   XCENC  =      -231.24019857
  PAW double counting   =      1208.16575333     -890.80735477
  entropy T*S    EENTRO =         0.00000000
  eigenvalues    EBANDS =      -375.02060331
  atomic energy  EATOM  =      2109.67816268
  Solvation  Ediel_sol  =         0.00000000
  ---------------------------------------------------
  free energy    TOTEN  =       -43.81669512 eV

  energy without entropy =      -43.81669512  energy(sigma->0) =      -43.81669512


--------------------------------------------------------------------------------------------------------




--------------------------------------- Iteration      1(  14)  ---------------------------------------


    POTLOK:  cpu time   39.8360: real time   59.5755
    SETDIJ:  cpu time    0.0560: real time    0.0588
     EDDAV:  cpu time   21.5960: real time   31.9067
 BZINTS: Fermi energy: -2.315706; 56.000000 electrons
         Band energy:-374.679346;  BLOECHL correction:  0.000000
       DOS:  cpu time    0.0040: real time    0.0211
    CHARGE:  cpu time    1.5120: real time    2.2649
    MIXING:  cpu time    0.0320: real time    0.0565
    --------------------------------------------
      LOOP:  cpu time   63.0360: real time   93.8836

 eigenvalue-minimisations  :  1032
 total energy-change (2. order) :-0.1717730E-01  (-0.6756238E-03)
 number of electron      56.0000002 magnetization       6.0226982
 augmentation part       -2.3359865 magnetization       4.3066052

 Broyden mixing:
  rms(total) = 0.15340E-01    rms(broyden)= 0.15339E-01
  rms(prec ) = 0.16536E-01
  weight for this iteration     100.00

 eigenvalues of (default mixing * dielectric matrix)
  average eigenvalue GAMMA=   1.9841
  9.1303  2.6590  1.3596  1.3596  0.2776  1.0307  0.7379  0.6128  0.6892

 Free energy of the ion-electron system (eV)
  ---------------------------------------------------
  alpha Z        PSCENC =        10.43337871
  Ewald energy   TEWEN  =      5985.89955237
  -Hartree energ DENC   =     -7861.40455724
  -exchange      EXHF   =         0.00000000
  -V(xc)+E(xc)   XCENC  =      -231.17910956
  PAW double counting   =      1206.43359794     -889.01555167
  entropy T*S    EENTRO =         0.00000000
  eigenvalues    EBANDS =      -374.67934566
  atomic energy  EATOM  =      2109.67816268
  Solvation  Ediel_sol  =         0.00000000
  ---------------------------------------------------
  free energy    TOTEN  =       -43.83387242 eV

  energy without entropy =      -43.83387242  energy(sigma->0) =      -43.83387242


--------------------------------------------------------------------------------------------------------




--------------------------------------- Iteration      1(  15)  ---------------------------------------


    POTLOK:  cpu time   39.1880: real time   58.4769
    SETDIJ:  cpu time    0.0280: real time    0.0703
     EDDAV:  cpu time   22.3520: real time   32.6311
 BZINTS: Fermi energy: -2.297623; 56.000000 electrons
         Band energy:-374.515163;  BLOECHL correction:  0.000000
       DOS:  cpu time    0.0320: real time    0.0325
    CHARGE:  cpu time    1.5280: real time    2.2389
    MIXING:  cpu time    0.0240: real time    0.0593
    --------------------------------------------
      LOOP:  cpu time   63.1520: real time   93.5090

 eigenvalue-minimisations  :  1032
 total energy-change (2. order) :-0.2039051E-03  (-0.1087291E-03)
 number of electron      56.0000002 magnetization       6.0116770
 augmentation part       -2.3327699 magnetization       4.2989825

 Broyden mixing:
  rms(total) = 0.59515E-02    rms(broyden)= 0.59515E-02
  rms(prec ) = 0.78689E-02
  weight for this iteration     100.00

 eigenvalues of (default mixing * dielectric matrix)
  average eigenvalue GAMMA=   1.9179
  9.2547  2.7136  1.3905  1.3167  1.3167  0.2776  0.8053  0.8053  0.6174  0.6816

 Free energy of the ion-electron system (eV)
  ---------------------------------------------------
  alpha Z        PSCENC =        10.43337871
  Ewald energy   TEWEN  =      5985.89955237
  -Hartree energ DENC   =     -7861.55846758
  -exchange      EXHF   =         0.00000000
  -V(xc)+E(xc)   XCENC  =      -231.21608857
  PAW double counting   =      1206.79503088     -889.35048229
  entropy T*S    EENTRO =         0.00000000
  eigenvalues    EBANDS =      -374.51516254
  atomic energy  EATOM  =      2109.67816268
  Solvation  Ediel_sol  =         0.00000000
  ---------------------------------------------------
  free energy    TOTEN  =       -43.83407633 eV

  energy without entropy =      -43.83407633  energy(sigma->0) =      -43.83407633


--------------------------------------------------------------------------------------------------------




--------------------------------------- Iteration      1(  16)  ---------------------------------------


    POTLOK:  cpu time   38.6960: real time   59.4566
    SETDIJ:  cpu time    0.0800: real time    0.0831
     EDDAV:  cpu time   20.5400: real time   30.7040
 BZINTS: Fermi energy: -2.297212; 56.000000 electrons
         Band energy:-374.382025;  BLOECHL correction:  0.000000
       DOS:  cpu time    0.0040: real time    0.0019
    CHARGE:  cpu time    1.4200: real time    2.3590
    MIXING:  cpu time    0.0520: real time    0.0711
    --------------------------------------------
      LOOP:  cpu time   60.7920: real time   92.6756

 eigenvalue-minimisations  :   960
 total energy-change (2. order) :-0.1052589E-03  (-0.4569678E-04)
 number of electron      56.0000002 magnetization       6.0080002
 augmentation part       -2.3281628 magnetization       4.2968711

 Broyden mixing:
  rms(total) = 0.26432E-02    rms(broyden)= 0.26432E-02
  rms(prec ) = 0.52179E-02
  weight for this iteration     100.00

 eigenvalues of (default mixing * dielectric matrix)
  average eigenvalue GAMMA=   1.8822
  9.2791  2.7514  1.9200  1.3209  1.3209  0.2776  1.0041  0.7780  0.7780  0.6153
  0.6592

 Free energy of the ion-electron system (eV)
  ---------------------------------------------------
  alpha Z        PSCENC =        10.43337871
  Ewald energy   TEWEN  =      5985.89955237
  -Hartree energ DENC   =     -7861.67816968
  -exchange      EXHF   =         0.00000000
  -V(xc)+E(xc)   XCENC  =      -231.21925953
  PAW double counting   =      1207.34627477     -889.91209562
  entropy T*S    EENTRO =         0.00000000
  eigenvalues    EBANDS =      -374.38202531
  atomic energy  EATOM  =      2109.67816268
  Solvation  Ediel_sol  =         0.00000000
  ---------------------------------------------------
  free energy    TOTEN  =       -43.83418159 eV

  energy without entropy =      -43.83418159  energy(sigma->0) =      -43.83418159


--------------------------------------------------------------------------------------------------------




--------------------------------------- Iteration      1(  17)  ---------------------------------------


    POTLOK:  cpu time   41.2840: real time   61.2300
    SETDIJ:  cpu time    0.0360: real time    0.0748
     EDDAV:  cpu time   21.3720: real time   32.6480
 BZINTS: Fermi energy: -2.290741; 56.000000 electrons
         Band energy:-374.244567;  BLOECHL correction:  0.000000
       DOS:  cpu time    0.0000: real time    0.0011
    --------------------------------------------
      LOOP:  cpu time   62.6920: real time   93.9539

 eigenvalue-minimisations  :  1032
 total energy-change (2. order) : 0.1496364E-04  (-0.2264167E-04)
 number of electron      56.0000002 magnetization       6.0080002
 augmentation part       -2.3281628 magnetization       4.2968711

 Free energy of the ion-electron system (eV)
  ---------------------------------------------------
  alpha Z        PSCENC =        10.43337871
  Ewald energy   TEWEN  =      5985.89955237
  -Hartree energ DENC   =     -7861.80342655
  -exchange      EXHF   =         0.00000000
  -V(xc)+E(xc)   XCENC  =      -231.22380540
  PAW double counting   =      1207.70829661     -890.28175828
  entropy T*S    EENTRO =         0.00000000
  eigenvalues    EBANDS =      -374.24456676
  atomic energy  EATOM  =      2109.67816268
  Solvation  Ediel_sol  =         0.00000000
  ---------------------------------------------------
  free energy    TOTEN  =       -43.83416662 eV

  energy without entropy =      -43.83416662  energy(sigma->0) =      -43.83416662


--------------------------------------------------------------------------------------------------------




 average (electrostatic) potential at core
  the test charge radii are     1.1394  0.9892  1.1897
  (the norm of the test charge is              1.0000)
       1 -50.7129       2 -50.7129       3 -92.2832       4 -92.2832       5 -96.4701
       6 -96.4701       7 -96.4700       8 -96.4701       9 -96.4701      10 -96.4700



 E-fermi :  -2.2907     XC(G=0):  -3.5854     alpha+bet : -3.1062


 spin component 1

 k-point     1 :       0.0000    0.0000    0.0000
  band No.  band energies     occupation 
      1     -14.4928      1.00000
      2     -13.6683      1.00000
      3     -12.7356      1.00000
      4     -12.7356      1.00000
      5     -12.6663      1.00000
      6     -12.6663      1.00000
      7     -10.2850      1.00000
      8      -8.3204      1.00000
      9      -6.6739      1.00000
     10      -6.5963      1.00000
     11      -6.5962      1.00000
     12      -6.4881      1.00000
     13      -6.1994      1.00000
     14      -6.1994      1.00000
     15      -5.4008      1.00000
     16      -4.5718      1.00000
     17      -4.5718      1.00000
     18      -4.2745      1.00000
     19      -4.2744      1.00000
     20      -4.1474      1.00000
     21      -3.5979      1.00000
     22      -3.5979      1.00000
     23      -3.5730      1.00000
     24      -3.3196      1.00000
     25      -3.3196      1.00000
     26      -3.3054      1.00000
     27      -3.2365      1.00000
     28      -3.2365      1.00000
     29      -2.9574      1.00000
     30      -2.3146      1.00000
     31      -2.3146      1.00000
     32      -1.2597      0.00000
     33      -1.2597      0.00000
     34      -0.5641      0.00000
     35      -0.5641      0.00000
     36      -0.4677      0.00000
     37      -0.3774      0.00000
     38       0.8688      0.00000
     39       0.8688      0.00000
     40       1.6660      0.00000
     41       1.7707      0.00000
     42       1.8841      0.00000
     43       2.0413      0.00000
     44       2.0413      0.00000
     45       2.1894      0.00000
     46       2.5155      0.00000
     47       2.9671      0.00000
     48       2.9671      0.00000

 k-point     2 :       0.2000    0.0000    0.0000
  band No.  band energies     occupation 
      1     -14.3676      1.00000
      2     -13.5752      1.00000
      3     -12.9497      1.00000
      4     -12.8260      1.00000
      5     -12.7517      1.00000
      6     -12.7153      1.00000
      7     -10.1654      1.00000
      8      -8.4001      1.00000
      9      -6.8157      1.00000
     10      -6.5936      1.00000
     11      -6.4153      1.00000
     12      -6.1570      1.00000
     13      -5.7949      1.00000
     14      -5.6701      1.00000
     15      -5.1872      1.00000
     16      -4.7247      1.00000
     17      -4.7160      1.00000
     18      -4.5616      1.00000
     19      -4.1427      1.00000
     20      -4.0337      1.00000
     21      -3.9285      1.00000
     22      -3.9046      1.00000
     23      -3.4827      1.00000
     24      -3.4695      1.00000
     25      -3.3930      1.00000
     26      -3.3039      1.00000
     27      -3.2087      1.00000
     28      -3.1625      1.00000
     29      -3.1076      1.00000
     30      -2.7437      1.00000
     31      -2.5382      1.00000
     32      -1.4231      0.00000
     33      -1.1597      0.00000
     34      -1.1047      0.00000
     35      -0.8155      0.00000
     36      -0.0030      0.00000
     37       0.1772      0.00000
     38       0.8858      0.00000
     39       0.9377      0.00000
     40       1.6464      0.00000
     41       1.7955      0.00000
     42       1.8840      0.00000
     43       1.9567      0.00000
     44       2.1132      0.00000
     45       2.3413      0.00000
     46       2.6741      0.00000
     47       2.8705      0.00000
     48       3.0233      0.00000

 k-point     3 :       0.4000    0.0000    0.0000
  band No.  band energies     occupation 
      1     -14.0181      1.00000
      2     -13.4559      1.00000
      3     -13.3306      1.00000
      4     -12.9783      1.00000
      5     -12.8899      1.00000
      6     -12.8531      1.00000
      7      -9.9815      1.00000
      8      -8.4602      1.00000
      9      -6.6471      1.00000
     10      -6.4250      1.00000
     11      -6.0160      1.00000
     12      -5.5721      1.00000
     13      -5.2436      1.00000
     14      -5.1793      1.00000
     15      -5.1600      1.00000
     16      -5.0181      1.00000
     17      -4.8247      1.00000
     18      -4.7990      1.00000
     19      -4.3948      1.00000
     20      -4.3261      1.00000
     21      -4.2963      1.00000
     22      -3.7962      1.00000
     23      -3.6544      1.00000
     24      -3.6443      1.00000
     25      -3.4309      1.00000
     26      -3.3514      1.00000
     27      -3.3180      1.00000
     28      -3.0378      1.00000
     29      -2.9861      1.00000
     30      -2.9285      1.00000
     31      -2.8845      1.00000
     32      -1.4586      0.00000
     33      -1.3718      0.00000
     34      -1.0938      0.00000
     35      -0.9532      0.00000
     36      -0.3010      0.00000
     37      -0.1374      0.00000
     38       0.7195      0.00000
     39       1.3188      0.00000
     40       1.4707      0.00000
     41       1.5420      0.00000
     42       1.8392      0.00000
     43       1.9702      0.00000
     44       2.4050      0.00000
     45       2.6871      0.00000
     46       2.8484      0.00000
     47       3.0766      0.00000
     48       3.1917      0.00000

 k-point     4 :       0.4000    0.2000    0.0000
  band No.  band energies     occupation 
      1     -14.1286      1.00000
      2     -13.4055      1.00000
      3     -13.1753      1.00000
      4     -13.1095      1.00000
      5     -12.8621      1.00000
      6     -12.7919      1.00000
      7      -9.9907      1.00000
      8      -8.4319      1.00000
      9      -6.8355      1.00000
     10      -6.3488      1.00000
     11      -6.1981      1.00000
     12      -5.7752      1.00000
     13      -5.2051      1.00000
     14      -5.1539      1.00000
     15      -5.0642      1.00000
     16      -5.0026      1.00000
     17      -4.9139      1.00000
     18      -4.6858      1.00000
     19      -4.5705      1.00000
     20      -4.2982      1.00000
     21      -4.2309      1.00000
     22      -3.7478      1.00000
     23      -3.5308      1.00000
     24      -3.5291      1.00000
     25      -3.4286      1.00000
     26      -3.3220      1.00000
     27      -3.2712      1.00000
     28      -3.1591      1.00000
     29      -3.0041      1.00000
     30      -2.8641      1.00000
     31      -2.7605      1.00000
     32      -1.7113      0.00000
     33      -1.0896      0.00000
     34      -1.0728      0.00000
     35      -0.8090      0.00000
     36      -0.3296      0.00000
     37      -0.0999      0.00000
     38       0.7920      0.00000
     39       0.8428      0.00000
     40       1.4750      0.00000
     41       1.5636      0.00000
     42       1.7096      0.00000
     43       2.2526      0.00000
     44       2.2732      0.00000
     45       2.6170      0.00000
     46       2.9317      0.00000
     47       2.9610      0.00000
     48       3.1224      0.00000

 k-point     5 :      -0.4000    0.2000    0.0000
  band No.  band energies     occupation 
      1     -13.7786      1.00000
      2     -13.5779      1.00000
      3     -13.2255      1.00000
      4     -13.1737      1.00000
      5     -13.0286      1.00000
      6     -12.8679      1.00000
      7      -9.8676      1.00000
      8      -8.4162      1.00000
      9      -6.6104      1.00000
     10      -6.1413      1.00000
     11      -6.1367      1.00000
     12      -5.7138      1.00000
     13      -5.4704      1.00000
     14      -5.3120      1.00000
     15      -5.0686      1.00000
     16      -4.6999      1.00000
     17      -4.6699      1.00000
     18      -4.6316      1.00000
     19      -4.6281      1.00000
     20      -4.4498      1.00000
     21      -4.2430      1.00000
     22      -3.8862      1.00000
     23      -3.6119      1.00000
     24      -3.4768      1.00000
     25      -3.4436      1.00000
     26      -3.2621      1.00000
     27      -3.1950      1.00000
     28      -3.0751      1.00000
     29      -3.0323      1.00000
     30      -2.9863      1.00000
     31      -2.8672      1.00000
     32      -1.3804      0.00000
     33      -1.3087      0.00000
     34      -1.2174      0.00000
     35      -0.8119      0.00000
     36      -0.7348      0.00000
     37      -0.2083      0.00000
     38       0.3738      0.00000
     39       0.7402      0.00000
     40       1.1807      0.00000
     41       1.3786      0.00000
     42       1.5463      0.00000
     43       2.4763      0.00000
     44       2.7839      0.00000
     45       2.8108      0.00000
     46       2.8714      0.00000
     47       2.9458      0.00000
     48       3.5381      0.00000

 spin component 2

 k-point     1 :       0.0000    0.0000    0.0000
  band No.  band energies     occupation 
      1     -14.5033      1.00000
      2     -13.7274      1.00000
      3     -12.8051      1.00000
      4     -12.8051      1.00000
      5     -12.7349      1.00000
      6     -12.7349      1.00000
      7     -10.2303      1.00000
      8      -8.2618      1.00000
      9      -6.4773      1.00000
     10      -6.4773      1.00000
     11      -6.3681      1.00000
     12      -6.2927      1.00000
     13      -6.0943      1.00000
     14      -6.0943      1.00000
     15      -5.3649      1.00000
     16      -3.9818      1.00000
     17      -3.9818      1.00000
     18      -3.7311      1.00000
     19      -3.7311      1.00000
     20      -3.6698      1.00000
     21      -3.6194      1.00000
     22      -3.2913      1.00000
     23      -3.2913      1.00000
     24      -2.3270      1.00000
     25      -2.3270      1.00000
     26      -0.9401      0.00000
     27      -0.7499      0.00000
     28      -0.7499      0.00000
     29      -0.5218      0.00000
     30      -0.5218      0.00000
     31      -0.4485      0.00000
     32      -0.4411      0.00000
     33      -0.0413      0.00000
     34      -0.0284      0.00000
     35      -0.0283      0.00000
     36       0.5375      0.00000
     37       0.5375      0.00000
     38       0.9981      0.00000
     39       0.9981      0.00000
     40       1.8441      0.00000
     41       1.9411      0.00000
     42       2.1116      0.00000
     43       2.1436      0.00000
     44       2.1437      0.00000
     45       2.2674      0.00000
     46       2.6056      0.00000
     47       3.2332      0.00000
     48       3.2973      0.00000

 k-point     2 :       0.2000    0.0000    0.0000
  band No.  band energies     occupation 
      1     -14.3809      1.00000
      2     -13.6344      1.00000
      3     -13.0078      1.00000
      4     -12.8949      1.00000
      5     -12.8133      1.00000
      6     -12.7838      1.00000
      7     -10.1214      1.00000
      8      -8.3400      1.00000
      9      -6.5986      1.00000
     10      -6.5084      1.00000
     11      -6.2383      1.00000
     12      -6.0169      1.00000
     13      -5.6640      1.00000
     14      -5.4616      1.00000
     15      -4.9985      1.00000
     16      -4.3890      1.00000
     17      -4.1476      1.00000
     18      -4.0165      1.00000
     19      -3.9585      1.00000
     20      -3.5892      1.00000
     21      -3.5107      1.00000
     22      -3.4287      1.00000
     23      -3.3934      1.00000
     24      -3.0669      1.00000
     25      -2.6614      1.00000
     26      -0.9641      0.00000
     27      -0.7444      0.00000
     28      -0.7327      0.00000
     29      -0.5706      0.00000
     30      -0.5192      0.00000
     31      -0.4947      0.00000
     32      -0.4209      0.00000
     33       0.1009      0.00000
     34       0.1269      0.00000
     35       0.1601      0.00000
     36       0.4184      0.00000
     37       0.5276      0.00000
     38       0.9602      0.00000
     39       1.1403      0.00000
     40       1.7577      0.00000
     41       1.9544      0.00000
     42       2.1095      0.00000
     43       2.1750      0.00000
     44       2.2842      0.00000
     45       2.4272      0.00000
     46       2.7638      0.00000
     47       3.1644      0.00000
     48       3.3388      0.00000

 k-point     3 :       0.4000    0.0000    0.0000
  band No.  band energies     occupation 
      1     -14.0411      1.00000
      2     -13.4916      1.00000
      3     -13.3887      1.00000
      4     -13.0455      1.00000
      5     -12.9600      1.00000
      6     -12.9074      1.00000
      7      -9.9500      1.00000
      8      -8.3968      1.00000
      9      -6.4605      1.00000
     10      -6.3385      1.00000
     11      -5.8050      1.00000
     12      -5.4704      1.00000
     13      -5.1079      1.00000
     14      -4.9532      1.00000
     15      -4.8683      1.00000
     16      -4.7057      1.00000
     17      -4.3825      1.00000
     18      -4.3665      1.00000
     19      -4.1620      1.00000
     20      -4.0279      1.00000
     21      -3.7465      1.00000
     22      -3.5337      1.00000
     23      -3.3014      1.00000
     24      -3.2205      1.00000
     25      -3.0776      1.00000
     26      -1.6243      0.00000
     27      -0.8089      0.00000
     28      -0.7295      0.00000
     29      -0.6660      0.00000
     30      -0.5199      0.00000
     31      -0.4666      0.00000
     32      -0.4122      0.00000
     33      -0.2006      0.00000
     34       0.0854      0.00000
     35       0.2982      0.00000
     36       0.3531      0.00000
     37       0.6602      0.00000
     38       0.7811      0.00000
     39       1.5377      0.00000
     40       1.6244      0.00000
     41       1.8222      0.00000
     42       2.0101      0.00000
     43       2.3435      0.00000
     44       2.4717      0.00000
     45       2.6819      0.00000
     46       3.0161      0.00000
[...]
     34       0.4450      0.00000
     35       0.5911      0.00000
     36       0.6382      0.00000
     37       1.0960      0.00000
     38       1.3106      0.00000
     39       1.6021      0.00000
     40       2.2078      0.00000
     41       2.3570      0.00000
     42       2.4782      0.00000
     43       2.6968      0.00000
     44       2.8998      0.00000
     45       3.0009      0.00000
     46       3.4320      0.00000
     47       3.5828      0.00000
     48       3.6867      0.00000

 k-point     5 :      -0.4000    0.2000    0.0000
  band No.  band energies     occupation 
      1     -13.8019      1.00000
      2     -13.3253      1.00000
      3     -13.0941      1.00000
      4     -12.9943      1.00000
      5     -12.8240      1.00000
      6     -12.6680      1.00000
      7      -9.6590      1.00000
      8      -7.9867      1.00000
      9      -6.2550      1.00000
     10      -5.8696      1.00000
     11      -5.7710      1.00000
     12      -5.3334      1.00000
     13      -5.2600      1.00000
     14      -4.8488      1.00000
     15      -4.4069      1.00000
     16      -4.1701      1.00000
     17      -4.0221      1.00000
     18      -3.8911      1.00000
     19      -3.8142      1.00000
     20      -3.6603      1.00000
     21      -3.3510      1.00000
     22      -3.1127      1.00000
     23      -2.9513      1.00000
     24      -2.9294      1.00000
     25      -2.7957      1.00000
     26      -1.3772      0.00000
     27      -0.6666      0.00000
     28      -0.6272      0.00000
     29      -0.2670      0.00000
     30      -0.0668      0.00000
     31      -0.0311      0.00000
     32      -0.0298      0.00000
     33       0.2590      0.00000
     34       0.2854      0.00000
     35       0.6804      0.00000
     36       0.7345      0.00000
     37       0.9053      0.00000
     38       1.2532      0.00000
     39       1.4448      0.00000
     40       2.0344      0.00000
     41       2.2823      0.00000
     42       2.3190      0.00000
     43       3.1166      0.00000
     44       3.1437      0.00000
     45       3.2244      0.00000
     46       3.2998      0.00000
     47       3.3051      0.00000
     48       3.7958      0.00000


--------------------------------------------------------------------------------------------------------


 soft charge-density along one line, spin component           1
         0         1         2         3         4         5         6         7         8         9
 total charge-density along one line

 soft charge-density along one line, spin component           2
         0         1         2         3         4         5         6         7         8         9
 total charge-density along one line

 pseudopotential strength for first ion, spin component:           1
 -8.371   0.091  -0.000   0.000  -0.000   0.569  -0.025   0.000
  0.091  -8.302   0.000  -0.000   0.000  -0.025   0.550  -0.000
 -0.000   0.000  -8.454   0.000   0.000   0.000  -0.000   0.591
  0.000  -0.000   0.000  -8.302  -0.091  -0.000   0.000  -0.000
 -0.000   0.000   0.000  -0.091  -8.371   0.000  -0.000  -0.000
  0.569  -0.025   0.000  -0.000   0.000   0.394   0.006  -0.000
 -0.025   0.550  -0.000   0.000  -0.000   0.006   0.399   0.000
  0.000  -0.000   0.591  -0.000  -0.000  -0.000   0.000   0.388
 -0.000   0.000  -0.000   0.550   0.025   0.000  -0.000   0.000
  0.000  -0.000  -0.000   0.025   0.569  -0.000   0.000   0.000
  0.000  -0.000   0.001  -0.000   0.000  -0.000   0.000  -0.000
 -0.000   0.000  -0.000   0.000  -0.000   0.000  -0.000   0.000
  0.000   0.000   0.000  -0.000   0.001  -0.000  -0.000  -0.000
 -0.000  -0.000   0.000  -0.000  -0.000   0.000   0.000  -0.000
  0.001  -0.000   0.000   0.000  -0.000   0.000   0.000  -0.000
 -0.000  -0.000  -0.000   0.000  -0.001   0.000   0.000   0.000
  0.000   0.000  -0.000   0.000   0.000  -0.000  -0.000   0.000
 -0.001   0.000  -0.000  -0.000   0.000   0.000  -0.000   0.000
 pseudopotential strength for first ion, spin component:           2
 -6.692  -0.168  -0.000  -0.000   0.000   0.094   0.044   0.000
 -0.168  -6.871   0.000   0.000  -0.000   0.044   0.141  -0.000
 -0.000   0.000  -6.596   0.000   0.000   0.000  -0.000   0.069
 -0.000   0.000   0.000  -6.871   0.168   0.000  -0.000  -0.000
  0.000  -0.000   0.000   0.168  -6.692  -0.000   0.000  -0.000
  0.094   0.044   0.000   0.000  -0.000   0.524  -0.011  -0.000
  0.044   0.141  -0.000  -0.000   0.000  -0.011   0.512   0.000
  0.000  -0.000   0.069  -0.000  -0.000  -0.000   0.000   0.530
  0.000  -0.000  -0.000   0.141  -0.044  -0.000   0.000   0.000
 -0.000   0.000  -0.000  -0.044   0.094   0.000  -0.000   0.000
 -0.000  -0.000   0.008  -0.000   0.000  -0.000   0.000  -0.001
  0.000   0.000  -0.001   0.000  -0.000  -0.000  -0.000   0.000
 -0.000   0.000   0.000  -0.000   0.001   0.000  -0.000  -0.000
 -0.000  -0.000   0.000  -0.000   0.000   0.000   0.000  -0.000
  0.001  -0.000   0.000   0.000   0.000  -0.000   0.000  -0.000
 -0.000  -0.000  -0.000   0.000  -0.001  -0.000   0.000   0.000
  0.000   0.000  -0.000   0.000  -0.000  -0.000  -0.000   0.000
 -0.001   0.000  -0.000  -0.000   0.000   0.000  -0.000   0.000
 total augmentation occupancy for first ion, spin component:           1
  0.980  -0.040   0.000  -0.000  -0.000   0.018   0.196  -0.000   0.000   0.000  -0.000  -0.000   0.000  -0.000   0.003  -0.000
 -0.040   0.929  -0.000  -0.000  -0.000   0.194   0.216   0.000   0.000   0.000   0.000   0.000   0.000   0.000   0.001  -0.000
  0.000  -0.000   1.025  -0.000  -0.000  -0.000   0.000  -0.109   0.000   0.000  -0.005  -0.011  -0.000  -0.000   0.000  -0.000
 -0.000  -0.000  -0.000   0.929   0.040   0.000  -0.000   0.000   0.216  -0.194  -0.000  -0.000  -0.001  -0.000   0.000  -0.000
 -0.000  -0.000  -0.000   0.040   0.980  -0.000   0.000   0.000  -0.196   0.018   0.000   0.000   0.003   0.000  -0.000   0.000
  0.018   0.194  -0.000   0.000  -0.000   0.124   0.057   0.000   0.000  -0.000   0.000  -0.000   0.000  -0.000   0.010  -0.000
  0.196   0.216   0.000  -0.000   0.000   0.057   0.184   0.000  -0.000   0.000   0.000  -0.000   0.000  -0.000  -0.003  -0.000
 -0.000   0.000  -0.109   0.000   0.000   0.000   0.000   0.119   0.000  -0.000   0.046  -0.008  -0.000  -0.000   0.000   0.000
  0.000   0.000   0.000   0.216  -0.196   0.000  -0.000   0.000   0.184  -0.057  -0.000   0.000   0.003   0.000   0.000  -0.000
  0.000   0.000   0.000  -0.194   0.018  -0.000   0.000  -0.000  -0.057   0.124  -0.000   0.000   0.010   0.000  -0.000  -0.001
 -0.000   0.000  -0.005   0.000   0.000   0.000   0.000   0.046  -0.000  -0.000   1.031  -0.136  -0.000   0.000   0.000  -0.000
 -0.000   0.000  -0.011   0.000   0.000  -0.000  -0.000  -0.008   0.000   0.000  -0.136   0.049  -0.000  -0.000   0.000  -0.000
  0.000   0.000  -0.000  -0.001   0.003   0.000   0.000  -0.000   0.003   0.010   0.000  -0.000   0.196   0.000  -0.000  -0.001
 -0.000   0.000  -0.000  -0.000   0.000  -0.000   0.000  -0.000  -0.000   0.000   0.000  -0.000   0.000   0.210  -0.000  -0.000
  0.003   0.001   0.000   0.000  -0.000   0.010  -0.003   0.000   0.000  -0.000   0.000   0.000  -0.000  -0.000   0.196  -0.000
 -0.000  -0.000  -0.000  -0.000   0.000  -0.000  -0.000   0.000  -0.000  -0.001   0.000   0.000  -0.001  -0.000  -0.000   0.000
 -0.000   0.000  -0.000  -0.000   0.000   0.000   0.000   0.000   0.000  -0.000   0.000   0.000  -0.000  -0.002   0.000   0.000
  0.000   0.000   0.000  -0.000   0.000  -0.001   0.000  -0.000  -0.000   0.000  -0.000  -0.000   0.000   0.000  -0.001  -0.000
 total augmentation occupancy for first ion, spin component:           2
  0.740  -0.285   0.000  -0.000  -0.000  -0.145   0.047  -0.000   0.000   0.000  -0.000  -0.000  -0.000   0.000   0.002   0.000
 -0.285   0.462  -0.000  -0.000  -0.000   0.043  -0.092   0.000   0.000   0.000   0.000   0.000   0.000   0.000   0.004  -0.000
  0.000  -0.000   0.922  -0.000  -0.000  -0.000   0.000  -0.198   0.000   0.000  -0.029  -0.003  -0.000   0.000   0.000  -0.000
 -0.000  -0.000  -0.000   0.462   0.285   0.000  -0.000   0.000  -0.092  -0.043   0.000   0.000  -0.004  -0.000   0.000   0.000
 -0.000  -0.000  -0.000   0.285   0.740  -0.000   0.000   0.000  -0.047  -0.145   0.000   0.000   0.002  -0.000   0.000   0.001
 -0.145   0.043  -0.000   0.000  -0.000  -0.001  -0.047   0.000  -0.000  -0.000   0.000   0.000  -0.000  -0.000  -0.002   0.000
  0.047  -0.092   0.000  -0.000   0.000  -0.047  -0.046  -0.000   0.000  -0.000  -0.000  -0.000  -0.000   0.000  -0.000   0.000
 -0.000   0.000  -0.198   0.000   0.000   0.000  -0.000   0.040  -0.000  -0.000   0.010   0.004   0.000  -0.000  -0.000   0.000
  0.000   0.000   0.000  -0.092  -0.047  -0.000   0.000  -0.000  -0.046   0.047  -0.000  -0.000   0.000   0.000  -0.000  -0.000
  0.000   0.000   0.000  -0.043  -0.145  -0.000  -0.000  -0.000   0.047  -0.001  -0.000  -0.000  -0.002   0.000   0.000  -0.000
 -0.000  -0.000  -0.029   0.000   0.000   0.000  -0.000   0.010  -0.000  -0.000   0.179   0.064  -0.000   0.000  -0.000  -0.000
 -0.000   0.000  -0.003   0.000   0.000   0.000   0.000   0.004  -0.000  -0.000   0.064  -0.017  -0.000   0.000  -0.000  -0.000
 -0.000   0.000  -0.000  -0.004   0.002  -0.000  -0.000   0.000   0.000  -0.002  -0.000  -0.000   0.028   0.000  -0.000   0.003
  0.000   0.000   0.000  -0.000  -0.000  -0.000  -0.000  -0.000   0.000   0.000   0.000   0.000   0.000   0.023  -0.000   0.000
  0.002   0.004   0.000   0.000   0.000  -0.002  -0.000  -0.000  -0.000   0.000   0.000   0.000  -0.000  -0.000   0.028  -0.000
  0.000  -0.000  -0.000   0.000   0.001   0.000   0.000   0.000  -0.000  -0.000  -0.000  -0.000   0.003   0.000  -0.000   0.000
 -0.000   0.000  -0.000  -0.000   0.000   0.000   0.000   0.000  -0.000  -0.000   0.000  -0.000   0.000   0.002  -0.000   0.000
  0.001  -0.000   0.000  -0.000  -0.000  -0.000   0.000  -0.000   0.000  -0.000   0.000  -0.000   0.000  -0.000   0.003  -0.000


------------------------ aborting loop because EDIFF is reached ----------------------------------------





 total charge     

# of ion       s       p       d       tot
------------------------------------------
    1        0.330   0.402   4.237   4.969
    2        0.330   0.402   4.237   4.969
    3        0.778   0.845   0.000   1.623
    4        0.778   0.845   0.000   1.623
    5        1.387   1.991   0.035   3.414
    6        1.381   1.994   0.035   3.410
    7        1.386   1.990   0.035   3.411
    8        1.387   1.991   0.035   3.414
    9        1.381   1.994   0.035   3.410
   10        1.386   1.990   0.035   3.411
--------------------------------------------------
tot         10.524  14.445   8.686  33.654



 magnetization (x)

# of ion       s       p       d       tot
------------------------------------------
    1        0.042   0.046   3.050   3.138
    2        0.042   0.046   3.050   3.138
    3        0.003   0.026   0.000   0.029
    4        0.003   0.026   0.000   0.029
    5       -0.001  -0.100   0.005  -0.097
    6       -0.002  -0.083   0.005  -0.080
    7       -0.001  -0.095   0.005  -0.092
    8       -0.001  -0.100   0.005  -0.097
    9       -0.002  -0.083   0.005  -0.080
   10       -0.001  -0.095   0.005  -0.092
--------------------------------------------------
tot          0.080  -0.412   6.130   5.799

    CHARGE:  cpu time    1.3880: real time    2.2713
    FORLOC:  cpu time    0.0640: real time    0.0627
    FORNL :  cpu time    4.4840: real time    6.9556
    STRESS:  cpu time   13.5720: real time   20.2650
    FORCOR:  cpu time   40.6320: real time   59.5900
    FORHAR:  cpu time    0.1840: real time    0.2783
    MIXING:  cpu time    0.0280: real time    0.0537
    OFIELD:  cpu time    0.0000: real time    0.0000

  FORCE on cell =-STRESS in cart. coord.  units (eV):
  Direction    XX          YY          ZZ          XY          YZ          ZX
  --------------------------------------------------------------------------------------
  Alpha Z    11.34831    11.34831    11.34831
  Ewald    6892.47381  6892.47168 -8342.07613    -0.00098    -0.00040    -0.00073
  Hartree  7200.86609  7200.86645 -7065.63930    -0.00001     0.00005     0.00009
  E(xc)    -222.92605  -222.92603  -222.58000     0.00002     0.00001     0.00002
  Local  -14950.55294-14950.55204 14522.18210     0.00075     0.00025     0.00047
  n-local   723.09697   724.80374   734.16042     0.68569     0.92801     0.93128
  augment  -110.73538  -110.73527  -116.72322    -0.00002     0.00002     0.00002
  Kinetic   458.75125   452.70271   479.16165    -4.32052     0.58031     0.59548
  Fock        0.00000     0.00000     0.00000     0.00000     0.00000     0.00000
  -------------------------------------------------------------------------------------
  Total       0.15081     0.15081    -0.16617     0.00000     0.00000    -0.00000
  in kB       0.27126     0.27126    -0.29889     0.00000     0.00000    -0.00000
  external pressure =        0.08 kB  Pullay stress =        0.00 kB


 VOLUME and BASIS-vectors are now :
 -----------------------------------------------------------------------------
  energy-cutoff  :      520.00
  volume of cell :      890.72
      direct lattice vectors                 reciprocal lattice vectors
     6.819546881 -0.000000132 -0.000000000     0.146637307 -0.084661086  0.000000000
     3.409773075  5.905900424 -0.000000000     0.000000003  0.169322189 -0.000000000
    -0.000000000  0.000000000 22.115760480     0.000000000 -0.000000000  0.045216623

  length of vectors
     6.819546881  6.819546337 22.115760480     0.169322176  0.169322189  0.045216623


 FORCES acting on ions
    electron-ion (+dipol)            ewald-force                    non-local-force                 convergence-correction
 -----------------------------------------------------------------------------------------------
   -.327E-04 -.232E-04 -.154E+00   0.317E-03 0.187E-03 0.154E+00   0.347E-17 -.369E-20 -.381E-02   -.430E-07 -.260E-07 -.138E-03
   0.327E-04 0.232E-04 0.154E+00   -.317E-03 -.187E-03 -.154E+00   -.546E-20 0.347E-17 0.381E-02   0.430E-07 0.260E-07 0.138E-03
   -.300E-04 -.279E-04 0.159E+03   -.144E-03 -.795E-04 -.154E+03   0.561E-16 -.120E-16 -.523E+01   0.267E-07 0.253E-08 -.165E-01
   0.300E-04 0.279E-04 -.159E+03   0.144E-03 0.795E-04 0.154E+03   -.699E-16 0.259E-16 0.523E+01   -.267E-07 -.253E-08 0.165E-01
   -.360E+01 0.619E-02 -.342E+03   -.184E+00 -.940E-02 0.347E+03   0.377E+01 0.258E-02 -.465E+01   0.941E-02 -.841E-04 0.353E-01
   0.180E+01 0.311E+01 -.342E+03   0.835E-01 0.164E+00 0.347E+03   -.188E+01 -.327E+01 -.465E+01   -.478E-02 -.811E-02 0.353E-01
   0.179E+01 -.312E+01 -.342E+03   0.100E+00 -.155E+00 0.347E+03   -.189E+01 0.326E+01 -.465E+01   -.463E-02 0.819E-02 0.353E-01
   0.360E+01 -.619E-02 0.342E+03   0.184E+00 0.940E-02 -.347E+03   -.377E+01 -.258E-02 0.465E+01   -.941E-02 0.841E-04 -.353E-01
   -.180E+01 -.311E+01 0.342E+03   -.835E-01 -.164E+00 -.347E+03   0.188E+01 0.327E+01 0.465E+01   0.478E-02 0.811E-02 -.353E-01
   -.179E+01 0.312E+01 0.342E+03   -.100E+00 0.155E+00 -.347E+03   0.189E+01 -.326E+01 0.465E+01   0.463E-02 -.819E-02 -.353E-01
 -----------------------------------------------------------------------------------------------
   0.827E-10 0.699E-10 -.137E-09   0.182E-13 -.305E-14 0.114E-12   -.444E-15 0.000E+00 0.000E+00   0.122E-12 -.515E-12 0.850E-11


 POSITION                                       TOTAL-FORCE (eV/Angst)
 -----------------------------------------------------------------------------------
      3.40977      1.96863     11.05866         0.000000      0.000000     -0.003359
      6.81955      3.93727     11.05710        -0.000000      0.000000      0.003359
     -0.00000      0.00000      9.91264        -0.000000      0.000000      0.049847
     -0.00000      0.00000     12.20312         0.000000     -0.000000     -0.049847
      4.33702     -0.00036     12.79445         0.000385     -0.000139     -0.009851
      1.24095      2.15012     12.79445        -0.000313     -0.000264     -0.009851
      4.65136      3.75615     12.79445        -0.000072      0.000403     -0.009851
      2.48253      0.00036      9.32131        -0.000385      0.000139      0.009851
      2.16882      3.75578      9.32131         0.000313      0.000264      0.009851
      5.57796      2.14975      9.32131         0.000072     -0.000403      0.009851
 -----------------------------------------------------------------------------------
    total drift:                                0.000000      0.000000     -0.000000


--------------------------------------------------------------------------------------------------------



  FREE ENERGIE OF THE ION-ELECTRON SYSTEM (eV)
  ---------------------------------------------------
  free  energy   TOTEN  =       -44.06274599 eV

  energy  without entropy=      -44.06274599  energy(sigma->0) =      -44.06274599

 d Force = 0.1563307E-03[ 0.962E-04, 0.216E-03]  d Energy = 0.1262094E-03 0.301E-04
 d Force =-0.3370449E+01[-0.337E+01,-0.337E+01]  d Ewald  =-0.4225144E+01 0.855E+00


--------------------------------------------------------------------------------------------------------


    POTLOK:  cpu time   40.3400: real time   59.6343


--------------------------------------------------------------------------------------------------------




--------------------------------------------------------------------------------------------------------


  
 reached required accuracy - stopping structural energy minimisation
     LOOP+:  cpu time  227.4920: real time  337.8067
    4ORBIT:  cpu time    0.0000: real time    0.0000



 total charge     

# of ion       s       p       d       tot
------------------------------------------
    1        0.330   0.402   4.237   4.969
    2        0.330   0.402   4.237   4.969
    3        0.778   0.845   0.000   1.623
    4        0.778   0.845   0.000   1.623
    5        1.387   1.991   0.035   3.414
    6        1.381   1.994   0.035   3.410
    7        1.386   1.990   0.035   3.411
    8        1.387   1.991   0.035   3.414
    9        1.381   1.994   0.035   3.410
   10        1.386   1.990   0.035   3.411
--------------------------------------------------
tot         10.524  14.445   8.686  33.654



 magnetization (x)

# of ion       s       p       d       tot
------------------------------------------
    1        0.042   0.046   3.050   3.138
    2        0.042   0.046   3.050   3.138
    3        0.003   0.026   0.000   0.029
    4        0.003   0.026   0.000   0.029
    5       -0.001  -0.100   0.005  -0.097
    6       -0.002  -0.083   0.005  -0.080
    7       -0.001  -0.095   0.005  -0.092
    8       -0.001  -0.100   0.005  -0.097
    9       -0.002  -0.083   0.005  -0.080
   10       -0.001  -0.095   0.005  -0.092
--------------------------------------------------
tot          0.080  -0.412   6.130   5.799

 BZINTS: Fermi energy: -1.894424; 56.000000 electrons
         Band energy:-359.531108;  BLOECHL correction:  0.000000

 total amount of memory used by VASP MPI-rank0   114493. kBytes
=======================================================================

   base      :      30000. kBytes
   nonlr-proj:       7947. kBytes
   fftplans  :       8558. kBytes
   grid      :      59268. kBytes
   one-center:        311. kBytes
   wavefun   :       8409. kBytes

  
  
 General timing and accounting informations for this job:
 ========================================================
  
                  Total CPU time used (sec):    10797.120
                            User time (sec):     9777.248
                          System time (sec):     1019.872
                         Elapsed time (sec):    16295.830
  
                   Maximum memory used (kb):      328428.
                   Average memory used (kb):           0.
  
                          Minor page faults:      8716028
                          Major page faults:            9
                 Voluntary context switches:         1287
