PROCAR lm decomposed
# of k-points:    5         # of bands:   48         # of ions:   10

 k-point     1 :    0.00000000 0.00000000 0.00000000     weight = 0.04000000

band     1 # energy  -14.39968032 # occ.  1.00000000

ion      s     py     pz     px    dxy    dyz    dz2    dxz  x2-y2    tot
    1  0.015  0.000  0.000  0.000  0.000  0.000  0.000  0.000  0.000  0.015
    2  0.015  0.000  0.000  0.000  0.000  0.000  0.000  0.000  0.000  0.015
    3  0.047  0.000  0.000  0.000  0.000  0.000  0.000  0.000  0.000  0.048
    4  0.047  0.000  0.000  0.000  0.000  0.000  0.000  0.000  0.000  0.048
    5  0.077  0.000  0.001  0.001  0.000  0.000  0.000  0.000  0.000  0.078
    6  0.077  0.000  0.001  0.000  0.000  0.000  0.000  0.000  0.000  0.078
    7  0.077  0.000  0.001  0.000  0.000  0.000  0.000  0.000  0.000  0.078
    8  0.077  0.000  0.001  0.001  0.000  0.000  0.000  0.000  0.000  0.078
    9  0.077  0.000  0.001  0.000  0.000  0.000  0.000  0.000  0.000  0.078
   10  0.077  0.000  0.001  0.000  0.000  0.000  0.000  0.000  0.000  0.078
tot    0.584  0.002  0.005  0.002  0.000  0.000  0.000  0.000  0.000  0.593

band     2 # energy  -13.50298901 # occ.  1.00000000

ion      s     py     pz     px    dxy    dyz    dz2    dxz  x2-y2    tot
    1  0.000  0.000  0.006  0.000  0.000  0.000  0.000  0.000  0.000  0.006
    2  0.000  0.000  0.006  0.000  0.000  0.000  0.000  0.000  0.000  0.006
    3  0.026  0.000  0.002  0.000  0.000  0.000  0.000  0.000  0.000  0.028
    4  0.026  0.000  0.002  0.000  0.000  0.000  0.000  0.000  0.000  0.028
    5  0.095  0.000  0.000  0.001  0.000  0.000  0.000  0.000  0.000  0.096
    6  0.095  0.000  0.000  0.000  0.000  0.000  0.000  0.000  0.000  0.096
    7  0.095  0.000  0.000  0.000  0.000  0.000  0.000  0.000  0.000  0.096
    8  0.095  0.000  0.000  0.001  0.000  0.000  0.000  0.000  0.000  0.096
    9  0.095  0.000  0.000  0.000  0.000  0.000  0.000  0.000  0.000  0.096
   10  0.095  0.000  0.000  0.000  0.000  0.000  0.000  0.000  0.000  0.096
tot    0.623  0.002  0.017  0.002  0.000  0.000  0.001  0.000  0.000  0.644

band     3 # energy  -12.43201158 # occ.  1.00000000

ion      s     py     pz     px    dxy    dyz    dz2    dxz  x2-y2    tot
    1  0.000  0.000  0.000  0.002  0.002  0.006  0.000  0.000  0.000  0.010
    2  0.000  0.000  0.000  0.002  0.002  0.006  0.000  0.000  0.000  0.010
    3  0.000  0.000  0.000  0.008  0.000  0.000  0.000  0.000  0.000  0.009
    4  0.000  0.000  0.000  0.008  0.000  0.000  0.000  0.000  0.000  0.009
    5  0.219  0.000  0.001  0.001  0.000  0.000  0.000  0.000  0.000  0.221
    6  0.080  0.000  0.000  0.000  0.000  0.000  0.000  0.000  0.000  0.081
    7  0.034  0.000  0.000  0.000  0.000  0.000  0.000  0.000  0.000  0.034
    8  0.219  0.000  0.001  0.001  0.000  0.000  0.000  0.000  0.000  0.221
    9  0.080  0.000  0.000  0.000  0.000  0.000  0.000  0.000  0.000  0.081
   10  0.034  0.000  0.000  0.000  0.000  0.000  0.000  0.000  0.000  0.034
tot    0.667  0.001  0.002  0.023  0.005  0.013  0.000  0.000  0.000  0.711

band     4 # energy  -12.43197935 # occ.  1.00000000

ion      s     py     pz     px    dxy    dyz    dz2    dxz  x2-y2    tot
    1  0.000  0.002  0.000  0.000  0.000  0.000  0.000  0.006  0.002  0.010
    2  0.000  0.002  0.000  0.000  0.000  0.000  0.000  0.006  0.002  0.010
    3  0.000  0.008  0.000  0.000  0.000  0.000  0.000  0.000  0.000  0.009
    4  0.000  0.008  0.000  0.000  0.000  0.000  0.000  0.000  0.000  0.009
    5  0.003  0.000  0.000  0.000  0.000  0.000  0.000  0.000  0.000  0.003
    6  0.142  0.001  0.000  0.000  0.000  0.000  0.000  0.000  0.000  0.143
    7  0.188  0.001  0.001  0.000  0.000  0.000  0.000  0.000  0.000  0.190
    8  0.003  0.000  0.000  0.000  0.000  0.000  0.000  0.000  0.000  0.003
    9  0.142  0.001  0.000  0.000  0.000  0.000  0.000  0.000  0.000  0.143
   10  0.188  0.001  0.001  0.000  0.000  0.000  0.000  0.000  0.000  0.190
tot    0.667  0.023  0.002  0.001  0.000  0.000  0.000  0.013  0.005  0.711

band     5 # energy  -12.43107787 # occ.  1.00000000

ion      s     py     pz     px    dxy    dyz    dz2    dxz  x2-y2    tot
    1  0.000  0.006  0.000  0.001  0.000  0.000  0.000  0.001  0.001  0.010
    2  0.000  0.006  0.000  0.001  0.000  0.000  0.000  0.001  0.001  0.010
    3  0.000  0.000  0.000  0.005  0.000  0.000  0.000  0.000  0.000  0.005
    4  0.000  0.000  0.000  0.005  0.000  0.000  0.000  0.000  0.000  0.005
    5  0.209  0.000  0.001  0.000  0.000  0.000  0.000  0.000  0.000  0.210
    6  0.119  0.000  0.000  0.000  0.000  0.000  0.000  0.000  0.000  0.119
    7  0.013  0.000  0.000  0.000  0.000  0.000  0.000  0.000  0.000  0.013
    8  0.209  0.000  0.001  0.000  0.000  0.000  0.000  0.000  0.000  0.210
    9  0.119  0.000  0.000  0.000  0.000  0.000  0.000  0.000  0.000  0.119
   10  0.013  0.000  0.000  0.000  0.000  0.000  0.000  0.000  0.000  0.013
tot    0.681  0.013  0.003  0.012  0.000  0.000  0.000  0.003  0.003  0.715

band     6 # energy  -12.43105149 # occ.  1.00000000

ion      s     py     pz     px    dxy    dyz    dz2    dxz  x2-y2    tot
    1  0.000  0.001  0.000  0.006  0.001  0.001  0.000  0.000  0.000  0.010
    2  0.000  0.001  0.000  0.006  0.001  0.001  0.000  0.000  0.000  0.010
    3  0.000  0.005  0.000  0.000  0.000  0.000  0.000  0.000  0.000  0.005
    4  0.000  0.005  0.000  0.000  0.000  0.000  0.000  0.000  0.000  0.005
    5  0.018  0.000  0.000  0.000  0.000  0.000  0.000  0.000  0.000  0.018
    6  0.108  0.000  0.000  0.000  0.000  0.000  0.000  0.000  0.000  0.109
    7  0.214  0.000  0.001  0.000  0.000  0.000  0.000  0.000  0.000  0.216
    8  0.018  0.000  0.000  0.000  0.000  0.000  0.000  0.000  0.000  0.018
    9  0.108  0.000  0.000  0.000  0.000  0.000  0.000  0.000  0.000  0.109
   10  0.214  0.000  0.001  0.000  0.000  0.000  0.000  0.000  0.000  0.216
tot    0.681  0.012  0.003  0.013  0.003  0.003  0.000  0.000  0.000  0.715

band     7 # energy  -10.19870455 # occ.  1.00000000

ion      s     py     pz     px    dxy    dyz    dz2    dxz  x2-y2    tot
    1  0.012  0.000  0.000  0.000  0.000  0.000  0.001  0.000  0.000  0.013
    2  0.012  0.000  0.000  0.000  0.000  0.000  0.001  0.000  0.000  0.013
    3  0.156  0.000  0.010  0.000  0.000  0.000  0.000  0.000  0.000  0.166
    4  0.156  0.000  0.010  0.000  0.000  0.000  0.000  0.000  0.000  0.166
    5  0.021  0.000  0.000  0.010  0.000  0.000  0.000  0.000  0.001  0.032
    6  0.021  0.008  0.000  0.003  0.000  0.000  0.000  0.000  0.000  0.032
    7  0.021  0.008  0.000  0.003  0.000  0.000  0.000  0.000  0.000  0.032
    8  0.021  0.000  0.000  0.010  0.000  0.000  0.000  0.000  0.001  0.032
    9  0.021  0.008  0.000  0.003  0.000  0.000  0.000  0.000  0.000  0.032
   10  0.021  0.008  0.000  0.003  0.000  0.000  0.000  0.000  0.000  0.032
tot    0.460  0.031  0.022  0.031  0.002  0.001  0.002  0.001  0.002  0.551

band     8 # energy   -8.02486632 # occ.  1.00000000

ion      s     py     pz     px    dxy    dyz    dz2    dxz  x2-y2    tot
    1  0.000  0.000  0.007  0.000  0.000  0.000  0.000  0.000  0.000  0.007
    2  0.000  0.000  0.007  0.000  0.000  0.000  0.000  0.000  0.000  0.007
    3  0.141  0.000  0.010  0.000  0.000  0.000  0.000  0.000  0.000  0.151
    4  0.141  0.000  0.010  0.000  0.000  0.000  0.000  0.000  0.000  0.151
    5  0.012  0.000  0.000  0.025  0.000  0.000  0.000  0.000  0.001  0.038
    6  0.012  0.019  0.000  0.006  0.001  0.000  0.000  0.000  0.000  0.038
    7  0.012  0.019  0.000  0.006  0.001  0.000  0.000  0.000  0.000  0.038
    8  0.012  0.000  0.000  0.025  0.000  0.000  0.000  0.000  0.001  0.038
    9  0.012  0.019  0.000  0.006  0.001  0.000  0.000  0.000  0.000  0.038
   10  0.012  0.019  0.000  0.006  0.001  0.000  0.000  0.000  0.000  0.038
tot    0.353  0.075  0.035  0.075  0.004  0.000  0.001  0.000  0.004  0.546

band     9 # energy   -6.39774377 # occ.  1.00000000

ion      s     py     pz     px    dxy    dyz    dz2    dxz  x2-y2    tot
    1  0.000  0.002  0.000  0.002  0.002  0.019  0.000  0.019  0.002  0.046
    2  0.000  0.002  0.000  0.002  0.002  0.019  0.000  0.019  0.002  0.046
    3  0.000  0.020  0.000  0.020  0.000  0.000  0.000  0.000  0.000  0.040
    4  0.000  0.020  0.000  0.020  0.000  0.000  0.000  0.000  0.000  0.040
    5  0.004  0.010  0.002  0.030  0.000  0.000  0.000  0.000  0.000  0.047
    6  0.008  0.051  0.004  0.008  0.000  0.001  0.000  0.000  0.000  0.070
    7  0.001  0.000  0.000  0.023  0.000  0.000  0.000  0.000  0.000  0.025
    8  0.004  0.010  0.002  0.030  0.000  0.000  0.000  0.000  0.000  0.047
    9  0.008  0.051  0.004  0.008  0.000  0.001  0.000  0.000  0.000  0.070
   10  0.001  0.000  0.000  0.023  0.000  0.000  0.000  0.000  0.000  0.025
tot    0.025  0.166  0.012  0.166  0.005  0.039  0.000  0.040  0.005  0.457

band    10 # energy   -6.39772572 # occ.  1.00000000

ion      s     py     pz     px    dxy    dyz    dz2    dxz  x2-y2    tot
    1  0.000  0.002  0.000  0.002  0.002  0.019  0.000  0.019  0.002  0.046
    2  0.000  0.002  0.000  0.002  0.002  0.019  0.000  0.019  0.002  0.046
    3  0.000  0.020  0.000  0.020  0.000  0.000  0.000  0.000  0.000  0.040
    4  0.000  0.020  0.000  0.020  0.000  0.000  0.000  0.000  0.000  0.040
    5  0.004  0.010  0.002  0.030  0.000  0.000  0.000  0.000  0.000  0.047
    6  0.001  0.000  0.000  0.023  0.000  0.000  0.000  0.000  0.000  0.025
    7  0.008  0.051  0.004  0.008  0.000  0.001  0.000  0.000  0.000  0.070
    8  0.004  0.010  0.002  0.030  0.000  0.000  0.000  0.000  0.000  0.047
    9  0.001  0.000  0.000  0.023  0.000  0.000  0.000  0.000  0.000  0.025
   10  0.008  0.051  0.004  0.008  0.000  0.001  0.000  0.000  0.000  0.070
tot    0.025  0.166  0.012  0.166  0.005  0.040  0.000  0.039  0.005  0.457

band    11 # energy   -6.33897717 # occ.  1.00000000

ion      s     py     pz     px    dxy    dyz    dz2    dxz  x2-y2    tot
    1  0.045  0.000  0.000  0.000  0.000  0.000  0.012  0.000  0.000  0.057
    2  0.045  0.000  0.000  0.000  0.000  0.000  0.012  0.000  0.000  0.057
    3  0.001  0.000  0.037  0.000  0.000  0.000  0.000  0.000  0.000  0.037
    4  0.001  0.000  0.037  0.000  0.000  0.000  0.000  0.000  0.000  0.037
    5  0.003  0.000  0.031  0.008  0.000  0.000  0.000  0.000  0.000  0.043
    6  0.003  0.006  0.031  0.002  0.000  0.000  0.000  0.000  0.000  0.043
    7  0.003  0.006  0.031  0.002  0.000  0.000  0.000  0.000  0.000  0.043
    8  0.003  0.000  0.031  0.008  0.000  0.000  0.000  0.000  0.000  0.043
    9  0.003  0.006  0.031  0.002  0.000  0.000  0.000  0.000  0.000  0.043
   10  0.003  0.006  0.031  0.002  0.000  0.000  0.000  0.000  0.000  0.043
tot    0.112  0.023  0.259  0.023  0.001  0.000  0.027  0.000  0.001  0.445

band    12 # energy   -6.26446922 # occ.  1.00000000

ion      s     py     pz     px    dxy    dyz    dz2    dxz  x2-y2    tot
    1  0.081  0.000  0.000  0.000  0.000  0.000  0.023  0.000  0.000  0.105
    2  0.081  0.000  0.000  0.000  0.000  0.000  0.023  0.000  0.000  0.105
    3  0.000  0.000  0.000  0.000  0.000  0.000  0.000  0.000  0.000  0.000
    4  0.000  0.000  0.000  0.000  0.000  0.000  0.000  0.000  0.000  0.000
    5  0.000  0.049  0.000  0.000  0.000  0.000  0.000  0.000  0.000  0.050
    6  0.000  0.012  0.000  0.037  0.000  0.000  0.000  0.000  0.000  0.050
    7  0.000  0.012  0.000  0.037  0.000  0.000  0.000  0.000  0.000  0.050
    8  0.000  0.049  0.000  0.000  0.000  0.000  0.000  0.000  0.000  0.050
    9  0.000  0.012  0.000  0.037  0.000  0.000  0.000  0.000  0.000  0.050
   10  0.000  0.012  0.000  0.037  0.000  0.000  0.000  0.000  0.000  0.050
tot    0.163  0.147  0.000  0.147  0.001  0.001  0.046  0.001  0.001  0.509

band    13 # energy   -5.93602693 # occ.  1.00000000

ion      s     py     pz     px    dxy    dyz    dz2    dxz  x2-y2    tot
    1  0.000  0.014  0.000  0.003  0.002  0.002  0.000  0.013  0.010  0.043
    2  0.000  0.014  0.000  0.003  0.002  0.002  0.000  0.013  0.010  0.043
    3  0.000  0.004  0.000  0.024  0.000  0.000  0.000  0.000  0.000  0.028
    4  0.000  0.004  0.000  0.024  0.000  0.000  0.000  0.000  0.000  0.028
    5  0.000  0.004  0.004  0.062  0.000  0.000  0.000  0.000  0.000  0.071
    6  0.000  0.055  0.003  0.001  0.000  0.000  0.000  0.000  0.000  0.060
    7  0.000  0.011  0.000  0.014  0.000  0.000  0.000  0.000  0.000  0.025
    8  0.000  0.004  0.004  0.062  0.000  0.000  0.000  0.000  0.000  0.071
    9  0.000  0.055  0.003  0.001  0.000  0.000  0.000  0.000  0.000  0.060
   10  0.000  0.011  0.000  0.014  0.000  0.000  0.000  0.000  0.000  0.025
tot    0.000  0.176  0.015  0.205  0.004  0.005  0.002  0.026  0.020  0.454

band    14 # energy   -5.93600845 # occ.  1.00000000

ion      s     py     pz     px    dxy    dyz    dz2    dxz  x2-y2    tot
    1  0.000  0.003  0.000  0.014  0.010  0.013  0.000  0.002  0.002  0.043
    2  0.000  0.003  0.000  0.014  0.010  0.013  0.000  0.002  0.002  0.043
    3  0.000  0.024  0.000  0.004  0.000  0.000  0.000  0.000  0.000  0.028
    4  0.000  0.024  0.000  0.004  0.000  0.000  0.000  0.000  0.000  0.028
    5  0.000  0.020  0.001  0.012  0.000  0.000  0.000  0.000  0.000  0.033
    6  0.000  0.006  0.002  0.035  0.000  0.000  0.000  0.000  0.000  0.044
    7  0.000  0.050  0.005  0.022  0.000  0.000  0.001  0.000  0.000  0.079
    8  0.000  0.020  0.001  0.012  0.000  0.000  0.000  0.000  0.000  0.033
    9  0.000  0.006  0.002  0.035  0.000  0.000  0.000  0.000  0.000  0.044
   10  0.000  0.050  0.005  0.022  0.000  0.000  0.001  0.000  0.000  0.079
tot    0.000  0.205  0.015  0.176  0.020  0.026  0.002  0.005  0.004  0.454

band    15 # energy   -4.99621119 # occ.  1.00000000

ion      s     py     pz     px    dxy    dyz    dz2    dxz  x2-y2    tot
    1  0.000  0.000  0.043  0.000  0.000  0.000  0.000  0.000  0.000  0.043
    2  0.000  0.000  0.043  0.000  0.000  0.000  0.000  0.000  0.000  0.043
    3  0.000  0.000  0.000  0.000  0.000  0.000  0.000  0.000  0.000  0.000
    4  0.000  0.000  0.000  0.000  0.000  0.000  0.000  0.000  0.000  0.000
    5  0.000  0.063  0.000  0.000  0.000  0.000  0.000  0.000  0.000  0.064
    6  0.000  0.016  0.000  0.048  0.000  0.000  0.000  0.000  0.000  0.064
    7  0.000  0.016  0.000  0.048  0.000  0.000  0.000  0.000  0.000  0.064
    8  0.000  0.063  0.000  0.000  0.000  0.000  0.000  0.000  0.000  0.064
    9  0.000  0.016  0.000  0.048  0.000  0.000  0.000  0.000  0.000  0.064
   10  0.000  0.016  0.000  0.048  0.000  0.000  0.000  0.000  0.000  0.064
tot    0.000  0.190  0.085  0.190  0.001  0.000  0.000  0.000  0.001  0.469

band    16 # energy   -4.21055631 # occ.  1.00000000

ion      s     py     pz     px    dxy    dyz    dz2    dxz  x2-y2    tot
    1  0.000  0.001  0.000  0.000  0.004  0.003  0.000  0.103  0.144  0.255
    2  0.000  0.001  0.000  0.000  0.004  0.003  0.000  0.103  0.144  0.255
    3  0.000  0.000  0.000  0.000  0.000  0.000  0.000  0.000  0.000  0.000
    4  0.000  0.000  0.000  0.000  0.000  0.000  0.000  0.000  0.000  0.000
    5  0.002  0.001  0.034  0.003  0.000  0.000  0.000  0.000  0.000  0.041
    6  0.001  0.002  0.014  0.021  0.000  0.000  0.000  0.001  0.000  0.038
    7  0.000  0.005  0.004  0.027  0.000  0.000  0.000  0.001  0.000  0.037
    8  0.002  0.001  0.034  0.003  0.000  0.000  0.000  0.000  0.000  0.041
    9  0.001  0.002  0.014  0.021  0.000  0.000  0.000  0.001  0.000  0.038
   10  0.000  0.005  0.004  0.027  0.000  0.000  0.000  0.001  0.000  0.037
tot    0.006  0.019  0.106  0.100  0.008  0.006  0.001  0.209  0.288  0.744

band    17 # energy   -4.21054537 # occ.  1.00000000

ion      s     py     pz     px    dxy    dyz    dz2    dxz  x2-y2    tot
    1  0.000  0.000  0.000  0.001  0.144  0.103  0.000  0.003  0.004  0.255
    2  0.000  0.000  0.000  0.001  0.144  0.103  0.000  0.003  0.004  0.255
    3  0.000  0.000  0.000  0.000  0.000  0.000  0.000  0.000  0.000  0.000
    4  0.000  0.000  0.000  0.000  0.000  0.000  0.000  0.000  0.000  0.000
    5  0.000  0.035  0.001  0.000  0.000  0.001  0.000  0.000  0.000  0.037
    6  0.001  0.009  0.021  0.007  0.000  0.000  0.000  0.000  0.000  0.039
    7  0.002  0.006  0.031  0.001  0.000  0.000  0.000  0.000  0.000  0.040
    8  0.000  0.035  0.001  0.000  0.000  0.001  0.000  0.000  0.000  0.037
    9  0.001  0.009  0.021  0.007  0.000  0.000  0.000  0.000  0.000  0.039
   10  0.002  0.006  0.031  0.001  0.000  0.000  0.000  0.000  0.000  0.040
tot    0.006  0.100  0.106  0.019  0.288  0.209  0.001  0.006  0.008  0.744

band    18 # energy   -4.02444017 # occ.  1.00000000

ion      s     py     pz     px    dxy    dyz    dz2    dxz  x2-y2    tot
    1  0.000  0.000  0.000  0.001  0.088  0.088  0.000  0.013  0.013  0.204
    2  0.000  0.000  0.000  0.001  0.088  0.088  0.000  0.013  0.013  0.204
    3  0.000  0.000  0.000  0.001  0.000  0.000  0.000  0.000  0.000  0.001
    4  0.000  0.000  0.000  0.001  0.000  0.000  0.000  0.000  0.000  0.001
    5  0.005  0.001  0.068  0.002  0.000  0.000  0.000  0.000  0.000  0.076
    6  0.004  0.003  0.048  0.000  0.000  0.000  0.000  0.000  0.000  0.055
    7  0.000  0.002  0.002  0.003  0.000  0.000  0.000  0.000  0.000  0.007
    8  0.005  0.001  0.068  0.002  0.000  0.000  0.000  0.000  0.000  0.076
    9  0.004  0.003  0.048  0.000  0.000  0.000  0.000  0.000  0.000  0.055
   10  0.000  0.002  0.002  0.003  0.000  0.000  0.000  0.000  0.000  0.007
tot    0.018  0.011  0.236  0.014  0.177  0.177  0.000  0.027  0.027  0.686

band    19 # energy   -4.02442748 # occ.  1.00000000

ion      s     py     pz     px    dxy    dyz    dz2    dxz  x2-y2    tot
    1  0.000  0.001  0.000  0.000  0.013  0.013  0.000  0.088  0.088  0.204
    2  0.000  0.001  0.000  0.000  0.013  0.013  0.000  0.088  0.088  0.204
    3  0.000  0.001  0.000  0.000  0.000  0.000  0.000  0.000  0.000  0.001
    4  0.000  0.001  0.000  0.000  0.000  0.000  0.000  0.000  0.000  0.001
    5  0.001  0.004  0.010  0.000  0.000  0.000  0.000  0.000  0.000  0.016
    6  0.002  0.000  0.031  0.004  0.000  0.000  0.000  0.000  0.000  0.037
    7  0.006  0.001  0.077  0.001  0.000  0.000  0.000  0.000  0.000  0.085
    8  0.001  0.004  0.010  0.000  0.000  0.000  0.000  0.000  0.000  0.016
    9  0.002  0.000  0.031  0.004  0.000  0.000  0.000  0.000  0.000  0.037
   10  0.006  0.001  0.077  0.001  0.000  0.000  0.000  0.000  0.000  0.085
tot    0.018  0.014  0.236  0.011  0.027  0.027  0.000  0.177  0.177  0.686

band    20 # energy   -4.00437064 # occ.  1.00000000

ion      s     py     pz     px    dxy    dyz    dz2    dxz  x2-y2    tot
    1  0.002  0.000  0.000  0.000  0.000  0.000  0.176  0.000  0.000  0.178
    2  0.002  0.000  0.000  0.000  0.000  0.000  0.176  0.000  0.000  0.178
    3  0.004  0.000  0.067  0.000  0.000  0.000  0.000  0.000  0.000  0.071
    4  0.004  0.000  0.067  0.000  0.000  0.000  0.000  0.000  0.000  0.071
    5  0.000  0.000  0.007  0.013  0.000  0.000  0.000  0.000  0.000  0.020
    6  0.000  0.009  0.007  0.003  0.000  0.000  0.000  0.000  0.000  0.020
    7  0.000  0.010  0.007  0.003  0.000  0.000  0.000  0.000  0.000  0.020
    8  0.000  0.000  0.007  0.013  0.000  0.000  0.000  0.000  0.000  0.020
    9  0.000  0.009  0.007  0.003  0.000  0.000  0.000  0.000  0.000  0.020
   10  0.000  0.010  0.007  0.003  0.000  0.000  0.000  0.000  0.000  0.020
tot    0.011  0.038  0.175  0.038  0.001  0.001  0.353  0.001  0.001  0.620

band    21 # energy   -3.34498080 # occ.  1.00000000

ion      s     py     pz     px    dxy    dyz    dz2    dxz  x2-y2    tot
    1  0.000  0.000  0.015  0.000  0.000  0.000  0.000  0.000  0.000  0.015
    2  0.000  0.000  0.015  0.000  0.000  0.000  0.000  0.000  0.000  0.015
    3  0.002  0.000  0.004  0.000  0.000  0.000  0.000  0.000  0.000  0.007
    4  0.002  0.000  0.004  0.000  0.000  0.000  0.000  0.000  0.000  0.007
    5  0.000  0.000  0.066  0.000  0.000  0.000  0.000  0.000  0.000  0.067
    6  0.000  0.000  0.066  0.000  0.000  0.000  0.000  0.000  0.000  0.067
    7  0.000  0.000  0.066  0.000  0.000  0.000  0.000  0.000  0.000  0.067
    8  0.000  0.000  0.066  0.000  0.000  0.000  0.000  0.000  0.000  0.067
    9  0.000  0.000  0.066  0.000  0.000  0.000  0.000  0.000  0.000  0.067
   10  0.000  0.000  0.066  0.000  0.000  0.000  0.000  0.000  0.000  0.067
tot    0.005  0.001  0.436  0.001  0.000  0.000  0.000  0.000  0.000  0.444

band    22 # energy   -3.28908768 # occ.  1.00000000

ion      s     py     pz     px    dxy    dyz    dz2    dxz  x2-y2    tot
    1  0.000  0.011  0.000  0.000  0.000  0.000  0.000  0.078  0.001  0.090
    2  0.000  0.011  0.000  0.000  0.000  0.000  0.000  0.078  0.001  0.090
    3  0.000  0.000  0.000  0.019  0.000  0.000  0.000  0.000  0.000  0.019
    4  0.000  0.000  0.000  0.019  0.000  0.000  0.000  0.000  0.000  0.019
    5  0.005  0.000  0.075  0.030  0.000  0.000  0.000  0.000  0.001  0.111
    6  0.001  0.001  0.022  0.017  0.000  0.000  0.000  0.000  0.000  0.042
    7  0.001  0.000  0.016  0.016  0.000  0.000  0.000  0.000  0.000  0.034
    8  0.005  0.000  0.075  0.030  0.000  0.000  0.000  0.000  0.001  0.111
    9  0.001  0.001  0.022  0.017  0.000  0.000  0.000  0.000  0.000  0.042
   10  0.001  0.000  0.016  0.016  0.000  0.000  0.000  0.000  0.000  0.034
tot    0.015  0.025  0.224  0.164  0.000  0.001  0.000  0.158  0.005  0.592

band    23 # energy   -3.28907636 # occ.  1.00000000

ion      s     py     pz     px    dxy    dyz    dz2    dxz  x2-y2    tot
    1  0.000  0.000  0.000  0.011  0.001  0.078  0.000  0.000  0.000  0.090
    2  0.000  0.000  0.000  0.011  0.001  0.078  0.000  0.000  0.000  0.090
    3  0.000  0.019  0.000  0.000  0.000  0.000  0.000  0.000  0.000  0.019
    4  0.000  0.019  0.000  0.000  0.000  0.000  0.000  0.000  0.000  0.019
    5  0.000  0.013  0.000  0.000  0.000  0.001  0.000  0.000  0.000  0.014
    6  0.004  0.025  0.053  0.000  0.001  0.000  0.000  0.000  0.000  0.083
    7  0.004  0.026  0.059  0.001  0.001  0.000  0.000  0.000  0.000  0.091
    8  0.000  0.013  0.000  0.000  0.000  0.001  0.000  0.000  0.000  0.014
    9  0.004  0.025  0.053  0.000  0.001  0.000  0.000  0.000  0.000  0.083
   10  0.004  0.026  0.059  0.001  0.001  0.000  0.000  0.000  0.000  0.091
tot    0.015  0.164  0.224  0.025  0.005  0.158  0.000  0.001  0.000  0.592

band    24 # energy   -3.03342043 # occ.  1.00000000

ion      s     py     pz     px    dxy    dyz    dz2    dxz  x2-y2    tot
    1  0.000  0.002  0.000  0.005  0.141  0.113  0.000  0.052  0.065  0.379
    2  0.000  0.002  0.000  0.005  0.141  0.113  0.000  0.052  0.065  0.379
    3  0.000  0.001  0.000  0.000  0.000  0.000  0.000  0.000  0.000  0.001
    4  0.000  0.001  0.000  0.000  0.000  0.000  0.000  0.000  0.000  0.001
    5  0.000  0.002  0.006  0.000  0.001  0.000  0.000  0.000  0.000  0.009
    6  0.000  0.000  0.019  0.000  0.000  0.000  0.000  0.000  0.000  0.020
    7  0.000  0.000  0.004  0.002  0.001  0.000  0.000  0.000  0.000  0.007
    8  0.000  0.002  0.006  0.000  0.001  0.000  0.000  0.000  0.000  0.009
    9  0.000  0.000  0.019  0.000  0.000  0.000  0.000  0.000  0.000  0.020
   10  0.000  0.000  0.004  0.002  0.001  0.000  0.000  0.000  0.000  0.007
tot    0.001  0.011  0.057  0.014  0.286  0.227  0.000  0.105  0.131  0.832

band    25 # energy   -3.03341561 # occ.  1.00000000

ion      s     py     pz     px    dxy    dyz    dz2    dxz  x2-y2    tot
    1  0.000  0.005  0.000  0.002  0.065  0.052  0.000  0.113  0.141  0.379
    2  0.000  0.005  0.000  0.002  0.065  0.052  0.000  0.113  0.141  0.379
    3  0.000  0.000  0.000  0.001  0.000  0.000  0.000  0.000  0.000  0.001
    4  0.000  0.000  0.000  0.001  0.000  0.000  0.000  0.000  0.000  0.001
    5  0.000  0.001  0.013  0.000  0.000  0.000  0.000  0.000  0.000  0.015
    6  0.000  0.001  0.000  0.002  0.000  0.000  0.000  0.000  0.001  0.004
    7  0.000  0.000  0.015  0.000  0.000  0.000  0.000  0.000  0.000  0.017
    8  0.000  0.001  0.013  0.000  0.000  0.000  0.000  0.000  0.000  0.015
    9  0.000  0.001  0.000  0.002  0.000  0.000  0.000  0.000  0.001  0.004
   10  0.000  0.000  0.015  0.000  0.000  0.000  0.000  0.000  0.000  0.017
tot    0.001  0.014  0.057  0.011  0.131  0.105  0.000  0.227  0.286  0.832

band    26 # energy   -2.96459859 # occ.  1.00000000

ion      s     py     pz     px    dxy    dyz    dz2    dxz  x2-y2    tot
    1  0.013  0.000  0.000  0.000  0.000  0.000  0.431  0.000  0.000  0.445
    2  0.013  0.000  0.000  0.000  0.000  0.000  0.431  0.000  0.000  0.445
    3  0.000  0.000  0.000  0.000  0.000  0.000  0.000  0.000  0.000  0.000
    4  0.000  0.000  0.000  0.000  0.000  0.000  0.000  0.000  0.000  0.000
    5  0.000  0.002  0.000  0.000  0.000  0.000  0.000  0.000  0.000  0.002
    6  0.000  0.000  0.000  0.001  0.000  0.000  0.000  0.000  0.000  0.002
    7  0.000  0.000  0.000  0.001  0.000  0.000  0.000  0.000  0.000  0.002
    8  0.000  0.002  0.000  0.000  0.000  0.000  0.000  0.000  0.000  0.002
    9  0.000  0.000  0.000  0.001  0.000  0.000  0.000  0.000  0.000  0.002
   10  0.000  0.000  0.000  0.001  0.000  0.000  0.000  0.000  0.000  0.002
tot    0.027  0.006  0.000  0.006  0.000  0.001  0.862  0.001  0.000  0.904

band    27 # energy   -2.92536956 # occ.  1.00000000

ion      s     py     pz     px    dxy    dyz    dz2    dxz  x2-y2    tot
    1  0.000  0.000  0.000  0.000  0.240  0.112  0.000  0.017  0.037  0.407
    2  0.000  0.000  0.000  0.000  0.240  0.112  0.000  0.017  0.037  0.407
    3  0.000  0.002  0.000  0.011  0.000  0.000  0.000  0.000  0.000  0.013
    4  0.000  0.002  0.000  0.011  0.000  0.000  0.000  0.000  0.000  0.013
    5  0.002  0.000  0.004  0.005  0.000  0.000  0.000  0.000  0.000  0.012
    6  0.000  0.000  0.000  0.000  0.000  0.000  0.000  0.000  0.000  0.001
    7  0.001  0.002  0.003  0.001  0.000  0.000  0.000  0.000  0.000  0.008
    8  0.002  0.000  0.004  0.005  0.000  0.000  0.000  0.000  0.000  0.012
    9  0.000  0.000  0.000  0.000  0.000  0.000  0.000  0.000  0.000  0.001
   10  0.001  0.002  0.003  0.001  0.000  0.000  0.000  0.000  0.000  0.008
tot    0.007  0.008  0.013  0.036  0.481  0.224  0.002  0.035  0.074  0.880

band    28 # energy   -2.92536301 # occ.  1.00000000

ion      s     py     pz     px    dxy    dyz    dz2    dxz  x2-y2    tot
    1  0.000  0.000  0.000  0.000  0.037  0.017  0.000  0.112  0.240  0.407
    2  0.000  0.000  0.000  0.000  0.037  0.017  0.000  0.112  0.240  0.407
    3  0.000  0.011  0.000  0.002  0.000  0.000  0.000  0.000  0.000  0.013
    4  0.000  0.011  0.000  0.002  0.000  0.000  0.000  0.000  0.000  0.013
    5  0.000  0.000  0.001  0.001  0.000  0.000  0.000  0.000  0.000  0.002
    6  0.002  0.005  0.004  0.001  0.000  0.000  0.001  0.000  0.000  0.013
    7  0.001  0.002  0.002  0.000  0.000  0.000  0.000  0.000  0.000  0.005
    8  0.000  0.000  0.001  0.001  0.000  0.000  0.000  0.000  0.000  0.002
    9  0.002  0.005  0.004  0.001  0.000  0.000  0.001  0.000  0.000  0.013
   10  0.001  0.002  0.002  0.000  0.000  0.000  0.000  0.000  0.000  0.005
tot    0.007  0.036  0.013  0.008  0.074  0.035  0.002  0.224  0.481  0.880

band    29 # energy   -2.70622906 # occ.  1.00000000

ion      s     py     pz     px    dxy    dyz    dz2    dxz  x2-y2    tot
    1  0.013  0.000  0.000  0.000  0.000  0.000  0.247  0.000  0.000  0.260
    2  0.013  0.000  0.000  0.000  0.000  0.000  0.247  0.000  0.000  0.260
    3  0.000  0.000  0.040  0.000  0.000  0.000  0.000  0.000  0.000  0.041
    4  0.000  0.000  0.040  0.000  0.000  0.000  0.000  0.000  0.000  0.041
    5  0.002  0.000  0.014  0.003  0.000  0.000  0.001  0.000  0.000  0.020
    6  0.002  0.002  0.014  0.001  0.000  0.000  0.001  0.000  0.000  0.020
    7  0.002  0.002  0.014  0.001  0.000  0.000  0.001  0.000  0.000  0.020
    8  0.002  0.000  0.014  0.003  0.000  0.000  0.001  0.000  0.000  0.020
    9  0.002  0.002  0.014  0.001  0.000  0.000  0.001  0.000  0.000  0.020
   10  0.002  0.002  0.014  0.001  0.000  0.000  0.001  0.000  0.000  0.020
tot    0.036  0.010  0.167  0.010  0.000  0.001  0.498  0.001  0.000  0.722

band    30 # energy   -1.93313416 # occ.  1.00000000

ion      s     py     pz     px    dxy    dyz    dz2    dxz  x2-y2    tot
    1  0.000  0.002  0.000  0.023  0.014  0.000  0.000  0.000  0.001  0.040
    2  0.000  0.002  0.000  0.023  0.014  0.000  0.000  0.000  0.001  0.040
    3  0.000  0.001  0.000  0.011  0.000  0.000  0.000  0.000  0.000  0.012
    4  0.000  0.001  0.000  0.011  0.000  0.000  0.000  0.000  0.000  0.012
    5  0.002  0.010  0.007  0.037  0.000  0.000  0.000  0.000  0.002  0.058
    6  0.000  0.016  0.000  0.096  0.000  0.000  0.000  0.000  0.000  0.113
    7  0.001  0.000  0.004  0.075  0.001  0.000  0.000  0.000  0.000  0.082
    8  0.002  0.010  0.007  0.037  0.000  0.000  0.000  0.000  0.002  0.058
    9  0.000  0.016  0.000  0.096  0.000  0.000  0.000  0.000  0.000  0.113
   10  0.001  0.000  0.004  0.075  0.001  0.000  0.000  0.000  0.000  0.082
tot    0.005  0.059  0.024  0.485  0.029  0.000  0.001  0.001  0.006  0.611

band    31 # energy   -1.93310718 # occ.  1.00000000

ion      s     py     pz     px    dxy    dyz    dz2    dxz  x2-y2    tot
    1  0.000  0.023  0.000  0.002  0.001  0.000  0.000  0.000  0.014  0.040
    2  0.000  0.023  0.000  0.002  0.001  0.000  0.000  0.000  0.014  0.040
    3  0.000  0.011  0.000  0.001  0.000  0.000  0.000  0.000  0.000  0.012
    4  0.000  0.011  0.000  0.001  0.000  0.000  0.000  0.000  0.000  0.012
    5  0.000  0.106  0.001  0.004  0.000  0.000  0.000  0.000  0.000  0.111
    6  0.002  0.044  0.008  0.001  0.001  0.000  0.000  0.000  0.000  0.056
    7  0.001  0.059  0.004  0.022  0.001  0.000  0.000  0.000  0.000  0.087
    8  0.000  0.106  0.001  0.004  0.000  0.000  0.000  0.000  0.000  0.111
    9  0.002  0.044  0.008  0.001  0.001  0.000  0.000  0.000  0.000  0.056