<?xml version="1.0" encoding="ISO-8859-1"?>
<modeling>
 <generator>
  <i name="program" type="string">vasp </i>
  <i name="version" type="string">5.4.4.18Apr17-6-g9f103f2a35  </i>
  <i name="subversion" type="string">(build May  1 2020 15:48:39) complex            parallel </i>
  <i name="platform" type="string">LinuxGNU </i>
  <i name="date" type="string">2020 06 13 </i>
  <i name="time" type="string">18:31:04 </i>
 </generator>
 <incar>
  <i type="int" name="ISTART">     1</i>
  <i type="string" name="PREC">accurate</i>
  <i type="string" name="ALGO"> Normal</i>
  <i type="int" name="ISPIN">     2</i>
  <i name="AMIN">      0.01000000</i>
  <i type="int" name="NELM">   400</i>
  <i type="int" name="IBRION">     2</i>
  <i name="EDIFF">      0.00010000</i>
  <i type="int" name="NSW">    99</i>
  <i type="int" name="ISIF">     3</i>
  <i name="ENCUT">    520.00000000</i>
  <v name="MAGMOM">      5.00000000      5.00000000      0.60000000      0.60000000      0.60000000      0.60000000      0.60000000      0.60000000      0.60000000      0.60000000</v>
  <i type="string" name="LREAL"> Auto</i>
  <i type="int" name="ISMEAR">    -5</i>
  <i name="SIGMA">      0.05000000</i>
  <i type="logical" name="LWAVE"> F  </i>
  <i type="int" name="LORBIT">    11</i>
  <v type="int" name="KPOINT_BSE">    -1     0     0     0</v>
  <i type="int" name="NELM">   400</i>
  <i type="string" name="GGA"> Bo</i>
  <i name="PARAM1">      0.18333333</i>
  <i name="PARAM2">      0.22000000</i>
  <i type="logical" name="LUSE_VDW"> T  </i>
  <i name="AGGAC">      0.00000000</i>
 </incar>
 <structure name="primitive_cell" >
  <crystal>
   <varray name="basis" >
    <v>       6.90777700      -0.00000000       0.00000000 </v>
    <v>       3.45388800       5.98231000       0.00000000 </v>
    <v>       0.00000000       0.00000000      23.44458800 </v>
   </varray>
   <i name="volume">    968.83501932 </i>
   <varray name="rec_basis" >
    <v>       0.14476437      -0.08357974       0.00000000 </v>
    <v>       0.00000000       0.16715951      -0.00000000 </v>
    <v>      -0.00000000       0.00000000       0.04265377 </v>
   </varray>
  </crystal>
  <varray name="positions" >
   <v>       0.33333300       0.33333300       0.49992500 </v>
   <v>       0.00042000       0.37322400      -0.42624800 </v>
   <v>      -0.37364300       0.00042000      -0.42624800 </v>
   <v>       0.37322400      -0.37364300      -0.42624800 </v>
   <v>       0.37364300      -0.00042000       0.42624800 </v>
   <v>      -0.37322400       0.37364300       0.42624800 </v>
   <v>      -0.00042000      -0.37322400       0.42624800 </v>
   <v>      -0.33333300      -0.33333300      -0.49992500 </v>
   <v>       0.00000000       0.00000000       0.44821600 </v>
   <v>       0.00000000       0.00000000      -0.44821600 </v>
  </varray>
 </structure>
 <varray name="primitive_index" >
  <v type="int" >        1 </v>
  <v type="int" >        6 </v>
  <v type="int" >        5 </v>
  <v type="int" >        7 </v>
  <v type="int" >        8 </v>
  <v type="int" >       10 </v>
  <v type="int" >        9 </v>
  <v type="int" >        2 </v>
  <v type="int" >        3 </v>
  <v type="int" >        4 </v>
 </varray>
 <kpoints>
  <generation param="Gamma">
   <v type="int" name="divisions">       5        5        1 </v>
   <v name="usershift">      0.00000000       0.00000000       0.00000000 </v>
   <v name="genvec1">      0.20000000       0.00000000       0.00000000 </v>
   <v name="genvec2">      0.00000000       0.20000000       0.00000000 </v>
   <v name="genvec3">      0.00000000       0.00000000       1.00000000 </v>
   <v name="shift">      0.00000000       0.00000000       0.00000000 </v>
  </generation>
  <varray name="kpointlist" >
   <v>       0.00000000       0.00000000       0.00000000 </v>
   <v>       0.20000000       0.00000000       0.00000000 </v>
   <v>       0.40000000       0.00000000       0.00000000 </v>
   <v>       0.40000000       0.20000000       0.00000000 </v>
   <v>      -0.40000000       0.20000000       0.00000000 </v>
  </varray>
  <varray name="weights" >
   <v>       0.04000000 </v>
   <v>       0.24000000 </v>
   <v>       0.24000000 </v>
   <v>       0.24000000 </v>
   <v>       0.24000000 </v>
  </varray>
  <varray name="tetrahedronlist"  type="int" >
   <v type="int" >        6        1        1        2        2 </v>
   <v type="int" >       12        1        2        2        2 </v>
   <v type="int" >       12        2        2        3        4 </v>
   <v type="int" >       12        2        2        2        4 </v>
   <v type="int" >       12        2        3        3        4 </v>
   <v type="int" >       12        2        3        4        4 </v>
   <v type="int" >        6        2        2        4        4 </v>
   <v type="int" >       12        3        3        3        5 </v>
   <v type="int" >       12        3        3        4        5 </v>
   <v type="int" >       12        3        4        4        5 </v>
   <v type="int" >        6        3        3        5        5 </v>
   <v type="int" >       12        3        4        5        5 </v>
   <v type="int" >        6        4        4        5        5 </v>
   <v type="int" >       12        4        5        5        5 </v>
   <v type="int" >        6        5        5        5        5 </v>
  </varray>
  <i name="volumeweight">      0.00666667 </i>
 </kpoints>
 <parameters>
  <separator name="general" >
   <i type="string" name="SYSTEM">unknown system</i>
   <i type="logical" name="LCOMPAT"> F  </i>
  </separator>
  <separator name="electronic" >
   <i type="string" name="PREC">accura</i>
   <i name="ENMAX">    520.00000000</i>
   <i name="ENAUG">    402.10800000</i>
   <i name="EDIFF">      0.00010000</i>
   <i type="int" name="IALGO">    38</i>
   <i type="int" name="IWAVPR">    11</i>
   <i type="int" name="NBANDS">    48</i>
   <i name="NELECT">     56.00000000</i>
   <i type="int" name="TURBO">     0</i>
   <i type="int" name="IRESTART">     0</i>
   <i type="int" name="NREBOOT">     0</i>
   <i type="int" name="NMIN">     0</i>
   <i name="EREF">      0.00000000</i>
   <separator name="electronic smearing" >
    <i type="int" name="ISMEAR">    -5</i>
    <i name="SIGMA">      0.05000000</i>
    <i name="KSPACING">      0.50000000</i>
    <i type="logical" name="KGAMMA"> T  </i>
   </separator>
   <separator name="electronic projectors" >
    <i type="logical" name="LREAL"> T  </i>
    <v name="ROPT">     -0.00025000     -0.00025000     -0.00025000</v>
    <i type="int" name="LMAXPAW">  -100</i>
    <i type="int" name="LMAXMIX">     2</i>
    <i type="logical" name="NLSPLINE"> F  </i>
   </separator>
   <separator name="electronic startup" >
    <i type="int" name="ISTART">     0</i>
    <i type="int" name="ICHARG">     2</i>
    <i type="int" name="INIWAV">     1</i>
   </separator>
   <separator name="electronic spin" >
    <i type="int" name="ISPIN">     2</i>
    <i type="logical" name="LNONCOLLINEAR"> F  </i>
    <v name="MAGMOM">      5.00000000      5.00000000      0.60000000      0.60000000      0.60000000      0.60000000      0.60000000      0.60000000      0.60000000      0.60000000</v>
    <i name="NUPDOWN">     -1.00000000</i>
    <i type="logical" name="LSORBIT"> F  </i>
    <v name="SAXIS">      0.00000000      0.00000000      1.00000000</v>
    <i type="logical" name="LSPIRAL"> F  </i>
    <v name="QSPIRAL">      0.00000000      0.00000000      0.00000000</v>
    <i type="logical" name="LZEROZ"> F  </i>
   </separator>
   <separator name="electronic exchange-correlation" >
    <i type="logical" name="LASPH"> F  </i>
    <i type="logical" name="LMETAGGA"> F  </i>
   </separator>
   <separator name="electronic convergence" >
    <i type="int" name="NELM">   400</i>
    <i type="int" name="NELMDL">     0</i>
    <i type="int" name="NELMIN">     2</i>
    <i name="ENINI">    520.00000000</i>
    <separator name="electronic convergence detail" >
     <i type="logical" name="LDIAG"> T  </i>
     <i type="logical" name="LSUBROT"> F  </i>
     <i name="WEIMIN">      0.00100000</i>
     <i name="EBREAK">      0.00000052</i>
     <i name="DEPER">      0.30000000</i>
     <i type="int" name="NRMM">     4</i>
     <i name="TIME">      0.40000000</i>
    </separator>
   </separator>
   <separator name="electronic mixer" >
    <i name="AMIX">      0.40000000</i>
    <i name="BMIX">      1.00000000</i>
    <i name="AMIN">      0.01000000</i>
    <i name="AMIX_MAG">      1.60000000</i>
    <i name="BMIX_MAG">      1.00000000</i>
    <separator name="electronic mixer details" >
     <i type="int" name="IMIX">     4</i>
     <i type="logical" name="MIXFIRST"> F  </i>
     <i type="int" name="MAXMIX">   -45</i>
     <i name="WC">    100.00000000</i>
     <i type="int" name="INIMIX">     1</i>
     <i type="int" name="MIXPRE">     1</i>
     <i type="int" name="MREMOVE">     5</i>
    </separator>
   </separator>
   <separator name="electronic dipolcorrection" >
    <i type="logical" name="LDIPOL"> F  </i>
    <i type="logical" name="LMONO"> F  </i>
    <i type="int" name="IDIPOL">     0</i>
    <i name="EPSILON">      1.00000000</i>
    <v name="DIPOL">   -100.00000000   -100.00000000   -100.00000000</v>
    <i name="EFIELD">      0.00000000</i>
   </separator>
  </separator>
  <separator name="grids" >
   <i type="int" name="NGX">    54</i>
   <i type="int" name="NGY">    54</i>
   <i type="int" name="NGZ">   180</i>
   <i type="int" name="NGXF">   108</i>
   <i type="int" name="NGYF">   108</i>
   <i type="int" name="NGZF">   360</i>
   <i type="logical" name="ADDGRID"> F  </i>
  </separator>
  <separator name="ionic" >
   <i type="int" name="NSW">    99</i>
   <i type="int" name="IBRION">     2</i>
   <i type="int" name="MDALGO">     0</i>
   <i type="int" name="ISIF">     3</i>
   <i name="PSTRESS">      0.00000000</i>
   <i name="EDIFFG">      0.00100000</i>
   <i type="int" name="NFREE">     1</i>
   <i name="POTIM">      0.50000000</i>
   <i name="SMASS">     -3.00000000</i>
   <i name="SCALEE">      1.00000000</i>
  </separator>
  <separator name="ionic md" >
   <i name="TEBEG">      0.00010000</i>
   <i name="TEEND">      0.00010000</i>
   <i type="int" name="NBLOCK">     1</i>
   <i type="int" name="KBLOCK">    99</i>
   <i type="int" name="NPACO">   256</i>
   <i name="APACO">     16.00000000</i>
  </separator>
  <separator name="symmetry" >
   <i type="int" name="ISYM">     2</i>
   <i name="SYMPREC">      0.00001000</i>
  </separator>
  <separator name="dos" >
   <i type="int" name="LORBIT">    11</i>
   <v name="RWIGS">     -1.00000000     -1.00000000     -1.00000000</v>
   <i type="int" name="NEDOS">   301</i>
   <i name="EMIN">     10.00000000</i>
   <i name="EMAX">    -10.00000000</i>
   <i name="EFERMI">      0.00000000</i>
  </separator>
  <separator name="writing" >
   <i type="int" name="NWRITE">     2</i>
   <i type="logical" name="LWAVE"> F  </i>
   <i type="logical" name="LDOWNSAMPLE"> F  </i>
   <i type="logical" name="LCHARG"> T  </i>
   <i type="logical" name="LPARD"> F  </i>
   <i type="logical" name="LVTOT"> F  </i>
   <i type="logical" name="LVHAR"> F  </i>
   <i type="logical" name="LELF"> F  </i>
   <i type="logical" name="LOPTICS"> F  </i>
   <v name="STM">      0.00000000      0.00000000      0.00000000      0.00000000      0.00000000      0.00000000      0.00000000</v>
  </separator>
  <separator name="performance" >
   <i type="int" name="NPAR">    24</i>
   <i type="int" name="NSIM">     4</i>
   <i type="int" name="NBLK">    -1</i>
   <i type="logical" name="LPLANE"> T  </i>
   <i type="logical" name="LSCALAPACK"> T  </i>
   <i type="logical" name="LSCAAWARE"> F  </i>
   <i type="logical" name="LSCALU"> F  </i>
   <i type="logical" name="LASYNC"> F  </i>
   <i type="logical" name="LORBITALREAL"> F  </i>
  </separator>
  <separator name="miscellaneous" >
   <i type="int" name="IDIOT">     3</i>
   <i type="int" name="ISPECIAL">     0</i>
   <i type="logical" name="LMUSIC"> F  </i>
   <v name="POMASS">     51.99600000     28.08500000    127.60000000</v>
   <v name="DARWINR">      0.00000000      0.00000000      0.00000000</v>
   <v name="DARWINV">      1.00000000      1.00000000      1.00000000</v>
   <i type="logical" name="LCORR"> T  </i>
  </separator>
  <i type="logical" name="GGA_COMPAT"> T  </i>
  <i type="logical" name="LBERRY"> F  </i>
  <i type="int" name="ICORELEVEL">     0</i>
  <i type="logical" name="LDAU"> F  </i>
  <i type="int" name="I_CONSTRAINED_M">     0</i>
  <separator name="electronic exchange-correlation" >
   <i type="string" name="GGA">BO</i>
   <i type="int" name="VOSKOWN">     0</i>
   <i type="logical" name="LHFCALC"> F  </i>
   <i type="string" name="PRECFOCK"></i>
   <i type="logical" name="LSYMGRAD"> F  </i>
   <i type="logical" name="LHFONE"> F  </i>
   <i type="logical" name="LRHFCALC"> F  </i>
   <i type="logical" name="LTHOMAS"> F  </i>
   <i type="logical" name="LMODELHF"> F  </i>
   <i name="ENCUT4O">     -1.00000000</i>
   <i type="int" name="EXXOEP">     0</i>
   <i type="int" name="FOURORBIT">     0</i>
   <i name="AEXX">      0.00000000</i>
   <i name="HFALPHA">      0.00000000</i>
   <i name="MCALPHA">      0.00000000</i>
   <i name="ALDAX">      1.00000000</i>
   <i name="AGGAX">      1.00000000</i>
   <i name="ALDAC">      1.00000000</i>
   <i name="AGGAC">      0.00000000</i>
   <i type="int" name="NKREDX">     1</i>
   <i type="int" name="NKREDY">     1</i>
   <i type="int" name="NKREDZ">     1</i>
   <i type="logical" name="SHIFTRED"> F  </i>
   <i type="logical" name="ODDONLY"> F  </i>
   <i type="logical" name="EVENONLY"> F  </i>
   <i type="int" name="LMAXFOCK">     0</i>
   <i type="int" name="NMAXFOCKAE">     0</i>
   <i type="logical" name="LFOCKAEDFT"> F  </i>
   <i name="HFSCREEN">      0.00000000</i>
   <i name="HFSCREENC">      0.00000000</i>
   <i type="int" name="NBANDSGWLOW">     0</i>
  </separator>
  <separator name="vdW DFT" >
   <i type="logical" name="LUSE_VDW"> T  </i>
   <i name="Zab_VDW">     -0.84910000</i>
   <i name="PARAM1">      0.18333333</i>
   <i name="PARAM2">      0.22000000</i>
   <i name="PARAM3">      0.00000000</i>
  </separator>
  <separator name="model GW" >
   <i type="int" name="MODEL_GW">     0</i>
   <i name="MODEL_EPS0">     58.13010116</i>
   <i name="MODEL_ALPHA">      1.00000000</i>
  </separator>
  <separator name="linear response parameters" >
   <i type="logical" name="LEPSILON"> F  </i>
   <i type="logical" name="LRPA"> F  </i>
   <i type="logical" name="LNABLA"> F  </i>
   <i type="logical" name="LVEL"> F  </i>
   <i type="int" name="KINTER">     0</i>
   <i name="CSHIFT">      0.10000000</i>
   <i name="OMEGAMAX">     -1.00000000</i>
   <i name="DEG_THRESHOLD">      0.00200000</i>
   <i name="RTIME">     -0.10000000</i>
   <i name="WPLASMAI">      0.00000000</i>
   <v name="DFIELD">      0.00000000      0.00000000      0.00000000</v>
   <v name="WPLASMA">      0.00000000      0.00000000      0.00000000      0.00000000      0.00000000      0.00000000      0.00000000      0.00000000      0.00000000</v>
  </separator>
  <separator name="orbital magnetization" >
   <i type="logical" name="NUCIND"> F  </i>
   <v name="MAGPOS">      0.00000000      0.00000000      0.00000000</v>
   <i type="logical" name="LNICSALL"> T  </i>
   <i type="logical" name="ORBITALMAG"> F  </i>
   <i type="logical" name="LMAGBLOCH"> F  </i>
   <i type="logical" name="LCHIMAG"> F  </i>
   <i type="logical" name="LGAUGE"> T  </i>
   <i type="int" name="MAGATOM">     0</i>
   <v name="MAGDIPOL">      0.00000000      0.00000000      0.00000000</v>
   <v name="AVECCONST">      0.00000000      0.00000000      0.00000000</v>
  </separator>
  <separator name="response functions" >
   <i type="logical" name="LADDER"> F  </i>
   <i type="logical" name="LRPAFORCE"> F  </i>
   <i type="logical" name="LFXC"> F  </i>
   <i type="logical" name="LHARTREE"> T  </i>
   <i type="int" name="IBSE">     0</i>
   <v type="int" name="KPOINT">    -1     0     0     0</v>
   <i type="logical" name="LTCTE"> F  </i>
   <i type="logical" name="LTETE"> F  </i>
   <i type="logical" name="LTRIPLET"> F  </i>
   <i type="logical" name="LFXCEPS"> F  </i>
   <i type="logical" name="LFXHEG"> F  </i>
   <i type="int" name="NATURALO">     2</i>
   <i type="logical" name="L2ORDER"> F  </i>
   <i type="logical" name="LMP2LT"> F  </i>
   <i type="logical" name="LUSEW"> F  </i>
   <i name="ENCUTGW">     -2.00000000</i>
   <i name="ENCUTGWSOFT">     -2.00000000</i>
   <i name="ENCUTLF">     -1.00000000</i>
   <i type="int" name="LMAXMP2">    -1</i>
   <i name="SCISSOR">      0.00000000</i>
   <i type="int" name="NOMEGA">     0</i>
   <i type="int" name="NOMEGAR">     0</i>
   <i type="int" name="NBANDSGW">    -1</i>
   <i type="int" name="NBANDSO">    -1</i>
   <i type="int" name="NBANDSV">    -1</i>
   <i type="int" name="NELM">   400</i>
   <i type="int" name="NELMHF">     1</i>
   <i type="int" name="DIM">     3</i>
   <i type="int" name="ANTIRES">     0</i>
   <i name="OMEGAMAX">    -30.00000000</i>
   <i name="OMEGAMIN">    -30.00000000</i>
   <i name="OMEGATL">   -200.00000000</i>
   <i type="int" name="OMEGAGRID">   140</i>
   <i name="CSHIFT">     -0.10000000</i>
   <i type="logical" name="SELFENERGY"> F  </i>
   <i type="logical" name="LSPECTRAL"> F  </i>
   <i type="logical" name="LSPECTRALGW"> F  </i>
   <i type="logical" name="LSINGLES"> F  </i>
   <i type="logical" name="LFERMIGW"> F  </i>
   <i type="logical" name="ODDONLYGW"> F  </i>
   <i type="logical" name="EVENONLYGW"> F  </i>
   <i type="int" name="NKREDLFX">     1</i>
   <i type="int" name="NKREDLFY">     1</i>
   <i type="int" name="NKREDLFZ">     1</i>
   <i type="int" name="MAXMEM">  2800</i>
   <i type="int" name="TELESCOPE">     0</i>
   <i type="int" name="TAUPAR">     1</i>
   <i type="int" name="OMEGAPAR">    -1</i>
   <i name="LAMBDA">      1.00000000</i>
  </separator>
  <separator name="External order field" >
   <i name="OFIELD_KAPPA">      0.00000000</i>
   <v name="OFIELD_K">      0.00000000      0.00000000      0.00000000</v>
   <i name="OFIELD_Q6_NEAR">      0.00000000</i>
   <i name="OFIELD_Q6_FAR">      0.00000000</i>
   <i name="OFIELD_A">      0.00000000</i>
  </separator>
 </parameters>
 <atominfo>
  <atoms>      10 </atoms>
  <types>       3 </types>
  <array name="atoms" >
   <dimension dim="1">ion</dimension>
   <field type="string">element</field>
   <field type="int">atomtype</field>
   <set>
    <rc><c>Cr</c><c>   1</c></rc>
    <rc><c>Cr</c><c>   1</c></rc>
    <rc><c>Si</c><c>   2</c></rc>
    <rc><c>Si</c><c>   2</c></rc>
    <rc><c>Te</c><c>   3</c></rc>
    <rc><c>Te</c><c>   3</c></rc>
    <rc><c>Te</c><c>   3</c></rc>
    <rc><c>Te</c><c>   3</c></rc>
    <rc><c>Te</c><c>   3</c></rc>
    <rc><c>Te</c><c>   3</c></rc>
   </set>
  </array>
  <array name="atomtypes" >
   <dimension dim="1">type</dimension>
   <field type="int">atomspertype</field>
   <field type="string">element</field>
   <field>mass</field>
   <field>valence</field>
   <field type="string">pseudopotential</field>
   <set>
    <rc><c>   2</c><c>Cr</c><c>     51.99600000</c><c>      6.00000000</c><c> PAW_PBE Cr 06Sep2000                   </c></rc>
    <rc><c>   2</c><c>Si</c><c>     28.08500000</c><c>      4.00000000</c><c> PAW_PBE Si 05Jan2001                   </c></rc>
    <rc><c>   6</c><c>Te</c><c>    127.60000000</c><c>      6.00000000</c><c> PAW_PBE Te 08Apr2002                   </c></rc>
   </set>
  </array>
 </atominfo>
 <structure name="initialpos" >
  <crystal>
   <varray name="basis" >
    <v>       6.90777700      -0.00000000       0.00000000 </v>
    <v>       3.45388800       5.98231000       0.00000000 </v>
    <v>       0.00000000       0.00000000      23.44458800 </v>
   </varray>
   <i name="volume">    968.83501932 </i>
   <varray name="rec_basis" >
    <v>       0.14476437      -0.08357974       0.00000000 </v>
    <v>       0.00000000       0.16715951      -0.00000000 </v>
    <v>      -0.00000000       0.00000000       0.04265377 </v>
   </varray>
  </crystal>
  <varray name="positions" >
   <v>       0.33333300       0.33333300       0.49992500 </v>
   <v>       0.66666700       0.66666700       0.50007500 </v>
   <v>       0.00000000       0.00000000       0.44821600 </v>
   <v>       0.00000000       0.00000000       0.55178400 </v>
   <v>       0.62635700       0.00042000       0.57375200 </v>
   <v>       0.00042000       0.37322400       0.57375200 </v>
   <v>       0.37322400       0.62635700       0.57375200 </v>
   <v>       0.37364300       0.99958000       0.42624800 </v>
   <v>       0.99958000       0.62677600       0.42624800 </v>
   <v>       0.62677600       0.37364300       0.42624800 </v>
  </varray>
  <varray name="selective"  type="logical" >
   <v type="logical" >  T  T  T </v>
   <v type="logical" >  T  T  T </v>
   <v type="logical" >  F  F  F </v>
   <v type="logical" >  F  F  F </v>
   <v type="logical" >  T  T  T </v>
   <v type="logical" >  T  T  T </v>
   <v type="logical" >  T  T  T </v>
   <v type="logical" >  T  T  T </v>
   <v type="logical" >  T  T  T </v>
   <v type="logical" >  T  T  T </v>
  </varray>
  <nose>
   <v>      -3.00000000       0.00000000       0.00010000       0.00010000 </v>
  </nose>
 </structure>
 <calculation>
  <scstep>
   <time name="dav">   20.21   31.49</time>
   <time name="total">   61.18   92.62</time>
   <energy>
    <i name="alphaZ">     10.43337871 </i>
    <i name="ewald">   5985.89955237 </i>
    <i name="hartreedc">  -7850.85503700 </i>
    <i name="XCdc">   -230.59539499 </i>
    <i name="pawpsdc">   1143.42517624 </i>
    <i name="pawaedc">   -824.83664442 </i>
    <i name="eentropy">      0.00000000 </i>
    <i name="bandstr">     10.01316134 </i>
    <i name="atom">   2109.67816268 </i>
    <i name="e_fr_energy">    353.16235494 </i>
    <i name="e_wo_entrp">    353.16235494 </i>
    <i name="e_0_energy">    353.16235494 </i>
   </energy>
  </scstep>
  <scstep>
   <time name="dav">   27.10   41.45</time>
   <time name="total">   27.10   41.45</time>
   <energy>
    <i name="e_fr_energy">     -9.09671885 </i>
    <i name="e_wo_entrp">     -9.09671885 </i>
    <i name="e_0_energy">     -9.09671885 </i>
   </energy>
  </scstep>
  <scstep>
   <time name="dav">   26.30   41.31</time>
   <time name="total">   26.30   41.31</time>
   <energy>
    <i name="e_fr_energy">    -43.40061629 </i>
    <i name="e_wo_entrp">    -43.40061629 </i>
    <i name="e_0_energy">    -43.40061629 </i>
   </energy>
  </scstep>
  <scstep>
   <time name="dav">   25.30   37.69</time>
   <time name="total">   25.31   37.69</time>
   <energy>
    <i name="e_fr_energy">    -44.52368417 </i>
    <i name="e_wo_entrp">    -44.52368417 </i>
    <i name="e_0_energy">    -44.52368417 </i>
   </energy>
  </scstep>
  <scstep>
   <time name="dav">   30.50   47.00</time>
   <time name="total">   32.03   49.30</time>
   <energy>
    <i name="e_fr_energy">    -44.57026557 </i>
    <i name="e_wo_entrp">    -44.57026557 </i>
    <i name="e_0_energy">    -44.57026557 </i>
   </energy>
  </scstep>
  <scstep>
   <time name="dav">   28.13   42.95</time>
   <time name="total">   70.56  104.36</time>
   <energy>
    <i name="e_fr_energy">    -47.39104376 </i>
    <i name="e_wo_entrp">    -47.39104376 </i>
    <i name="e_0_energy">    -47.39104376 </i>
   </energy>
  </scstep>
  <scstep>
   <time name="dav">   26.46   40.32</time>
   <time name="total">   67.22  101.12</time>
   <energy>
    <i name="e_fr_energy">    -42.80583370 </i>
    <i name="e_wo_entrp">    -42.80583370 </i>
    <i name="e_0_energy">    -42.80583370 </i>
   </energy>
  </scstep>
  <scstep>
   <time name="dav">   25.03   38.30</time>
   <time name="total">   65.40  100.57</time>
   <energy>
    <i name="e_fr_energy">    -42.44640580 </i>
    <i name="e_wo_entrp">    -42.44640580 </i>
    <i name="e_0_energy">    -42.44640580 </i>
   </energy>
  </scstep>
  <scstep>
   <time name="dav">   29.01   44.17</time>
   <time name="total">   71.07  105.19</time>
   <energy>
    <i name="e_fr_energy">    -42.87605329 </i>
    <i name="e_wo_entrp">    -42.87605329 </i>
    <i name="e_0_energy">    -42.87605329 </i>
   </energy>
  </scstep>
  <scstep>
   <time name="dav">   24.86   37.29</time>
   <time name="total">   65.91   99.41</time>
   <energy>
    <i name="e_fr_energy">    -43.28423495 </i>
    <i name="e_wo_entrp">    -43.28423495 </i>
    <i name="e_0_energy">    -43.28423495 </i>
   </energy>
  </scstep>
  <scstep>
   <time name="dav">   24.71   36.61</time>
   <time name="total">   63.85   97.75</time>
   <energy>
    <i name="e_fr_energy">    -43.45170524 </i>
    <i name="e_wo_entrp">    -43.45170524 </i>
    <i name="e_0_energy">    -43.45170524 </i>
   </energy>
  </scstep>
  <scstep>
   <time name="dav">   22.08   34.22</time>
   <time name="total">   62.03   96.09</time>
   <energy>
    <i name="e_fr_energy">    -43.71530069 </i>
    <i name="e_wo_entrp">    -43.71530069 </i>
    <i name="e_0_energy">    -43.71530069 </i>
   </energy>
  </scstep>
  <scstep>
   <time name="dav">   21.66   33.37</time>
   <time name="total">   62.65   95.14</time>
   <energy>
    <i name="e_fr_energy">    -43.81669512 </i>
    <i name="e_wo_entrp">    -43.81669512 </i>
    <i name="e_0_energy">    -43.81669512 </i>
   </energy>
  </scstep>
  <scstep>
   <time name="dav">   21.60   31.91</time>
   <time name="total">   63.04   93.88</time>
   <energy>
    <i name="e_fr_energy">    -43.83387242 </i>
    <i name="e_wo_entrp">    -43.83387242 </i>
    <i name="e_0_energy">    -43.83387242 </i>
   </energy>
  </scstep>
  <scstep>
   <time name="dav">   22.35   32.63</time>
   <time name="total">   63.15   93.51</time>
   <energy>
    <i name="e_fr_energy">    -43.83407633 </i>
    <i name="e_wo_entrp">    -43.83407633 </i>
    <i name="e_0_energy">    -43.83407633 </i>
   </energy>
  </scstep>
  <scstep>
   <time name="dav">   20.54   30.70</time>
   <time name="total">   60.79   92.68</time>
   <energy>
    <i name="e_fr_energy">    -43.83418159 </i>
    <i name="e_wo_entrp">    -43.83418159 </i>
    <i name="e_0_energy">    -43.83418159 </i>
   </energy>
  </scstep>
  <scstep>
   <time name="dav">   21.37   32.65</time>
   <time name="total">   62.69   93.95</time>
   <energy>
    <i name="alphaZ">     10.43337871 </i>
    <i name="ewald">   5985.89955237 </i>
    <i name="hartreedc">  -7861.80342655 </i>
    <i name="XCdc">   -231.22380540 </i>
    <i name="pawpsdc">   1207.70829661 </i>
    <i name="pawaedc">   -890.28175828 </i>
    <i name="eentropy">      0.00000000 </i>
    <i name="bandstr">   -374.24456676 </i>
    <i name="atom">   2109.67816268 </i>
    <i name="e_fr_energy">    -43.83416662 </i>
    <i name="e_wo_entrp">    -43.83416662 </i>
    <i name="e_0_energy">    -43.83416662 </i>
   </energy>
  </scstep>
  <structure>
   <crystal>
    <varray name="basis" >
     <v>       6.90777700      -0.00000000       0.00000000 </v>
     <v>       3.45388800       5.98231000       0.00000000 </v>
     <v>       0.00000000       0.00000000      23.44458800 </v>
    </varray>
    <i name="volume">    968.83501932 </i>
    <varray name="rec_basis" >
     <v>       0.14476437      -0.08357974       0.00000000 </v>
     <v>       0.00000000       0.16715951      -0.00000000 </v>
     <v>      -0.00000000       0.00000000       0.04265377 </v>
    </varray>
   </crystal>
   <varray name="positions" >
    <v>       0.33333300       0.33333300       0.49992500 </v>
    <v>       0.66666700       0.66666700       0.50007500 </v>
    <v>       0.00000000       0.00000000       0.44821600 </v>
    <v>       0.00000000       0.00000000       0.55178400 </v>
    <v>       0.62635700       0.00042000       0.57375200 </v>
    <v>       0.00042000       0.37322400       0.57375200 </v>
    <v>       0.37322400       0.62635700       0.57375200 </v>
    <v>       0.37364300       0.99958000       0.42624800 </v>
    <v>       0.99958000       0.62677600       0.42624800 </v>
    <v>       0.62677600       0.37364300       0.42624800 </v>
   </varray>
  </structure>
  <varray name="forces" >
   <v>      -0.00000000      -0.00000000      -0.00296353 </v>
   <v>       0.00000000       0.00000000       0.00296353 </v>
   <v>       0.00000000       0.00000000       0.93418273 </v>
   <v>      -0.00000000      -0.00000000      -0.93418273 </v>
   <v>       0.49488073      -0.00871914      -0.06312701 </v>
   <v>      -0.25499132      -0.42421969      -0.06312701 </v>
   <v>      -0.23988941       0.43293883      -0.06312701 </v>
   <v>      -0.49488073       0.00871914       0.06312701 </v>
   <v>       0.25499132       0.42421969       0.06312701 </v>
   <v>       0.23988941      -0.43293883       0.06312701 </v>
  </varray>
  <varray name="stress" >
   <v>      -6.80949808      -0.00000023       0.00000000 </v>
   <v>       0.00000137      -6.80949725       0.00000000 </v>
   <v>      -0.00000000       0.00000000      -4.63493040 </v>
  </varray>
  <energy>
   <i name="e_fr_energy">    -43.83416662 </i>
   <i name="e_wo_entrp">    -43.83416662 </i>
   <i name="e_0_energy">      0.00000000 </i>
  </energy>
  <time name="totalsc"> 1066.67 1610.96</time>
 </calculation>
 <calculation>
  <scstep>
   <time name="dav">   23.77   36.03</time>
   <time name="total">   64.77   97.99</time>
   <energy>
    <i name="alphaZ">     11.00944114 </i>
    <i name="ewald">   6171.59122262 </i>
    <i name="hartreedc">  -8076.61814458 </i>
    <i name="XCdc">   -229.87395625 </i>
    <i name="pawpsdc">   1207.87515108 </i>
    <i name="pawaedc">   -890.45405469 </i>
    <i name="eentropy">      0.00000000 </i>
    <i name="bandstr">   -347.58189119 </i>
    <i name="atom">   2109.67816268 </i>
    <i name="e_fr_energy">    -44.37406919 </i>
    <i name="e_wo_entrp">    -44.37406919 </i>
    <i name="e_0_energy">    -44.37406919 </i>
   </energy>
  </scstep>
  <scstep>
   <time name="dav">   26.78   39.49</time>
   <time name="total">   68.64  100.78</time>
   <energy>
    <i name="e_fr_energy">    -44.25080690 </i>
    <i name="e_wo_entrp">    -44.25080690 </i>
    <i name="e_0_energy">    -44.25080690 </i>
   </energy>
  </scstep>
  <scstep>
   <time name="dav">   25.77   37.99</time>
   <time name="total">   66.18   99.62</time>
   <energy>
    <i name="e_fr_energy">    -44.01603081 </i>
    <i name="e_wo_entrp">    -44.01603081 </i>
    <i name="e_0_energy">    -44.01603081 </i>
   </energy>
  </scstep>
  <scstep>
   <time name="dav">   28.02   41.72</time>
   <time name="total">   70.35  104.95</time>
   <energy>
    <i name="e_fr_energy">    -43.92978402 </i>
    <i name="e_wo_entrp">    -43.92978402 </i>
    <i name="e_0_energy">    -43.92978402 </i>
   </energy>
  </scstep>
  <scstep>
   <time name="dav">   26.67   40.15</time>
   <time name="total">   67.13  101.35</time>
   <energy>
    <i name="e_fr_energy">    -43.92643892 </i>
    <i name="e_wo_entrp">    -43.92643892 </i>
    <i name="e_0_energy">    -43.92643892 </i>
   </energy>
  </scstep>
  <scstep>
   <time name="dav">   23.46   35.48</time>
   <time name="total">   64.58   98.34</time>
   <energy>
    <i name="e_fr_energy">    -43.92658001 </i>
    <i name="e_wo_entrp">    -43.92658001 </i>
    <i name="e_0_energy">    -43.92658001 </i>
   </energy>
  </scstep>
  <scstep>
   <time name="dav">   22.74   32.81</time>
   <time name="total">   62.70   94.43</time>
   <energy>
    <i name="e_fr_energy">    -43.92783282 </i>
    <i name="e_wo_entrp">    -43.92783282 </i>
    <i name="e_0_energy">    -43.92783282 </i>
   </energy>
  </scstep>
  <scstep>
   <time name="dav">   20.89   31.43</time>
   <time name="total">   61.44   93.62</time>
   <energy>
    <i name="e_fr_energy">    -43.92900503 </i>
    <i name="e_wo_entrp">    -43.92900503 </i>
    <i name="e_0_energy">    -43.92900503 </i>
   </energy>
  </scstep>
  <scstep>
   <time name="dav">   22.01   32.21</time>
   <time name="total">   62.56   94.28</time>
   <energy>
    <i name="e_fr_energy">    -43.93007326 </i>
    <i name="e_wo_entrp">    -43.93007326 </i>
    <i name="e_0_energy">    -43.93007326 </i>
   </energy>
  </scstep>
  <scstep>
   <time name="dav">   21.65   32.99</time>
   <time name="total">   62.94   94.45</time>
   <energy>
    <i name="e_fr_energy">    -43.93146231 </i>
    <i name="e_wo_entrp">    -43.93146231 </i>
    <i name="e_0_energy">    -43.93146231 </i>
   </energy>
  </scstep>
  <scstep>
   <time name="dav">   21.20   33.50</time>
   <time name="total">   62.02   95.03</time>
   <energy>
    <i name="e_fr_energy">    -43.93218106 </i>
    <i name="e_wo_entrp">    -43.93218106 </i>
    <i name="e_0_energy">    -43.93218106 </i>
   </energy>
  </scstep>
  <scstep>
   <time name="dav">   21.42   31.89</time>
   <time name="total">   61.81   93.55</time>
   <energy>
    <i name="e_fr_energy">    -43.93259907 </i>
    <i name="e_wo_entrp">    -43.93259907 </i>
    <i name="e_0_energy">    -43.93259907 </i>
   </energy>
  </scstep>
  <scstep>
   <time name="dav">   20.73   31.74</time>
   <time name="total">   61.59   92.91</time>
   <energy>
    <i name="e_fr_energy">    -43.93274377 </i>
    <i name="e_wo_entrp">    -43.93274377 </i>
    <i name="e_0_energy">    -43.93274377 </i>
   </energy>
  </scstep>
  <scstep>
   <time name="dav">   21.18   33.44</time>
   <time name="total">   60.77   92.58</time>
   <energy>
    <i name="alphaZ">     11.00944114 </i>
    <i name="ewald">   6171.59122262 </i>
    <i name="hartreedc">  -8057.44856009 </i>
    <i name="XCdc">   -230.23378276 </i>
    <i name="pawpsdc">   1227.91437013 </i>
    <i name="pawaedc">   -910.84034211 </i>
    <i name="eentropy">      0.00000000 </i>
    <i name="bandstr">   -365.60329211 </i>
    <i name="atom">   2109.67816268 </i>
    <i name="e_fr_energy">    -43.93278050 </i>
    <i name="e_wo_entrp">    -43.93278050 </i>
    <i name="e_0_energy">    -43.93278050 </i>
   </energy>
  </scstep>
  <structure>
   <crystal>
    <varray name="basis" >
     <v>       6.77055497      -0.00000000       0.00000000 </v>
     <v>       3.38527702       5.86347225       0.00000000 </v>
     <v>      -0.00000000       0.00000000      23.12759019 </v>
    </varray>
    <i name="volume">    918.14130564 </i>
    <varray name="rec_basis" >
     <v>       0.14769838      -0.08527369       0.00000000 </v>
     <v>       0.00000000       0.17054741      -0.00000000 </v>
     <v>      -0.00000000      -0.00000000       0.04323840 </v>
    </varray>
   </crystal>
   <varray name="positions" >
    <v>       0.33333300       0.33333300       0.49991890 </v>
    <v>       0.66666700       0.66666700       0.50008110 </v>
    <v>       0.00000000       0.00000000       0.44821600 </v>
    <v>       0.00000000       0.00000000       0.55178400 </v>
    <v>       0.62984831       0.00034969       0.57362210 </v>
    <v>       0.00034969       0.36980300       0.57362210 </v>
    <v>       0.36980300       0.62984831       0.57362210 </v>
    <v>       0.37015169       0.99965031       0.42637790 </v>
    <v>       0.99965031       0.63019700       0.42637790 </v>
    <v>       0.63019700       0.37015169       0.42637790 </v>
   </varray>
  </structure>
  <varray name="forces" >
   <v>      -0.00000000       0.00000000      -0.00147092 </v>
   <v>      -0.00000000      -0.00000000       0.00147092 </v>
   <v>      -0.00000000       0.00000000       1.04858466 </v>
   <v>      -0.00000000      -0.00000000      -1.04858466 </v>
   <v>       0.16488146      -0.00817613       0.29430984 </v>
   <v>      -0.08952145      -0.13870346       0.29430984 </v>
   <v>      -0.07536000       0.14687959       0.29430984 </v>
   <v>      -0.16488146       0.00817613      -0.29430984 </v>
   <v>       0.08952145       0.13870346      -0.29430984 </v>
   <v>       0.07536000      -0.14687959      -0.29430984 </v>
  </varray>
  <varray name="stress" >
   <v>       4.62100158      -0.00000077       0.00000000 </v>
   <v>       0.00000003       4.62100104      -0.00000000 </v>
   <v>       0.00000000      -0.00000000       0.63347509 </v>
  </varray>
  <energy>
   <i name="e_fr_energy">    -43.93278050 </i>
   <i name="e_wo_entrp">    -43.93278050 </i>
   <i name="e_0_energy">      0.00000000 </i>
  </energy>
  <time name="totalsc">  998.69 1507.01</time>
 </calculation>
 <calculation>
  <scstep>
   <time name="dav">   27.13   40.75</time>
   <time name="total">   67.74  104.23</time>
   <energy>
    <i name="alphaZ">     10.87389454 </i>
    <i name="ewald">   6128.17326229 </i>
    <i name="hartreedc">  -8007.37344971 </i>
    <i name="XCdc">   -230.54482746 </i>
    <i name="pawpsdc">   1227.92269144 </i>
    <i name="pawaedc">   -910.84900946 </i>
    <i name="eentropy">      0.00000000 </i>
    <i name="bandstr">   -371.84738589 </i>
    <i name="atom">   2109.67816268 </i>
    <i name="e_fr_energy">    -43.96666157 </i>
    <i name="e_wo_entrp">    -43.96666157 </i>
    <i name="e_0_energy">    -43.96666157 </i>
   </energy>
  </scstep>
  <scstep>
   <time name="dav">   25.61   38.01</time>
   <time name="total">   67.06  100.07</time>
   <energy>
    <i name="e_fr_energy">    -43.96229617 </i>
    <i name="e_wo_entrp">    -43.96229617 </i>
    <i name="e_0_energy">    -43.96229617 </i>
   </energy>
  </scstep>
  <scstep>
   <time name="dav">   25.12   38.12</time>
   <time name="total">   67.16  100.01</time>
   <energy>
    <i name="e_fr_energy">    -43.94750253 </i>
    <i name="e_wo_entrp">    -43.94750253 </i>
    <i name="e_0_energy">    -43.94750253 </i>
   </energy>
  </scstep>
  <scstep>
   <time name="dav">   25.33   37.73</time>
   <time name="total">   66.04   99.69</time>
   <energy>
    <i name="e_fr_energy">    -43.94340994 </i>
    <i name="e_wo_entrp">    -43.94340994 </i>
    <i name="e_0_energy">    -43.94340994 </i>
   </energy>
  </scstep>
  <scstep>
   <time name="dav">   25.34   38.47</time>
   <time name="total">   65.13  100.24</time>
   <energy>
    <i name="e_fr_energy">    -43.94323937 </i>
    <i name="e_wo_entrp">    -43.94323937 </i>
    <i name="e_0_energy">    -43.94323937 </i>
   </energy>
  </scstep>
  <scstep>
   <time name="dav">   20.72   30.91</time>
   <time name="total">   59.23   89.81</time>
   <energy>
    <i name="alphaZ">     10.87389454 </i>
    <i name="ewald">   6128.17326229 </i>
    <i name="hartreedc">  -8011.26138961 </i>
    <i name="XCdc">   -230.47349657 </i>
    <i name="pawpsdc">   1223.75817439 </i>
    <i name="pawaedc">   -906.62395806 </i>
    <i name="eentropy">      0.00000000 </i>
    <i name="bandstr">   -368.06786446 </i>
    <i name="atom">   2109.67816268 </i>
    <i name="e_fr_energy">    -43.94321481 </i>
    <i name="e_wo_entrp">    -43.94321481 </i>
    <i name="e_0_energy">    -43.94321481 </i>
   </energy>
  </scstep>
  <structure>
   <crystal>
    <varray name="basis" >
     <v>       6.80196198      -0.00000000       0.00000000 </v>
     <v>       3.40098052       5.89067152       0.00000000 </v>
     <v>      -0.00000000       0.00000000      23.20014381 </v>
    </varray>
    <i name="volume">    929.58623326 </i>
    <varray name="rec_basis" >
     <v>       0.14701641      -0.08487995       0.00000000 </v>
     <v>       0.00000000       0.16975993      -0.00000000 </v>
     <v>      -0.00000000      -0.00000000       0.04310318 </v>
    </varray>
   </crystal>
   <varray name="positions" >
    <v>       0.33333300       0.33333300       0.49992032 </v>
    <v>       0.66666700       0.66666700       0.50007968 </v>
    <v>       0.00000000       0.00000000       0.44821600 </v>
    <v>       0.00000000       0.00000000       0.55178400 </v>
    <v>       0.62903304       0.00036611       0.57365224 </v>
    <v>       0.00036611       0.37060186       0.57365224 </v>
    <v>       0.37060186       0.62903304       0.57365224 </v>
    <v>       0.37096696       0.99963389       0.42634776 </v>
    <v>       0.99963389       0.62939814       0.42634776 </v>
    <v>       0.62939814       0.37096696       0.42634776 </v>
   </varray>
  </structure>
  <varray name="forces" >
   <v>      -0.00000000       0.00000000      -0.00184945 </v>
   <v>      -0.00000000      -0.00000000       0.00184945 </v>
   <v>      -0.00000000       0.00000000       1.01682430 </v>
   <v>      -0.00000000      -0.00000000      -1.01682430 </v>
   <v>       0.25398429      -0.00570483       0.19867234 </v>
   <v>      -0.13193265      -0.21710441       0.19867234 </v>
   <v>      -0.12205163       0.22280925       0.19867234 </v>
   <v>      -0.25398429       0.00570483      -0.19867234 </v>
   <v>       0.13193265       0.21710441      -0.19867234 </v>
   <v>       0.12205163      -0.22280925      -0.19867234 </v>
  </varray>
  <varray name="stress" >
   <v>       1.75908186      -0.00000059       0.00000000 </v>
   <v>       0.00000030       1.75908165      -0.00000000 </v>
   <v>      -0.00000000       0.00000000      -0.40435338 </v>
  </varray>
  <energy>
   <i name="e_fr_energy">    -43.94321481 </i>
   <i name="e_wo_entrp">    -43.94321481 </i>
   <i name="e_0_energy">      0.00000000 </i>
  </energy>
  <time name="totalsc">  493.67  747.80</time>
 </calculation>
 <calculation>
  <scstep>
   <time name="dav">   22.15   33.60</time>
   <time name="total">   64.12   96.11</time>
   <energy>
    <i name="alphaZ">     10.87450119 </i>
    <i name="ewald">   6056.92278212 </i>
    <i name="hartreedc">  -7943.56710349 </i>
    <i name="XCdc">   -230.49349029 </i>
    <i name="pawpsdc">   1223.24528864 </i>
    <i name="pawaedc">   -906.09113189 </i>
    <i name="eentropy">      0.00000000 </i>
    <i name="bandstr">   -364.54401565 </i>
    <i name="atom">   2109.67816268 </i>
    <i name="e_fr_energy">    -43.97500669 </i>
    <i name="e_wo_entrp">    -43.97500669 </i>
    <i name="e_0_energy">    -43.97500669 </i>
   </energy>
  </scstep>
  <scstep>
   <time name="dav">   21.35   32.52</time>
   <time name="total">   62.97   94.73</time>
   <energy>
    <i name="e_fr_energy">    -43.98048525 </i>
    <i name="e_wo_entrp">    -43.98048525 </i>
    <i name="e_0_energy">    -43.98048525 </i>
   </energy>
  </scstep>
  <scstep>
   <time name="dav">   24.17   36.51</time>
   <time name="total">   66.68   99.27</time>
   <energy>
    <i name="e_fr_energy">    -43.97708484 </i>
    <i name="e_wo_entrp">    -43.97708484 </i>
    <i name="e_0_energy">    -43.97708484 </i>
   </energy>
  </scstep>
  <scstep>
   <time name="dav">   24.48   35.60</time>
   <time name="total">   65.28   97.34</time>
   <energy>
    <i name="e_fr_energy">    -43.97667125 </i>
    <i name="e_wo_entrp">    -43.97667125 </i>
    <i name="e_0_energy">    -43.97667125 </i>
   </energy>
  </scstep>
  <scstep>
   <time name="dav">   23.38   35.82</time>
   <time name="total">   63.86   97.75</time>
   <energy>
    <i name="e_fr_energy">    -43.97637159 </i>
    <i name="e_wo_entrp">    -43.97637159 </i>
    <i name="e_0_energy">    -43.97637159 </i>
   </energy>
  </scstep>
  <scstep>
   <time name="dav">   20.87   32.84</time>
   <time name="total">   59.70   92.26</time>
   <energy>
    <i name="alphaZ">     10.87450119 </i>
    <i name="ewald">   6056.92278212 </i>
    <i name="hartreedc">  -7942.24750666 </i>
    <i name="XCdc">   -230.44847921 </i>
    <i name="pawpsdc">   1220.72581935 </i>
    <i name="pawaedc">   -903.54088756 </i>
    <i name="eentropy">      0.00000000 </i>
    <i name="bandstr">   -365.94071387 </i>
    <i name="atom">   2109.67816268 </i>
    <i name="e_fr_energy">    -43.97632196 </i>
    <i name="e_wo_entrp">    -43.97632196 </i>
    <i name="e_0_energy">    -43.97632196 </i>
   </energy>
  </scstep>
  <structure>
   <crystal>
    <varray name="basis" >
     <v>       6.81269481      -0.00000001       0.00000000 </v>
     <v>       3.40634694       5.89996642      -0.00000000 </v>
     <v>      -0.00000000       0.00000000      23.12581146 </v>
    </varray>
    <i name="volume">    929.53437533 </i>
    <varray name="rec_basis" >
     <v>       0.14678479      -0.08474623       0.00000000 </v>
     <v>       0.00000000       0.16949249      -0.00000000 </v>
     <v>       0.00000000       0.00000000       0.04324173 </v>
    </varray>
   </crystal>
   <varray name="positions" >
    <v>       0.33333300       0.33333300       0.49991568 </v>
    <v>       0.66666700       0.66666700       0.50008432 </v>
    <v>       0.00000000       0.00000000       0.44821600 </v>
    <v>       0.00000000       0.00000000       0.55178400 </v>
    <v>       0.63133120       0.00031031       0.57402583 </v>
    <v>       0.00031031       0.36835949       0.57402583 </v>
    <v>       0.36835949       0.63133120       0.57402583 </v>
    <v>       0.36866880       0.99968969       0.42597417 </v>
    <v>       0.99968969       0.63164051       0.42597417 </v>
    <v>       0.63164051       0.36866880       0.42597417 </v>
   </varray>
  </structure>
  <varray name="forces" >
   <v>       0.00000000      -0.00000000       0.00154254 </v>
   <v>       0.00000000       0.00000000      -0.00154254 </v>
   <v>       0.00000000       0.00000000       1.01311117 </v>
   <v>       0.00000000      -0.00000000      -1.01311117 </v>
   <v>       0.14057144      -0.00644672       0.17161890 </v>
   <v>      -0.07586874      -0.11851507       0.17161890 </v>
   <v>      -0.06470271       0.12496179       0.17161890 </v>
   <v>      -0.14057144       0.00644672      -0.17161890 </v>
   <v>       0.07586874       0.11851507      -0.17161890 </v>
   <v>       0.06470271      -0.12496179      -0.17161890 </v>
  </varray>
  <varray name="stress" >
   <v>       1.34189255      -0.00000130       0.00000000 </v>
   <v>       0.00000108       1.34189239       0.00000000 </v>
   <v>       0.00000000      -0.00000000      -1.53828730 </v>
  </varray>
  <energy>
   <i name="e_fr_energy">    -43.97632196 </i>
   <i name="e_wo_entrp">    -43.97632196 </i>
   <i name="e_0_energy">      0.00000000 </i>
  </energy>
  <time name="totalsc">  483.27  730.04</time>
 </calculation>
 <calculation>
  <scstep>
   <time name="dav">   20.48   30.89</time>
   <time name="total">   60.73   92.28</time>
   <energy>
    <i name="alphaZ">     10.87569084 </i>
    <i name="ewald">   5953.61494444 </i>
    <i name="hartreedc">  -7843.69872525 </i>
    <i name="XCdc">   -230.47545432 </i>
    <i name="pawpsdc">   1220.70648133 </i>
    <i name="pawaedc">   -903.52059843 </i>
    <i name="eentropy">      0.00000000 </i>
    <i name="bandstr">   -361.18251382 </i>
    <i name="atom">   2109.67816268 </i>
    <i name="e_fr_energy">    -44.00201253 </i>
    <i name="e_wo_entrp">    -44.00201253 </i>
    <i name="e_0_energy">    -44.00201253 </i>
   </energy>
  </scstep>
  <scstep>
   <time name="dav">   22.36   33.62</time>
   <time name="total">   63.26   95.70</time>
   <energy>
    <i name="e_fr_energy">    -44.01186792 </i>
    <i name="e_wo_entrp">    -44.01186792 </i>
    <i name="e_0_energy">    -44.01186792 </i>
   </energy>
  </scstep>
  <scstep>
   <time name="dav">   21.08   31.30</time>
   <time name="total">   61.72   93.95</time>
   <energy>
    <i name="e_fr_energy">    -44.00437529 </i>
    <i name="e_wo_entrp">    -44.00437529 </i>
    <i name="e_0_energy">    -44.00437529 </i>
   </energy>
  </scstep>
  <scstep>
   <time name="dav">   25.04   37.48</time>
   <time name="total">   64.81   99.13</time>
   <energy>
    <i name="e_fr_energy">    -44.00262959 </i>
    <i name="e_wo_entrp">    -44.00262959 </i>
    <i name="e_0_energy">    -44.00262959 </i>
   </energy>
  </scstep>
  <scstep>
   <time name="dav">   21.83   32.38</time>
   <time name="total">   63.73   95.27</time>
   <energy>
    <i name="e_fr_energy">    -44.00202268 </i>
    <i name="e_wo_entrp">    -44.00202268 </i>
    <i name="e_0_energy">    -44.00202268 </i>
   </energy>
  </scstep>
  <scstep>
   <time name="dav">   19.54   29.34</time>
   <time name="total">   60.40   91.29</time>
   <energy>
    <i name="e_fr_energy">    -44.00214464 </i>
    <i name="e_wo_entrp">    -44.00214464 </i>
    <i name="e_0_energy">    -44.00214464 </i>
   </energy>
  </scstep>
  <scstep>
   <time name="dav">   19.09   28.73</time>
   <time name="total">   60.24   90.66</time>
   <energy>
    <i name="e_fr_energy">    -44.00238012 </i>
    <i name="e_wo_entrp">    -44.00238012 </i>
    <i name="e_0_energy">    -44.00238012 </i>
   </energy>
  </scstep>
  <scstep>
   <time name="dav">   20.15   30.03</time>
   <time name="total">   61.46   93.08</time>
   <energy>
    <i name="e_fr_energy">    -44.00266062 </i>
    <i name="e_wo_entrp">    -44.00266062 </i>
    <i name="e_0_energy">    -44.00266062 </i>
   </energy>
  </scstep>
  <scstep>
   <time name="dav">   22.85   33.99</time>
   <time name="total">   64.12   95.84</time>
   <energy>
    <i name="e_fr_energy">    -44.00308023 </i>
    <i name="e_wo_entrp">    -44.00308023 </i>
    <i name="e_0_energy">    -44.00308023 </i>
   </energy>
  </scstep>
  <scstep>
   <time name="dav">   22.46   35.18</time>
   <time name="total">   63.14   96.27</time>
   <energy>
    <i name="e_fr_energy">    -44.00345248 </i>
    <i name="e_wo_entrp">    -44.00345248 </i>
    <i name="e_0_energy">    -44.00345248 </i>
   </energy>
  </scstep>
  <scstep>
   <time name="dav">   23.16   35.24</time>
   <time name="total">   63.64   96.86</time>
   <energy>
    <i name="e_fr_energy">    -44.00357654 </i>
    <i name="e_wo_entrp">    -44.00357654 </i>
    <i name="e_0_energy">    -44.00357654 </i>
   </energy>
  </scstep>
  <scstep>
   <time name="dav">   20.98   33.15</time>
   <time name="total">   60.48   92.62</time>
   <energy>
    <i name="alphaZ">     10.87569084 </i>
    <i name="ewald">   5953.61494444 </i>
    <i name="hartreedc">  -7838.80898004 </i>
    <i name="XCdc">   -230.44205249 </i>
    <i name="pawpsdc">   1217.73671489 </i>
    <i name="pawaedc">   -900.52228305 </i>
    <i name="eentropy">      0.00000000 </i>
    <i name="bandstr">   -366.13571869 </i>
    <i name="atom">   2109.67816268 </i>
    <i name="e_fr_energy">    -44.00352141 </i>
    <i name="e_wo_entrp">    -44.00352141 </i>
    <i name="e_0_energy">    -44.00352141 </i>
   </energy>
  </scstep>
  <structure>
   <crystal>
    <varray name="basis" >
     <v>       6.82842237      -0.00000003       0.00000000 </v>
     <v>       3.41421073       5.91358687      -0.00000000 </v>
     <v>      -0.00000000       0.00000000      23.01688711 </v>
    </varray>
    <i name="volume">    929.43269691 </i>
    <varray name="rec_basis" >
     <v>       0.14644671      -0.08455104       0.00000000 </v>
     <v>       0.00000000       0.16910211      -0.00000000 </v>
     <v>       0.00000000       0.00000000       0.04344636 </v>
    </varray>
   </crystal>
   <varray name="positions" >
    <v>       0.33333300       0.33333300       0.49990886 </v>
    <v>       0.66666700       0.66666700       0.50009114 </v>
    <v>       0.00000000       0.00000000       0.44821600 </v>
    <v>       0.00000000       0.00000000       0.55178400 </v>
    <v>       0.63469357       0.00022867       0.57457504 </v>
    <v>       0.00022867       0.36507876       0.57457504 </v>
    <v>       0.36507876       0.63469357       0.57457504 </v>
    <v>       0.36530643       0.99977133       0.42542496 </v>
    <v>       0.99977133       0.63492124       0.42542496 </v>
    <v>       0.63492124       0.36530643       0.42542496 </v>
   </varray>
  </structure>
  <varray name="forces" >
   <v>       0.00000000       0.00000000       0.00597371 </v>
   <v>       0.00000000      -0.00000000      -0.00597371 </v>
   <v>      -0.00000000       0.00000000       1.02001495 </v>
   <v>       0.00000000      -0.00000000      -1.02001495 </v>
   <v>      -0.02309590      -0.00185818       0.12841921 </v>
   <v>       0.00993872       0.02093072       0.12841921 </v>
   <v>       0.01315718      -0.01907255       0.12841921 </v>
   <v>       0.02309590       0.00185818      -0.12841921 </v>
   <v>      -0.00993872      -0.02093072      -0.12841921 </v>
   <v>      -0.01315718       0.01907255      -0.12841921 </v>
  </varray>
  <varray name="stress" >
   <v>       1.17747498      -0.00000039       0.00000000 </v>
   <v>       0.00000020       1.17747483       0.00000000 </v>
   <v>       0.00000000      -0.00000000      -1.97047017 </v>
  </varray>
  <energy>
   <i name="e_fr_energy">    -44.00352141 </i>
   <i name="e_wo_entrp">    -44.00352141 </i>
   <i name="e_0_energy">      0.00000000 </i>
  </energy>
  <time name="totalsc">  849.00 1285.11</time>
 </calculation>
 <calculation>
  <scstep>
   <time name="dav">   21.13   31.78</time>
   <time name="total">   60.98   92.85</time>
   <energy>
    <i name="alphaZ">     10.87914949 </i>
    <i name="ewald">   5750.97407138 </i>
    <i name="hartreedc">  -7645.37005458 </i>
    <i name="XCdc">   -230.48116478 </i>
    <i name="pawpsdc">   1217.72564858 </i>
    <i name="pawaedc">   -900.51025966 </i>
    <i name="eentropy">      0.00000000 </i>
    <i name="bandstr">   -356.86968087 </i>
    <i name="atom">   2109.67816268 </i>
    <i name="e_fr_energy">    -43.97412775 </i>
    <i name="e_wo_entrp">    -43.97412775 </i>
    <i name="e_0_energy">    -43.97412775 </i>
   </energy>
  </scstep>
  <scstep>
   <time name="dav">   20.70   32.29</time>
   <time name="total">   60.94   93.33</time>
   <energy>
    <i name="e_fr_energy">    -44.01826442 </i>
    <i name="e_wo_entrp">    -44.01826442 </i>
    <i name="e_0_energy">    -44.01826442 </i>
   </energy>
  </scstep>
  <scstep>
   <time name="dav">   27.16   40.40</time>
   <time name="total">   70.15  102.06</time>
   <energy>
    <i name="e_fr_energy">    -43.98859059 </i>
    <i name="e_wo_entrp">    -43.98859059 </i>
    <i name="e_0_energy">    -43.98859059 </i>
   </energy>
  </scstep>
  <scstep>
   <time name="dav">   24.00   36.62</time>
   <time name="total">   65.08   97.81</time>
   <energy>
    <i name="e_fr_energy">    -43.98175780 </i>
    <i name="e_wo_entrp">    -43.98175780 </i>
    <i name="e_0_energy">    -43.98175780 </i>
   </energy>
  </scstep>
  <scstep>
   <time name="dav">   25.51   38.36</time>
   <time name="total">   66.29   99.85</time>
   <energy>
    <i name="e_fr_energy">    -43.97936298 </i>
    <i name="e_wo_entrp">    -43.97936298 </i>
    <i name="e_0_energy">    -43.97936298 </i>
   </energy>
  </scstep>
  <scstep>
   <time name="dav">   20.53   31.42</time>
   <time name="total">   60.90   93.08</time>
   <energy>
    <i name="e_fr_energy">    -43.97976134 </i>
    <i name="e_wo_entrp">    -43.97976134 </i>
    <i name="e_0_energy">    -43.97976134 </i>
   </energy>
  </scstep>
  <scstep>
   <time name="dav">   21.23   30.82</time>
   <time name="total">   62.08   92.18</time>
   <energy>
    <i name="e_fr_energy">    -43.97988925 </i>
    <i name="e_wo_entrp">    -43.97988925 </i>
    <i name="e_0_energy">    -43.97988925 </i>
   </energy>
  </scstep>
  <scstep>
   <time name="dav">   22.16   33.34</time>
   <time name="total">   62.52   94.49</time>
   <energy>
    <i name="e_fr_energy">    -43.98054959 </i>
    <i name="e_wo_entrp">    -43.98054959 </i>
    <i name="e_0_energy">    -43.98054959 </i>
   </energy>
  </scstep>
  <scstep>
   <time name="dav">   23.32   34.14</time>
   <time name="total">   65.31   97.00</time>
   <energy>
    <i name="e_fr_energy">    -43.98111819 </i>
    <i name="e_wo_entrp">    -43.98111819 </i>
    <i name="e_0_energy">    -43.98111819 </i>
   </energy>
  </scstep>
  <scstep>
   <time name="dav">   21.29   32.48</time>
   <time name="total">   62.32   94.80</time>
   <energy>
    <i name="e_fr_energy">    -43.98173841 </i>
    <i name="e_wo_entrp">    -43.98173841 </i>
    <i name="e_0_energy">    -43.98173841 </i>
   </energy>
  </scstep>
  <scstep>
   <time name="dav">   22.82   35.61</time>
   <time name="total">   63.74   96.77</time>
   <energy>
    <i name="e_fr_energy">    -43.98185400 </i>
    <i name="e_wo_entrp">    -43.98185400 </i>
    <i name="e_0_energy">    -43.98185400 </i>
   </energy>
  </scstep>
  <scstep>
   <time name="dav">   22.97   32.54</time>
   <time name="total">   64.69   95.40</time>
   <energy>
    <i name="e_fr_energy">    -43.98167442 </i>
    <i name="e_wo_entrp">    -43.98167442 </i>
    <i name="e_0_energy">    -43.98167442 </i>
   </energy>
  </scstep>
  <scstep>
   <time name="dav">   21.44   32.16</time>
   <time name="total">   62.12   93.81</time>
   <energy>
    <i name="e_fr_energy">    -43.98137794 </i>
    <i name="e_wo_entrp">    -43.98137794 </i>
    <i name="e_0_energy">    -43.98137794 </i>
   </energy>
  </scstep>
  <scstep>
   <time name="dav">   21.37   32.70</time>
   <time name="total">   61.18   91.52</time>
   <energy>
    <i name="alphaZ">     10.87914949 </i>
    <i name="ewald">   5750.97407138 </i>
    <i name="hartreedc">  -7635.71628170 </i>
    <i name="XCdc">   -230.39711858 </i>
    <i name="pawpsdc">   1212.26501598 </i>
    <i name="pawaedc">   -895.00440978 </i>
    <i name="eentropy">      0.00000000 </i>
    <i name="bandstr">   -366.65989803 </i>
    <i name="atom">   2109.67816268 </i>
    <i name="e_fr_energy">    -43.98130856 </i>
    <i name="e_wo_entrp">    -43.98130856 </i>
    <i name="e_0_energy">    -43.98130856 </i>
   </energy>
  </scstep>
  <structure>
   <crystal>
    <varray name="basis" >
     <v>       6.85987750      -0.00000006       0.00000000 </v>
     <v>       3.42993831       5.94082779      -0.00000000 </v>
     <v>      -0.00000000       0.00000000      22.79903840 </v>
    </varray>
    <i name="volume">    929.13721587 </i>
    <varray name="rec_basis" >
     <v>       0.14577520      -0.08416334       0.00000000 </v>
     <v>       0.00000000       0.16832671      -0.00000000 </v>
     <v>       0.00000000       0.00000000       0.04386150 </v>
    </varray>
   </crystal>
   <varray name="positions" >
    <v>       0.33333300       0.33333300       0.49989516 </v>
    <v>       0.66666700       0.66666700       0.50010484 </v>
    <v>       0.00000000       0.00000000       0.44821600 </v>
    <v>       0.00000000       0.00000000       0.55178400 </v>
    <v>       0.64140280       0.00006577       0.57567865 </v>
    <v>       0.00006577       0.35853243       0.57567865 </v>
    <v>       0.35853243       0.64140280       0.57567865 </v>
    <v>       0.35859720       0.99993423       0.42432135 </v>
    <v>       0.99993423       0.64146757       0.42432135 </v>
    <v>       0.64146757       0.35859720       0.42432135 </v>
   </varray>
  </structure>
  <varray name="forces" >
   <v>       0.00000000       0.00000000       0.01345676 </v>
   <v>       0.00000000       0.00000000      -0.01345676 </v>
   <v>       0.00000000       0.00000000       1.01814598 </v>
   <v>       0.00000000       0.00000000      -1.01814598 </v>
   <v>      -0.38644452       0.00255864       0.07145642 </v>
   <v>       0.19543808       0.33339143       0.07145642 </v>
   <v>       0.19100644      -0.33595007       0.07145642 </v>
   <v>       0.38644452      -0.00255864      -0.07145642 </v>
   <v>      -0.19543808      -0.33339143      -0.07145642 </v>
   <v>      -0.19100644       0.33595007      -0.07145642 </v>
  </varray>
  <varray name="stress" >
   <v>       1.05128667      -0.00000016      -0.00000000 </v>
   <v>      -0.00000002       1.05128655      -0.00000000 </v>
   <v>       0.00000000      -0.00000000      -3.00783878 </v>
  </varray>
  <energy>
   <i name="e_fr_energy">    -43.98130856 </i>
   <i name="e_wo_entrp">    -43.98130856 </i>
   <i name="e_0_energy">      0.00000000 </i>
  </energy>
  <time name="totalsc">  988.78 1487.46</time>
 </calculation>
 <calculation>
  <scstep>
   <time name="dav">   19.64   30.49</time>
   <time name="total">   62.08   92.54</time>
   <energy>
    <i name="alphaZ">     10.87656563 </i>
    <i name="ewald">   5893.31183492 </i>
    <i name="hartreedc">  -7770.91384292 </i>
    <i name="XCdc">   -230.37554086 </i>
    <i name="pawpsdc">   1212.27147035 </i>
    <i name="pawaedc">   -895.01118702 </i>
    <i name="eentropy">      0.00000000 </i>
    <i name="bandstr">   -373.84088404 </i>
    <i name="atom">   2109.67816268 </i>
    <i name="e_fr_energy">    -44.00342126 </i>
    <i name="e_wo_entrp">    -44.00342126 </i>
    <i name="e_0_energy">    -44.00342126 </i>
   </energy>
  </scstep>
  <scstep>
   <time name="dav">   23.02   34.91</time>
   <time name="total">   63.87   97.32</time>
   <energy>
    <i name="e_fr_energy">    -44.02628980 </i>
    <i name="e_wo_entrp">    -44.02628980 </i>
    <i name="e_0_energy">    -44.02628980 </i>
   </energy>
  </scstep>
  <scstep>
   <time name="dav">   25.63   35.04</time>
   <time name="total">   67.14   96.83</time>
   <energy>
    <i name="e_fr_energy">    -44.01101070 </i>
    <i name="e_wo_entrp">    -44.01101070 </i>
    <i name="e_0_energy">    -44.01101070 </i>
   </energy>
  </scstep>
  <scstep>
   <time name="dav">   25.17   37.66</time>
   <time name="total">   66.77  100.58</time>
   <energy>
    <i name="e_fr_energy">    -44.00871028 </i>
    <i name="e_wo_entrp">    -44.00871028 </i>
    <i name="e_0_energy">    -44.00871028 </i>
   </energy>
  </scstep>
  <scstep>
   <time name="dav">   24.04   36.63</time>
   <time name="total">   65.55   98.68</time>
   <energy>
    <i name="e_fr_energy">    -44.00774178 </i>
    <i name="e_wo_entrp">    -44.00774178 </i>
    <i name="e_0_energy">    -44.00774178 </i>
   </energy>
  </scstep>
  <scstep>
   <time name="dav">   22.20   32.57</time>
   <time name="total">   63.69   93.93</time>
   <energy>
    <i name="e_fr_energy">    -44.00763414 </i>
    <i name="e_wo_entrp">    -44.00763414 </i>
    <i name="e_0_energy">    -44.00763414 </i>
   </energy>
  </scstep>
  <scstep>
   <time name="dav">   19.70   29.02</time>
   <time name="total">   60.87   90.66</time>
   <energy>
    <i name="e_fr_energy">    -44.00751249 </i>
    <i name="e_wo_entrp">    -44.00751249 </i>
    <i name="e_0_energy">    -44.00751249 </i>
   </energy>
  </scstep>
  <scstep>
   <time name="dav">   19.67   30.31</time>
   <time name="total">   59.40   89.97</time>
   <energy>
    <i name="alphaZ">     10.87656563 </i>
    <i name="ewald">   5893.31183492 </i>
    <i name="hartreedc">  -7774.97001350 </i>
    <i name="XCdc">   -230.44725891 </i>
    <i name="pawpsdc">   1216.26980863 </i>
    <i name="pawaedc">   -899.04546135 </i>
    <i name="eentropy">      0.00000000 </i>
    <i name="bandstr">   -369.68109406 </i>
    <i name="atom">   2109.67816268 </i>
    <i name="e_fr_energy">    -44.00745596 </i>
    <i name="e_wo_entrp">    -44.00745596 </i>
    <i name="e_0_energy">    -44.00745596 </i>
   </energy>
  </scstep>
  <structure>
   <crystal>
    <varray name="basis" >
     <v>       6.83774704      -0.00000004       0.00000000 </v>
     <v>       3.41887307       5.92166226      -0.00000000 </v>
     <v>      -0.00000000       0.00000000      22.95230729 </v>
    </varray>
    <i name="volume">    929.35794374 </i>
    <varray name="rec_basis" >
     <v>       0.14624700      -0.08443574       0.00000000 </v>
     <v>       0.00000000       0.16887150      -0.00000000 </v>
     <v>       0.00000000       0.00000000       0.04356860 </v>
    </varray>
   </crystal>
   <varray name="positions" >
    <v>       0.33333300       0.33333300       0.49990489 </v>
    <v>       0.66666700       0.66666700       0.50009511 </v>
    <v>       0.00000000       0.00000000       0.44821600 </v>
    <v>       0.00000000       0.00000000       0.55178400 </v>
    <v>       0.63670412       0.00017985       0.57489478 </v>
    <v>       0.00017985       0.36311703       0.57489478 </v>
    <v>       0.36311703       0.63670412       0.57489478 </v>
    <v>       0.36329588       0.99982015       0.42510522 </v>
    <v>       0.99982015       0.63688297       0.42510522 </v>
    <v>       0.63688297       0.36329588       0.42510522 </v>
   </varray>
  </structure>
  <varray name="forces" >
   <v>      -0.00000000       0.00000000       0.00895964 </v>
   <v>      -0.00000000       0.00000000      -0.00895964 </v>
   <v>      -0.00000000       0.00000000       1.01996282 </v>
   <v>      -0.00000000       0.00000000      -1.01996282 </v>
   <v>      -0.13572253      -0.00121896       0.10829489 </v>
   <v>       0.06680560       0.11814863       0.10829489 </v>
   <v>       0.06891693      -0.11692967       0.10829489 </v>
   <v>       0.13572253       0.00121896      -0.10829489 </v>
   <v>      -0.06680560      -0.11814863      -0.10829489 </v>
   <v>      -0.06891693       0.11692967      -0.10829489 </v>
  </varray>
  <varray name="stress" >
   <v>       1.19321811      -0.00000045      -0.00000000 </v>
   <v>       0.00000025       1.19321797       0.00000000 </v>
   <v>      -0.00000000       0.00000000      -1.82158940 </v>
  </varray>
  <energy>
   <i name="e_fr_energy">    -44.00745596 </i>
   <i name="e_wo_entrp">    -44.00745596 </i>
   <i name="e_0_energy">      0.00000000 </i>
  </energy>
  <time name="totalsc">  608.98  911.46</time>
 </calculation>
 <calculation>
  <scstep>
   <time name="dav">   25.88   39.09</time>
   <time name="total">   66.32  100.03</time>
   <energy>
    <i name="alphaZ">     10.85355538 </i>
    <i name="ewald">   5712.15141092 </i>
    <i name="hartreedc">  -7602.94982661 </i>
    <i name="XCdc">   -230.58859723 </i>
    <i name="pawpsdc">   1216.18985278 </i>
    <i name="pawaedc">   -898.96380120 </i>
    <i name="eentropy">      0.00000000 </i>
    <i name="bandstr">   -360.41102156 </i>
    <i name="atom">   2109.67816268 </i>
    <i name="e_fr_energy">    -44.04026484 </i>
    <i name="e_wo_entrp">    -44.04026484 </i>
    <i name="e_0_energy">    -44.04026484 </i>
   </energy>
  </scstep>
  <scstep>
   <time name="dav">   20.61   32.33</time>
   <time name="total">   60.96   94.24</time>
   <energy>
    <i name="e_fr_energy">    -44.03258259 </i>
    <i name="e_wo_entrp">    -44.03258259 </i>
    <i name="e_0_energy">    -44.03258259 </i>
   </energy>
  </scstep>
  <scstep>
   <time name="dav">   25.33   37.40</time>
   <time name="total">   64.57   97.69</time>
   <energy>
    <i name="e_fr_energy">    -44.02809218 </i>
    <i name="e_wo_entrp">    -44.02809218 </i>
    <i name="e_0_energy">    -44.02809218 </i>
   </energy>
  </scstep>
  <scstep>
   <time name="dav">   25.49   37.62</time>
   <time name="total">   66.12   99.66</time>
   <energy>
    <i name="e_fr_energy">    -44.02151089 </i>
    <i name="e_wo_entrp">    -44.02151089 </i>
    <i name="e_0_energy">    -44.02151089 </i>
   </energy>
  </scstep>
  <scstep>
   <time name="dav">   23.85   36.36</time>
   <time name="total">   66.38   98.03</time>
   <energy>
    <i name="e_fr_energy">    -44.02047086 </i>
    <i name="e_wo_entrp">    -44.02047086 </i>
    <i name="e_0_energy">    -44.02047086 </i>
   </energy>
  </scstep>
  <scstep>
   <time name="dav">   21.62   32.63</time>
   <time name="total">   65.55   94.82</time>
   <energy>
    <i name="e_fr_energy">    -44.02086906 </i>
    <i name="e_wo_entrp">    -44.02086906 </i>
    <i name="e_0_energy">    -44.02086906 </i>
   </energy>
  </scstep>
  <scstep>
   <time name="dav">   21.03   31.54</time>
   <time name="total">   63.55   93.97</time>
   <energy>
    <i name="e_fr_energy">    -44.02119673 </i>
    <i name="e_wo_entrp">    -44.02119673 </i>
    <i name="e_0_energy">    -44.02119673 </i>
   </energy>
  </scstep>
  <scstep>
   <time name="dav">   21.25   31.39</time>
   <time name="total">   61.76   92.82</time>
   <energy>
    <i name="e_fr_energy">    -44.02177379 </i>
    <i name="e_wo_entrp">    -44.02177379 </i>
    <i name="e_0_energy">    -44.02177379 </i>
   </energy>
  </scstep>
  <scstep>
   <time name="dav">   21.60   34.42</time>
   <time name="total">   61.32   95.07</time>
   <energy>
    <i name="e_fr_energy">    -44.02243897 </i>
    <i name="e_wo_entrp">    -44.02243897 </i>
    <i name="e_0_energy">    -44.02243897 </i>
   </energy>
  </scstep>
  <scstep>
   <time name="dav">   25.52   39.71</time>
   <time name="total">   66.48  101.13</time>
   <energy>
    <i name="e_fr_energy">    -44.02295965 </i>
    <i name="e_wo_entrp">    -44.02295965 </i>
    <i name="e_0_energy">    -44.02295965 </i>
   </energy>
  </scstep>
  <scstep>
   <time name="dav">   21.94   34.02</time>
   <time name="total">   63.19   96.08</time>
   <energy>
    <i name="e_fr_energy">    -44.02328668 </i>
    <i name="e_wo_entrp">    -44.02328668 </i>
    <i name="e_0_energy">    -44.02328668 </i>
   </energy>
  </scstep>
  <scstep>
   <time name="dav">   23.54   35.37</time>
   <time name="total">   63.03   94.72</time>
   <energy>
    <i name="alphaZ">     10.85355538 </i>
    <i name="ewald">   5712.15141092 </i>
    <i name="hartreedc">  -7597.55292243 </i>
    <i name="XCdc">   -230.59696931 </i>
    <i name="pawpsdc">   1212.55764913 </i>
    <i name="pawaedc">   -895.26576584 </i>
    <i name="eentropy">      0.00000000 </i>
    <i name="bandstr">   -365.84850472 </i>
    <i name="atom">   2109.67816268 </i>
    <i name="e_fr_energy">    -44.02338420 </i>
    <i name="e_wo_entrp">    -44.02338420 </i>
    <i name="e_0_energy">    -44.02338420 </i>
   </energy>
  </scstep>
  <structure>
   <crystal>
    <varray name="basis" >
     <v>       6.87537373      -0.00000006      -0.00000000 </v>
     <v>       3.43768643       5.95424792      -0.00000000 </v>
     <v>      -0.00000000       0.00000000      22.74990289 </v>
    </varray>
    <i name="volume">    931.32824378 </i>
    <varray name="rec_basis" >
     <v>       0.14544664      -0.08397365       0.00000000 </v>
     <v>       0.00000000       0.16794732      -0.00000000 </v>
     <v>       0.00000000       0.00000000       0.04395623 </v>
    </varray>
   </crystal>
   <varray name="positions" >
    <v>       0.33333300       0.33333300       0.49992879 </v>
    <v>       0.66666700       0.66666700       0.50007121 </v>
    <v>       0.00000000       0.00000000       0.44821600 </v>
    <v>       0.00000000       0.00000000       0.55178400 </v>
    <v>       0.63657209       0.00013679       0.57541181 </v>
    <v>       0.00013679       0.36329212       0.57541181 </v>
    <v>       0.36329212       0.63657209       0.57541181 </v>
    <v>       0.36342791       0.99986321       0.42458819 </v>
    <v>       0.99986321       0.63670788       0.42458819 </v>
    <v>       0.63670788       0.36342791       0.42458819 </v>
   </varray>
  </structure>
  <varray name="forces" >
   <v>       0.00000000      -0.00000000       0.00598708 </v>
   <v>       0.00000000      -0.00000000      -0.00598708 </v>
   <v>      -0.00000000       0.00000000       0.76385412 </v>
   <v>       0.00000000      -0.00000000      -0.76385412 </v>
   <v>      -0.04728240      -0.00103575       0.06503957 </v>
   <v>       0.02274420       0.04146563       0.06503957 </v>
   <v>       0.02453819      -0.04042988       0.06503957 </v>
   <v>       0.04728240       0.00103575      -0.06503957 </v>
   <v>      -0.02274420      -0.04146563      -0.06503957 </v>
   <v>      -0.02453819       0.04042988      -0.06503957 </v>
  </varray>
  <varray name="stress" >
   <v>      -1.70443095      -0.00000004      -0.00000000 </v>
   <v>       0.00000032      -1.70443074       0.00000000 </v>
   <v>      -0.00000000      -0.00000000      -2.14899150 </v>
  </varray>
  <energy>
   <i name="e_fr_energy">    -44.02338420 </i>
   <i name="e_wo_entrp">    -44.02338420 </i>
   <i name="e_0_energy">      0.00000000 </i>
  </energy>
  <time name="totalsc">  868.84 1309.58</time>
 </calculation>
 <calculation>
  <scstep>
   <time name="dav">   23.38   34.31</time>
   <time name="total">   63.33   95.96</time>
   <energy>
    <i name="alphaZ">     10.84911960 </i>
    <i name="ewald">   5676.19814690 </i>
    <i name="hartreedc">  -7563.12479779 </i>
    <i name="XCdc">   -230.62684391 </i>
    <i name="pawpsdc">   1212.54564377 </i>
    <i name="pawaedc">   -895.25277003 </i>
    <i name="eentropy">      0.00000000 </i>
    <i name="bandstr">   -364.29133782 </i>
    <i name="atom">   2109.67816268 </i>
    <i name="e_fr_energy">    -44.02467659 </i>
    <i name="e_wo_entrp">    -44.02467659 </i>
    <i name="e_0_energy">    -44.02467659 </i>
   </energy>
  </scstep>
  <scstep>
   <time name="dav">   20.55   31.26</time>
   <time name="total">   60.78   92.95</time>
   <energy>
    <i name="e_fr_energy">    -44.02444215 </i>
    <i name="e_wo_entrp">    -44.02444215 </i>
    <i name="e_0_energy">    -44.02444215 </i>
   </energy>
  </scstep>
  <scstep>
   <time name="dav">   22.14   33.84</time>
   <time name="total">   65.28   96.08</time>
   <energy>
    <i name="e_fr_energy">    -44.02429915 </i>
    <i name="e_wo_entrp">    -44.02429915 </i>
    <i name="e_0_energy">    -44.02429915 </i>
   </energy>
  </scstep>
  <scstep>
   <time name="dav">   22.49   34.07</time>
   <time name="total">   63.26   96.63</time>
   <energy>
    <i name="e_fr_energy">    -44.02400878 </i>
    <i name="e_wo_entrp">    -44.02400878 </i>
    <i name="e_0_energy">    -44.02400878 </i>
   </energy>
  </scstep>
  <scstep>
   <time name="dav">   20.95   31.72</time>
   <time name="total">   63.41   93.61</time>
   <energy>
    <i name="e_fr_energy">    -44.02389279 </i>
    <i name="e_wo_entrp">    -44.02389279 </i>
    <i name="e_0_energy">    -44.02389279 </i>
   </energy>
  </scstep>
  <scstep>
   <time name="dav">   17.72   27.14</time>
   <time name="total">   57.14   86.25</time>
   <energy>
    <i name="alphaZ">     10.84911960 </i>
    <i name="ewald">   5676.19814690 </i>
    <i name="hartreedc">  -7562.26666899 </i>
    <i name="XCdc">   -230.62313286 </i>
    <i name="pawpsdc">   1211.78090379 </i>
    <i name="pawaedc">   -894.47452122 </i>
    <i name="eentropy">      0.00000000 </i>
    <i name="bandstr">   -365.16584739 </i>
    <i name="atom">   2109.67816268 </i>
    <i name="e_fr_energy">    -44.02383749 </i>
    <i name="e_wo_entrp">    -44.02383749 </i>
    <i name="e_0_energy">    -44.02383749 </i>
   </energy>
  </scstep>
  <structure>
   <crystal>
    <varray name="basis" >
     <v>       6.88293399      -0.00000006      -0.00000000 </v>
     <v>       3.44146656       5.96079530      -0.00000000 </v>
     <v>      -0.00000000       0.00000000      22.70923415 </v>
    </varray>
    <i name="volume">    931.70902685 </i>
    <varray name="rec_basis" >
     <v>       0.14528688      -0.08388141       0.00000000 </v>
     <v>       0.00000000       0.16776285      -0.00000000 </v>
     <v>       0.00000000       0.00000000       0.04403495 </v>
    </varray>
   </crystal>
   <varray name="positions" >
    <v>       0.33333300       0.33333300       0.49993363 </v>
    <v>       0.66666700       0.66666700       0.50006637 </v>
    <v>       0.00000000       0.00000000       0.44821600 </v>
    <v>       0.00000000       0.00000000       0.55178400 </v>
    <v>       0.63654571       0.00012818       0.57551662 </v>
    <v>       0.00012818       0.36332711       0.57551662 </v>
    <v>       0.36332711       0.63654571       0.57551662 </v>
    <v>       0.36345429       0.99987182       0.42448338 </v>
    <v>       0.99987182       0.63667289       0.42448338 </v>
    <v>       0.63667289       0.36345429       0.42448338 </v>
   </varray>
  </structure>
  <varray name="forces" >
   <v>       0.00000000       0.00000000       0.00569409 </v>
   <v>       0.00000000      -0.00000000      -0.00569409 </v>
   <v>      -0.00000000       0.00000000       0.71215123 </v>
   <v>       0.00000000      -0.00000000      -0.71215123 </v>
   <v>      -0.02862055      -0.00112233       0.05591288 </v>
   <v>       0.01333831       0.02534729       0.05591288 </v>
   <v>       0.01528224      -0.02422496       0.05591288 </v>
   <v>       0.02862055       0.00112233      -0.05591288 </v>
   <v>      -0.01333831      -0.02534729      -0.05591288 </v>
   <v>      -0.01528224       0.02422496      -0.05591288 </v>
  </varray>
  <varray name="stress" >
   <v>      -2.25700200       0.00000001      -0.00000000 </v>
   <v>       0.00000036      -2.25700173       0.00000000 </v>
   <v>       0.00000000       0.00000000      -2.27312092 </v>
  </varray>
  <energy>
   <i name="e_fr_energy">    -44.02383749 </i>
   <i name="e_wo_entrp">    -44.02383749 </i>
   <i name="e_0_energy">      0.00000000 </i>
  </energy>
  <time name="totalsc">  471.91  713.90</time>
 </calculation>
 <calculation>
  <scstep>
   <time name="dav">   25.53   38.12</time>
   <time name="total">   65.70   99.80</time>
   <energy>
    <i name="alphaZ">     10.93747873 </i>
    <i name="ewald">   5608.32181495 </i>
    <i name="hartreedc">  -7504.01018344 </i>
    <i name="XCdc">   -230.49447791 </i>
    <i name="pawpsdc">   1211.79288079 </i>
    <i name="pawaedc">   -894.48691220 </i>
    <i name="eentropy">      0.00000000 </i>
    <i name="bandstr">   -355.79250366 </i>
    <i name="atom">   2109.67816268 </i>
    <i name="e_fr_energy">    -44.05374006 </i>
    <i name="e_wo_entrp">    -44.05374006 </i>
    <i name="e_0_energy">    -44.05374006 </i>
   </energy>
  </scstep>
  <scstep>
   <time name="dav">   24.18   36.66</time>
   <time name="total">   64.42   98.42</time>
   <energy>
    <i name="e_fr_energy">    -44.04844871 </i>
    <i name="e_wo_entrp">    -44.04844871 </i>
    <i name="e_0_energy">    -44.04844871 </i>
   </energy>
  </scstep>
  <scstep>
   <time name="dav">   23.62   36.18</time>
   <time name="total">   65.10   98.79</time>
   <energy>
    <i name="e_fr_energy">    -44.03791613 </i>
    <i name="e_wo_entrp">    -44.03791613 </i>
    <i name="e_0_energy">    -44.03791613 </i>
   </energy>
  </scstep>
  <scstep>
   <time name="dav">   27.28   41.33</time>
   <time name="total">   69.84  103.43</time>
   <energy>
    <i name="e_fr_energy">    -44.03207908 </i>
    <i name="e_wo_entrp">    -44.03207908 </i>
    <i name="e_0_energy">    -44.03207908 </i>
   </energy>
  </scstep>
  <scstep>
   <time name="dav">   20.30   31.14</time>
   <time name="total">   59.34   90.05</time>
   <energy>
    <i name="alphaZ">     10.93747873 </i>
    <i name="ewald">   5608.32181495 </i>
    <i name="hartreedc">  -7499.03268071 </i>
    <i name="XCdc">   -230.54421638 </i>
    <i name="pawpsdc">   1212.11942551 </i>
    <i name="pawaedc">   -894.79562261 </i>
    <i name="eentropy">      0.00000000 </i>
    <i name="bandstr">   -360.71638848 </i>
    <i name="atom">   2109.67816268 </i>
    <i name="e_fr_energy">    -44.03202631 </i>
    <i name="e_wo_entrp">    -44.03202631 </i>
    <i name="e_0_energy">    -44.03202631 </i>
   </energy>
  </scstep>
  <structure>
   <crystal>
    <varray name="basis" >
     <v>       6.87959212      -0.00000007      -0.00000000 </v>
     <v>       3.43979563       5.95790115      -0.00000000 </v>
     <v>      -0.00000000       0.00000000      22.54766595 </v>
    </varray>
    <i name="volume">    924.18215501 </i>
    <varray name="rec_basis" >
     <v>       0.14535745      -0.08392216       0.00000000 </v>
     <v>       0.00000000       0.16784434      -0.00000000 </v>
     <v>       0.00000000       0.00000000       0.04435049 </v>
    </varray>
   </crystal>
   <varray name="positions" >
    <v>       0.33333300       0.33333300       0.49995055 </v>
    <v>       0.66666700       0.66666700       0.50004945 </v>
    <v>       0.00000000       0.00000000       0.44821600 </v>
    <v>       0.00000000       0.00000000       0.55178400 </v>
    <v>       0.63639155       0.00010410       0.57581446 </v>
    <v>       0.00010410       0.36350535       0.57581446 </v>
    <v>       0.36350535       0.63639155       0.57581446 </v>
    <v>       0.36360845       0.99989590       0.42418554 </v>
    <v>       0.99989590       0.63649465       0.42418554 </v>
    <v>       0.63649465       0.36360845       0.42418554 </v>
   </varray>
  </structure>
  <varray name="forces" >
   <v>       0.00000000       0.00000000       0.00407954 </v>
[...]
        <r>  0.0067  0.0011  0.0060  0.0353  0.0003  0.0002  0.0005  0.0000  0.0036 </r>
        <r>  0.0019  0.0248  0.0036  0.0083  0.0029  0.0001  0.0000  0.0000  0.0010 </r>
        <r>  0.0067  0.0217  0.0060  0.0146  0.0033  0.0001  0.0005  0.0002  0.0006 </r>
       </set>
       <set comment="band 30">
        <r>  0.0001  0.0004  0.0000  0.0001  0.1061  0.0099  0.0429  0.0093  0.2557 </r>
        <r>  0.0001  0.0004  0.0000  0.0001  0.1061  0.0099  0.0429  0.0093  0.2557 </r>
        <r>  0.0000  0.0001  0.0000  0.0005  0.0000  0.0000  0.0000  0.0000  0.0000 </r>
        <r>  0.0000  0.0001  0.0000  0.0005  0.0000  0.0000  0.0000  0.0000  0.0000 </r>
        <r>  0.0003  0.0019  0.0011  0.0001  0.0005  0.0001  0.0003  0.0000  0.0001 </r>
        <r>  0.0000  0.0009  0.0000  0.0027  0.0001  0.0003  0.0000  0.0008  0.0003 </r>
        <r>  0.0003  0.0009  0.0011  0.0011  0.0000  0.0000  0.0003  0.0000  0.0006 </r>
        <r>  0.0003  0.0019  0.0011  0.0001  0.0005  0.0001  0.0003  0.0000  0.0001 </r>
        <r>  0.0000  0.0009  0.0000  0.0027  0.0001  0.0003  0.0000  0.0008  0.0003 </r>
        <r>  0.0003  0.0009  0.0011  0.0011  0.0000  0.0000  0.0003  0.0000  0.0006 </r>
       </set>
       <set comment="band 31">
        <r>  0.0041  0.0002  0.0005  0.0006  0.2073  0.0076  0.1113  0.0078  0.0517 </r>
        <r>  0.0041  0.0002  0.0005  0.0006  0.2073  0.0076  0.1113  0.0078  0.0517 </r>
        <r>  0.0001  0.0033  0.0000  0.0074  0.0000  0.0000  0.0000  0.0000  0.0000 </r>
        <r>  0.0001  0.0033  0.0000  0.0074  0.0000  0.0000  0.0000  0.0000  0.0000 </r>
        <r>  0.0012  0.0038  0.0008  0.0021  0.0003  0.0008  0.0005  0.0000  0.0002 </r>
        <r>  0.0000  0.0001  0.0000  0.0010  0.0005  0.0003  0.0000  0.0008  0.0010 </r>
        <r>  0.0011  0.0005  0.0010  0.0042  0.0000  0.0001  0.0005  0.0005  0.0004 </r>
        <r>  0.0012  0.0038  0.0008  0.0021  0.0003  0.0008  0.0005  0.0000  0.0002 </r>
        <r>  0.0000  0.0001  0.0000  0.0010  0.0005  0.0003  0.0000  0.0008  0.0010 </r>
        <r>  0.0011  0.0005  0.0010  0.0042  0.0000  0.0001  0.0005  0.0005  0.0004 </r>
       </set>
       <set comment="band 32">
        <r>  0.0019  0.0003  0.0000  0.0005  0.0504  0.0045  0.2087  0.0026  0.1088 </r>
        <r>  0.0019  0.0003  0.0000  0.0005  0.0504  0.0045  0.2087  0.0026  0.1088 </r>
        <r>  0.0078  0.0033  0.0003  0.0020  0.0000  0.0000  0.0000  0.0000  0.0000 </r>
        <r>  0.0078  0.0033  0.0003  0.0020  0.0000  0.0000  0.0000  0.0000  0.0000 </r>
        <r>  0.0000  0.0011  0.0006  0.0037  0.0001  0.0003  0.0000  0.0003  0.0001 </r>
        <r>  0.0011  0.0036  0.0020  0.0010  0.0011  0.0000  0.0014  0.0000  0.0006 </r>
        <r>  0.0002  0.0024  0.0004  0.0037  0.0002  0.0000  0.0001  0.0007  0.0001 </r>
        <r>  0.0000  0.0011  0.0006  0.0037  0.0001  0.0003  0.0000  0.0003  0.0001 </r>
        <r>  0.0011  0.0036  0.0020  0.0010  0.0011  0.0000  0.0014  0.0000  0.0006 </r>
        <r>  0.0002  0.0024  0.0004  0.0037  0.0002  0.0000  0.0001  0.0007  0.0001 </r>
       </set>
       <set comment="band 33">
        <r>  0.0006  0.0001  0.0013  0.0001  0.0027  0.1590  0.0817  0.0679  0.0020 </r>
        <r>  0.0006  0.0001  0.0013  0.0001  0.0027  0.1590  0.0817  0.0679  0.0020 </r>
        <r>  0.0000  0.0015  0.0000  0.0046  0.0000  0.0000  0.0000  0.0000  0.0000 </r>
        <r>  0.0000  0.0015  0.0000  0.0046  0.0000  0.0000  0.0000  0.0000  0.0000 </r>
        <r>  0.0035  0.0026  0.0045  0.0079  0.0016  0.0005  0.0001  0.0003  0.0002 </r>
        <r>  0.0000  0.0013  0.0000  0.0038  0.0006  0.0003  0.0000  0.0008  0.0019 </r>
        <r>  0.0035  0.0034  0.0045  0.0071  0.0003  0.0000  0.0001  0.0008  0.0015 </r>
        <r>  0.0035  0.0026  0.0045  0.0079  0.0016  0.0005  0.0001  0.0003  0.0002 </r>
        <r>  0.0000  0.0013  0.0000  0.0038  0.0006  0.0003  0.0000  0.0008  0.0019 </r>
        <r>  0.0035  0.0034  0.0045  0.0071  0.0003  0.0000  0.0001  0.0008  0.0015 </r>
       </set>
       <set comment="band 34">
        <r>  0.0009  0.0001  0.0000  0.0001  0.0788  0.0493  0.0113  0.1021  0.0618 </r>
        <r>  0.0009  0.0001  0.0000  0.0001  0.0788  0.0493  0.0113  0.1021  0.0618 </r>
        <r>  0.0027  0.0016  0.0103  0.0005  0.0000  0.0000  0.0000  0.0000  0.0000 </r>
        <r>  0.0027  0.0016  0.0103  0.0005  0.0000  0.0000  0.0000  0.0000  0.0000 </r>
        <r>  0.0032  0.0011  0.0052  0.0004  0.0001  0.0002  0.0002  0.0023  0.0004 </r>
        <r>  0.0082  0.0012  0.0046  0.0004  0.0001  0.0013  0.0001  0.0004  0.0000 </r>
        <r>  0.0032  0.0004  0.0052  0.0011  0.0003  0.0013  0.0002  0.0011  0.0002 </r>
        <r>  0.0032  0.0011  0.0052  0.0004  0.0001  0.0002  0.0002  0.0023  0.0004 </r>
        <r>  0.0082  0.0012  0.0046  0.0004  0.0001  0.0013  0.0001  0.0004  0.0000 </r>
        <r>  0.0032  0.0004  0.0052  0.0011  0.0003  0.0013  0.0002  0.0011  0.0002 </r>
       </set>
       <set comment="band 35">
        <r>  0.0015  0.0002  0.0003  0.0001  0.0421  0.1120  0.0217  0.1086  0.0152 </r>
        <r>  0.0015  0.0002  0.0003  0.0001  0.0421  0.1120  0.0217  0.1086  0.0152 </r>
        <r>  0.0036  0.0025  0.0009  0.0008  0.0000  0.0000  0.0000  0.0000  0.0000 </r>
        <r>  0.0036  0.0025  0.0009  0.0008  0.0000  0.0000  0.0000  0.0000  0.0000 </r>
        <r>  0.0015  0.0073  0.0049  0.0003  0.0006  0.0014  0.0000  0.0004  0.0000 </r>
        <r>  0.0035  0.0271  0.0077  0.0090  0.0006  0.0003  0.0001  0.0001  0.0002 </r>
        <r>  0.0015  0.0025  0.0050  0.0051  0.0001  0.0014  0.0000  0.0005  0.0006 </r>
        <r>  0.0015  0.0073  0.0049  0.0003  0.0006  0.0014  0.0000  0.0004  0.0000 </r>
        <r>  0.0035  0.0271  0.0077  0.0090  0.0006  0.0003  0.0001  0.0001  0.0002 </r>
        <r>  0.0015  0.0025  0.0050  0.0051  0.0001  0.0014  0.0000  0.0005  0.0006 </r>
       </set>
       <set comment="band 36">
        <r>  0.0012  0.0004  0.0001  0.0003  0.0040  0.0843  0.0070  0.1981  0.0104 </r>
        <r>  0.0012  0.0004  0.0001  0.0003  0.0040  0.0843  0.0070  0.1981  0.0104 </r>
        <r>  0.0000  0.0008  0.0000  0.0024  0.0000  0.0000  0.0000  0.0000  0.0000 </r>
        <r>  0.0000  0.0008  0.0000  0.0024  0.0000  0.0000  0.0000  0.0000  0.0000 </r>
        <r>  0.0032  0.0238  0.0017  0.0018  0.0005  0.0005  0.0001  0.0002  0.0002 </r>
        <r>  0.0000  0.0059  0.0000  0.0177  0.0003  0.0008  0.0000  0.0025  0.0008 </r>
        <r>  0.0032  0.0025  0.0016  0.0230  0.0000  0.0000  0.0001  0.0006  0.0006 </r>
        <r>  0.0032  0.0238  0.0017  0.0018  0.0005  0.0005  0.0001  0.0002  0.0002 </r>
        <r>  0.0000  0.0059  0.0000  0.0177  0.0003  0.0008  0.0000  0.0025  0.0008 </r>
        <r>  0.0032  0.0025  0.0016  0.0230  0.0000  0.0000  0.0001  0.0006  0.0006 </r>
       </set>
       <set comment="band 37">
        <r>  0.0130  0.0004  0.0012  0.0010  0.0055  0.0170  0.0047  0.0063  0.0078 </r>
        <r>  0.0130  0.0004  0.0012  0.0010  0.0055  0.0170  0.0047  0.0063  0.0078 </r>
        <r>  0.0003  0.0329  0.0008  0.0109  0.0000  0.0000  0.0000  0.0000  0.0000 </r>
        <r>  0.0003  0.0329  0.0008  0.0109  0.0000  0.0000  0.0000  0.0000  0.0000 </r>
        <r>  0.0026  0.0024  0.0042  0.0087  0.0032  0.0017  0.0000  0.0008  0.0014 </r>
        <r>  0.0136  0.0216  0.0040  0.0072  0.0011  0.0033  0.0001  0.0011  0.0004 </r>
        <r>  0.0026  0.0039  0.0042  0.0073  0.0024  0.0003  0.0000  0.0023  0.0022 </r>
        <r>  0.0026  0.0024  0.0042  0.0087  0.0032  0.0017  0.0000  0.0008  0.0014 </r>
        <r>  0.0136  0.0216  0.0040  0.0072  0.0011  0.0033  0.0001  0.0011  0.0004 </r>
        <r>  0.0026  0.0039  0.0042  0.0073  0.0024  0.0003  0.0000  0.0023  0.0022 </r>
       </set>
       <set comment="band 38">
        <r>  0.0030  0.0002  0.0000  0.0006  0.0507  0.0730  0.0000  0.0420  0.0241 </r>
        <r>  0.0030  0.0002  0.0000  0.0006  0.0507  0.0730  0.0000  0.0420  0.0241 </r>
        <r>  0.0227  0.0011  0.0314  0.0004  0.0000  0.0000  0.0000  0.0000  0.0000 </r>
        <r>  0.0227  0.0011  0.0314  0.0004  0.0000  0.0000  0.0000  0.0000  0.0000 </r>
        <r>  0.0009  0.0004  0.0031  0.0229  0.0004  0.0005  0.0006  0.0003  0.0019 </r>
        <r>  0.0002  0.0172  0.0025  0.0057  0.0014  0.0002  0.0004  0.0001  0.0005 </r>
        <r>  0.0009  0.0146  0.0031  0.0087  0.0022  0.0006  0.0006  0.0001  0.0001 </r>
        <r>  0.0009  0.0004  0.0031  0.0229  0.0004  0.0005  0.0006  0.0003  0.0019 </r>
        <r>  0.0002  0.0172  0.0025  0.0057  0.0014  0.0002  0.0004  0.0001  0.0005 </r>
        <r>  0.0009  0.0146  0.0031  0.0087  0.0022  0.0006  0.0006  0.0001  0.0001 </r>
       </set>
       <set comment="band 39">
        <r>  0.0134  0.0020  0.0007  0.0012  0.0139  0.0330  0.0052  0.0129  0.0047 </r>
        <r>  0.0134  0.0020  0.0007  0.0012  0.0139  0.0330  0.0052  0.0129  0.0047 </r>
        <r>  0.0000  0.0084  0.0000  0.0252  0.0000  0.0000  0.0000  0.0000  0.0000 </r>
        <r>  0.0000  0.0084  0.0000  0.0252  0.0000  0.0000  0.0000  0.0000  0.0000 </r>
        <r>  0.0056  0.0183  0.0011  0.0254  0.0009  0.0015  0.0001  0.0030  0.0011 </r>
        <r>  0.0000  0.0033  0.0000  0.0098  0.0006  0.0002  0.0000  0.0005  0.0019 </r>
        <r>  0.0056  0.0417  0.0011  0.0020  0.0011  0.0037  0.0001  0.0008  0.0008 </r>
        <r>  0.0056  0.0183  0.0011  0.0254  0.0009  0.0015  0.0001  0.0030  0.0011 </r>
        <r>  0.0000  0.0033  0.0000  0.0098  0.0006  0.0002  0.0000  0.0005  0.0019 </r>
        <r>  0.0056  0.0417  0.0011  0.0020  0.0011  0.0037  0.0001  0.0008  0.0008 </r>
       </set>
       <set comment="band 40">
        <r>  0.0200  0.0001  0.0037  0.0002  0.0101  0.0037  0.0256  0.0110  0.0152 </r>
        <r>  0.0200  0.0001  0.0037  0.0002  0.0101  0.0037  0.0256  0.0110  0.0152 </r>
        <r>  0.0009  0.0355  0.0013  0.0118  0.0000  0.0000  0.0000  0.0000  0.0000 </r>
        <r>  0.0009  0.0355  0.0013  0.0118  0.0000  0.0000  0.0000  0.0000  0.0000 </r>
        <r>  0.0014  0.0022  0.0007  0.0001  0.0089  0.0000  0.0002  0.0000  0.0011 </r>
        <r>  0.0170  0.0160  0.0021  0.0053  0.0031  0.0006  0.0010  0.0002  0.0010 </r>
        <r>  0.0014  0.0005  0.0007  0.0019  0.0045  0.0001  0.0002  0.0000  0.0055 </r>
        <r>  0.0014  0.0022  0.0007  0.0001  0.0089  0.0000  0.0002  0.0000  0.0011 </r>
        <r>  0.0170  0.0160  0.0021  0.0053  0.0031  0.0006  0.0010  0.0002  0.0010 </r>
        <r>  0.0014  0.0005  0.0007  0.0019  0.0045  0.0001  0.0002  0.0000  0.0055 </r>
       </set>
       <set comment="band 41">
        <r>  0.0120  0.0007  0.0016  0.0002  0.0125  0.0136  0.0077  0.0165  0.0196 </r>
        <r>  0.0120  0.0007  0.0016  0.0002  0.0125  0.0136  0.0077  0.0165  0.0196 </r>
        <r>  0.0000  0.0100  0.0000  0.0298  0.0000  0.0000  0.0000  0.0000  0.0000 </r>
        <r>  0.0000  0.0100  0.0000  0.0298  0.0000  0.0000  0.0000  0.0000  0.0000 </r>
        <r>  0.0056  0.0065  0.0009  0.0151  0.0027  0.0001  0.0017  0.0001  0.0028 </r>
        <r>  0.0000  0.0037  0.0000  0.0110  0.0027  0.0001  0.0000  0.0004  0.0082 </r>
        <r>  0.0057  0.0209  0.0009  0.0007  0.0011  0.0000  0.0017  0.0002  0.0045 </r>
        <r>  0.0056  0.0065  0.0009  0.0151  0.0027  0.0001  0.0017  0.0001  0.0028 </r>
        <r>  0.0000  0.0037  0.0000  0.0110  0.0027  0.0001  0.0000  0.0004  0.0082 </r>
        <r>  0.0057  0.0209  0.0009  0.0007  0.0011  0.0000  0.0017  0.0002  0.0045 </r>
       </set>
       <set comment="band 42">
        <r>  0.0000  0.0069  0.0012  0.0037  0.0291  0.0026  0.0015  0.0050  0.0254 </r>
        <r>  0.0000  0.0069  0.0012  0.0037  0.0291  0.0026  0.0015  0.0050  0.0254 </r>
        <r>  0.0175  0.0005  0.0277  0.0002  0.0000  0.0000  0.0000  0.0000  0.0000 </r>
        <r>  0.0175  0.0005  0.0277  0.0002  0.0000  0.0000  0.0000  0.0000  0.0000 </r>
        <r>  0.0014  0.0003  0.0083  0.0010  0.0001  0.0010  0.0006  0.0061  0.0001 </r>
        <r>  0.0011  0.0002  0.0188  0.0001  0.0005  0.0033  0.0008  0.0011  0.0002 </r>
        <r>  0.0014  0.0005  0.0083  0.0008  0.0000  0.0069  0.0006  0.0002  0.0002 </r>
        <r>  0.0014  0.0003  0.0083  0.0010  0.0001  0.0010  0.0006  0.0061  0.0001 </r>
        <r>  0.0011  0.0002  0.0188  0.0001  0.0005  0.0033  0.0008  0.0011  0.0002 </r>
        <r>  0.0014  0.0005  0.0083  0.0008  0.0000  0.0069  0.0006  0.0002  0.0002 </r>
       </set>
       <set comment="band 43">
        <r>  0.0056  0.0004  0.0005  0.0010  0.0005  0.0070  0.0082  0.0035  0.0013 </r>
        <r>  0.0056  0.0004  0.0005  0.0010  0.0005  0.0070  0.0082  0.0035  0.0013 </r>
        <r>  0.0013  0.0031  0.0047  0.0010  0.0000  0.0000  0.0000  0.0000  0.0000 </r>
        <r>  0.0013  0.0031  0.0047  0.0010  0.0000  0.0000  0.0000  0.0000  0.0000 </r>
        <r>  0.0002  0.0014  0.0039  0.0044  0.0001  0.0009  0.0003  0.0010  0.0002 </r>
        <r>  0.0023  0.0003  0.0051  0.0001  0.0004  0.0024  0.0044  0.0008  0.0001 </r>
        <r>  0.0002  0.0015  0.0039  0.0043  0.0002  0.0019  0.0003  0.0001  0.0001 </r>
        <r>  0.0002  0.0014  0.0039  0.0044  0.0001  0.0009  0.0003  0.0010  0.0002 </r>
        <r>  0.0023  0.0003  0.0051  0.0001  0.0004  0.0024  0.0044  0.0008  0.0001 </r>
        <r>  0.0002  0.0015  0.0039  0.0043  0.0002  0.0019  0.0003  0.0001  0.0001 </r>
       </set>
       <set comment="band 44">
        <r>  0.0252  0.0021  0.0069  0.0037  0.0045  0.0018  0.0041  0.0007  0.0059 </r>
        <r>  0.0252  0.0021  0.0069  0.0037  0.0045  0.0018  0.0041  0.0007  0.0059 </r>
        <r>  0.0008  0.0066  0.0004  0.0022  0.0000  0.0000  0.0000  0.0000  0.0000 </r>
        <r>  0.0008  0.0066  0.0004  0.0022  0.0000  0.0000  0.0000  0.0000  0.0000 </r>
        <r>  0.0005  0.0034  0.0005  0.0003  0.0035  0.0112  0.0007  0.0004  0.0001 </r>
        <r>  0.0010  0.0072  0.0143  0.0024  0.0001  0.0014  0.0033  0.0005  0.0000 </r>
        <r>  0.0005  0.0004  0.0005  0.0033  0.0014  0.0040  0.0007  0.0075  0.0022 </r>
        <r>  0.0005  0.0034  0.0005  0.0003  0.0035  0.0112  0.0007  0.0004  0.0001 </r>
        <r>  0.0010  0.0072  0.0143  0.0024  0.0001  0.0014  0.0033  0.0005  0.0000 </r>
        <r>  0.0005  0.0004  0.0005  0.0033  0.0014  0.0040  0.0007  0.0075  0.0022 </r>
       </set>
       <set comment="band 45">
        <r>  0.0050  0.0031  0.0040  0.0014  0.0048  0.0018  0.0018  0.0010  0.0064 </r>
        <r>  0.0050  0.0031  0.0040  0.0014  0.0048  0.0018  0.0018  0.0010  0.0064 </r>
        <r>  0.0000  0.0010  0.0000  0.0029  0.0000  0.0000  0.0000  0.0000  0.0000 </r>
        <r>  0.0000  0.0010  0.0000  0.0029  0.0000  0.0000  0.0000  0.0000  0.0000 </r>
        <r>  0.0019  0.0015  0.0094  0.0020  0.0004  0.0015  0.0020  0.0016  0.0006 </r>
        <r>  0.0000  0.0011  0.0000  0.0033  0.0003  0.0014  0.0000  0.0043  0.0010 </r>
        <r>  0.0019  0.0029  0.0094  0.0006  0.0003  0.0003  0.0020  0.0028  0.0007 </r>
        <r>  0.0019  0.0015  0.0094  0.0020  0.0004  0.0015  0.0020  0.0016  0.0006 </r>
        <r>  0.0000  0.0011  0.0000  0.0033  0.0003  0.0014  0.0000  0.0043  0.0010 </r>
        <r>  0.0019  0.0029  0.0094  0.0006  0.0003  0.0003  0.0020  0.0028  0.0007 </r>
       </set>
       <set comment="band 46">
        <r>  0.0208  0.0018  0.0096  0.0025  0.0031  0.0002  0.0016  0.0005  0.0092 </r>
        <r>  0.0208  0.0018  0.0096  0.0025  0.0031  0.0002  0.0016  0.0005  0.0092 </r>
        <r>  0.0006  0.0053  0.0014  0.0018  0.0000  0.0000  0.0000  0.0000  0.0000 </r>
        <r>  0.0006  0.0053  0.0014  0.0018  0.0000  0.0000  0.0000  0.0000  0.0000 </r>
        <r>  0.0006  0.0015  0.0057  0.0002  0.0037  0.0050  0.0001  0.0002  0.0011 </r>
        <r>  0.0004  0.0017  0.0088  0.0006  0.0044  0.0054  0.0029  0.0018  0.0015 </r>
        <r>  0.0006  0.0003  0.0059  0.0014  0.0008  0.0005  0.0001  0.0048  0.0039 </r>
        <r>  0.0006  0.0015  0.0057  0.0002  0.0037  0.0050  0.0001  0.0002  0.0011 </r>
        <r>  0.0004  0.0017  0.0088  0.0006  0.0044  0.0054  0.0029  0.0018  0.0015 </r>
        <r>  0.0006  0.0003  0.0059  0.0014  0.0008  0.0005  0.0001  0.0048  0.0039 </r>
       </set>
       <set comment="band 47">
        <r>  0.0014  0.0006  0.0012  0.0009  0.0001  0.0000  0.0098  0.0000  0.0003 </r>
        <r>  0.0014  0.0006  0.0012  0.0009  0.0001  0.0000  0.0098  0.0000  0.0003 </r>
        <r>  0.0000  0.0010  0.0000  0.0031  0.0000  0.0000  0.0000  0.0000  0.0000 </r>
        <r>  0.0000  0.0010  0.0000  0.0031  0.0000  0.0000  0.0000  0.0000  0.0000 </r>
        <r>  0.0011  0.0013  0.0027  0.0036  0.0004  0.0000  0.0034  0.0000  0.0009 </r>
        <r>  0.0000  0.0003  0.0000  0.0010  0.0007  0.0001  0.0000  0.0002  0.0019 </r>
        <r>  0.0011  0.0046  0.0025  0.0003  0.0004  0.0000  0.0035  0.0000  0.0009 </r>
        <r>  0.0011  0.0013  0.0027  0.0036  0.0004  0.0000  0.0034  0.0000  0.0009 </r>
        <r>  0.0000  0.0003  0.0000  0.0010  0.0007  0.0001  0.0000  0.0002  0.0019 </r>
        <r>  0.0011  0.0046  0.0025  0.0003  0.0004  0.0000  0.0035  0.0000  0.0009 </r>
       </set>
       <set comment="band 48">
        <r>  0.0027  0.0007  0.0080  0.0005  0.0003  0.0011  0.0005  0.0005  0.0005 </r>
        <r>  0.0027  0.0007  0.0080  0.0005  0.0003  0.0011  0.0005  0.0005  0.0005 </r>
        <r>  0.0042  0.0019  0.0107  0.0006  0.0000  0.0000  0.0000  0.0000  0.0000 </r>
        <r>  0.0042  0.0019  0.0107  0.0006  0.0000  0.0000  0.0000  0.0000  0.0000 </r>
        <r>  0.0001  0.0008  0.0003  0.0012  0.0044  0.0007  0.0013  0.0023  0.0010 </r>
        <r>  0.0010  0.0002  0.0036  0.0001  0.0029  0.0007  0.0007  0.0002  0.0010 </r>
        <r>  0.0001  0.0006  0.0003  0.0014  0.0011  0.0009  0.0013  0.0022  0.0043 </r>
        <r>  0.0001  0.0008  0.0003  0.0012  0.0044  0.0007  0.0013  0.0023  0.0010 </r>
        <r>  0.0010  0.0002  0.0036  0.0001  0.0029  0.0007  0.0007  0.0002  0.0010 </r>
        <r>  0.0001  0.0006  0.0003  0.0014  0.0011  0.0009  0.0013  0.0022  0.0043 </r>
       </set>
      </set>
     </set>
    </set>
   </array>
  </projected>
 </calculation>
 <structure name="finalpos" >
  <crystal>
   <varray name="basis" >
    <v>       6.81954688      -0.00000013      -0.00000000 </v>
    <v>       3.40977307       5.90590042      -0.00000000 </v>
    <v>      -0.00000000       0.00000000      22.11576048 </v>
   </varray>
   <i name="volume">    890.72475464 </i>
   <varray name="rec_basis" >
    <v>       0.14663731      -0.08466109       0.00000000 </v>
    <v>       0.00000000       0.16932219      -0.00000000 </v>
    <v>       0.00000000      -0.00000000       0.04521662 </v>
   </varray>
  </crystal>
  <varray name="positions" >
   <v>       0.33333300       0.33333300       0.50003523 </v>
   <v>       0.66666700       0.66666700       0.49996477 </v>
   <v>       0.00000000       0.00000000       0.44821600 </v>
   <v>       0.00000000       0.00000000       0.55178400 </v>
   <v>       0.63599913      -0.00006145       0.57852173 </v>
   <v>      -0.00006145       0.36406331       0.57852173 </v>
   <v>       0.36406331       0.63599913       0.57852173 </v>
   <v>       0.36400087       0.00006145       0.42147827 </v>
   <v>       0.00006145       0.63593669       0.42147827 </v>
   <v>       0.63593669       0.36400087       0.42147827 </v>
  </varray>
  <varray name="selective"  type="logical" >
   <v type="logical" >  T  T  T </v>
   <v type="logical" >  T  T  T </v>
   <v type="logical" >  F  F  F </v>
   <v type="logical" >  F  F  F </v>
   <v type="logical" >  T  T  T </v>
   <v type="logical" >  T  T  T </v>
   <v type="logical" >  T  T  T </v>
   <v type="logical" >  T  T  T </v>
   <v type="logical" >  T  T  T </v>
   <v type="logical" >  T  T  T </v>
  </varray>
  <nose>
   <v>      -3.00000000       0.00000000       0.00010000       0.00010000 </v>
  </nose>
 </structure>
</modeling>
