unknown system                          
           1
     6.907777   -0.000000    0.000000
     3.453888    5.982310    0.000000
     0.000000    0.000000   23.444588
   Cr   Si   Te
   2   2   6
Direct configuration=     1
   0.33333300  0.33333300  0.49992500
   0.66666700  0.66666700  0.50007500
   0.00000000  0.00000000  0.44821600
   0.00000000  0.00000000  0.55178400
   0.62635700  0.00042000  0.57375200
   0.00042000  0.37322400  0.57375200
   0.37322400  0.62635700  0.57375200
   0.37364300  0.99958000  0.42624800
   0.99958000  0.62677600  0.42624800
   0.62677600  0.37364300  0.42624800
unknown system                          
           1
     6.770555   -0.000000    0.000000
     3.385277    5.863472    0.000000
    -0.000000    0.000000   23.127590
   Cr   Si   Te
   2   2   6
Direct configuration=     2
   0.33333300  0.33333300  0.49991890
   0.66666700  0.66666700  0.50008110
   0.00000000  0.00000000  0.44821600
   0.00000000  0.00000000  0.55178400
   0.62984831  0.00034969  0.57362210
   0.00034969  0.36980300  0.57362210
   0.36980300  0.62984831  0.57362210
   0.37015169  0.99965031  0.42637790
   0.99965031  0.63019700  0.42637790
   0.63019700  0.37015169  0.42637790
unknown system                          
           1
     6.801962   -0.000000    0.000000
     3.400981    5.890672    0.000000
    -0.000000    0.000000   23.200144
   Cr   Si   Te
   2   2   6
Direct configuration=     3
   0.33333300  0.33333300  0.49992032
   0.66666700  0.66666700  0.50007968
   0.00000000  0.00000000  0.44821600
   0.00000000  0.00000000  0.55178400
   0.62903304  0.00036611  0.57365224
   0.00036611  0.37060186  0.57365224
   0.37060186  0.62903304  0.57365224
   0.37096696  0.99963389  0.42634776
   0.99963389  0.62939814  0.42634776
   0.62939814  0.37096696  0.42634776
unknown system                          
           1
     6.812695   -0.000000    0.000000
     3.406347    5.899966   -0.000000
    -0.000000    0.000000   23.125811
   Cr   Si   Te
   2   2   6
Direct configuration=     4
   0.33333300  0.33333300  0.49991568
   0.66666700  0.66666700  0.50008432
   0.00000000  0.00000000  0.44821600
   0.00000000  0.00000000  0.55178400
   0.63133120  0.00031031  0.57402583
   0.00031031  0.36835949  0.57402583
   0.36835949  0.63133120  0.57402583
   0.36866880  0.99968969  0.42597417
   0.99968969  0.63164051  0.42597417
   0.63164051  0.36866880  0.42597417
unknown system                          
           1
     6.828422   -0.000000    0.000000
     3.414211    5.913587   -0.000000
    -0.000000    0.000000   23.016887
   Cr   Si   Te
   2   2   6
Direct configuration=     5
   0.33333300  0.33333300  0.49990886
   0.66666700  0.66666700  0.50009114
   0.00000000  0.00000000  0.44821600
   0.00000000  0.00000000  0.55178400
   0.63469357  0.00022867  0.57457504
   0.00022867  0.36507876  0.57457504
   0.36507876  0.63469357  0.57457504
   0.36530643  0.99977133  0.42542496
   0.99977133  0.63492124  0.42542496
   0.63492124  0.36530643  0.42542496
unknown system                          
           1
     6.859877   -0.000000    0.000000
     3.429938    5.940828   -0.000000
    -0.000000    0.000000   22.799038
   Cr   Si   Te
   2   2   6
Direct configuration=     6
   0.33333300  0.33333300  0.49989516
   0.66666700  0.66666700  0.50010484
   0.00000000  0.00000000  0.44821600
   0.00000000  0.00000000  0.55178400
   0.64140280  0.00006577  0.57567865
   0.00006577  0.35853243  0.57567865
   0.35853243  0.64140280  0.57567865
   0.35859720  0.99993423  0.42432135
   0.99993423  0.64146757  0.42432135
   0.64146757  0.35859720  0.42432135
unknown system                          
           1
     6.837747   -0.000000    0.000000
     3.418873    5.921662   -0.000000
    -0.000000    0.000000   22.952307
   Cr   Si   Te
   2   2   6
Direct configuration=     7
   0.33333300  0.33333300  0.49990489
   0.66666700  0.66666700  0.50009511
   0.00000000  0.00000000  0.44821600
   0.00000000  0.00000000  0.55178400
   0.63670412  0.00017985  0.57489478
   0.00017985  0.36311703  0.57489478
   0.36311703  0.63670412  0.57489478
   0.36329588  0.99982015  0.42510522
   0.99982015  0.63688297  0.42510522
   0.63688297  0.36329588  0.42510522
unknown system                          
           1
     6.875374   -0.000000   -0.000000
     3.437686    5.954248   -0.000000
    -0.000000    0.000000   22.749903
   Cr   Si   Te
   2   2   6
Direct configuration=     8
   0.33333300  0.33333300  0.49992879
   0.66666700  0.66666700  0.50007121
   0.00000000  0.00000000  0.44821600
   0.00000000  0.00000000  0.55178400
   0.63657209  0.00013679  0.57541181
   0.00013679  0.36329212  0.57541181
   0.36329212  0.63657209  0.57541181
   0.36342791  0.99986321  0.42458819
   0.99986321  0.63670788  0.42458819
   0.63670788  0.36342791  0.42458819
unknown system                          
           1
     6.882934   -0.000000   -0.000000
     3.441467    5.960795   -0.000000
    -0.000000    0.000000   22.709234
   Cr   Si   Te
   2   2   6
Direct configuration=     9
   0.33333300  0.33333300  0.49993363
   0.66666700  0.66666700  0.50006637
   0.00000000  0.00000000  0.44821600
   0.00000000  0.00000000  0.55178400
   0.63654571  0.00012818  0.57551662
   0.00012818  0.36332711  0.57551662
   0.36332711  0.63654571  0.57551662
   0.36345429  0.99987182  0.42448338
   0.99987182  0.63667289  0.42448338
   0.63667289  0.36345429  0.42448338
unknown system                          
           1
     6.879592   -0.000000   -0.000000
     3.439796    5.957901   -0.000000
    -0.000000    0.000000   22.547666
   Cr   Si   Te
   2   2   6
Direct configuration=    10
   0.33333300  0.33333300  0.49995055
   0.66666700  0.66666700  0.50004945
   0.00000000  0.00000000  0.44821600
   0.00000000  0.00000000  0.55178400
   0.63639155  0.00010410  0.57581446
   0.00010410  0.36350535  0.57581446
   0.36350535  0.63639155  0.57581446
   0.36360845  0.99989590  0.42418554
   0.99989590  0.63649465  0.42418554
   0.63649465  0.36360845  0.42418554
unknown system                          
           1
     6.869567   -0.000000   -0.000000
     3.434783    5.949219   -0.000000
    -0.000000    0.000000   22.062961
   Cr   Si   Te
   2   2   6
Direct configuration=    11
   0.33333300  0.33333300  0.50000168
   0.66666700  0.66666700  0.49999832
   0.00000000  0.00000000  0.44821600
   0.00000000  0.00000000  0.55178400
   0.63592884  0.00003183  0.57671437
   0.00003183  0.36404033  0.57671437
   0.36404033  0.63592884  0.57671437
   0.36407116  0.99996817  0.42328563
   0.99996817  0.63595967  0.42328563
   0.63595967  0.36407116  0.42328563
unknown system                          
           1
     6.872316   -0.000000   -0.000000
     3.436158    5.951600   -0.000000
    -0.000000    0.000000   22.195896
   Cr   Si   Te
   2   2   6
Direct configuration=    12
   0.33333300  0.33333300  0.49998735
   0.66666700  0.66666700  0.50001265
   0.00000000  0.00000000  0.44821600
   0.00000000  0.00000000  0.55178400
   0.63605592  0.00005168  0.57646214
   0.00005168  0.36389339  0.57646214
   0.36389339  0.63605592  0.57646214
   0.36394408  0.99994832  0.42353786
   0.99994832  0.63610661  0.42353786
   0.63610661  0.36394408  0.42353786
unknown system                          
           1
     6.853768   -0.000000   -0.000000
     3.426884    5.935537   -0.000000
    -0.000000    0.000000   22.163227
   Cr   Si   Te
   2   2   6
Direct configuration=    13
   0.33333300  0.33333300  0.50000026
   0.66666700  0.66666700  0.49999974
   0.00000000  0.00000000  0.44821600
   0.00000000  0.00000000  0.55178400
   0.63609091  0.00002734  0.57689674
   0.00002734  0.36388274  0.57689674
   0.36388274  0.63609091  0.57689674
   0.36390909  0.99997266  0.42310326
   0.99997266  0.63611726  0.42310326
   0.63611726  0.36390909  0.42310326
unknown system                          
           1
     6.810712   -0.000000   -0.000000
     3.405356    5.898249   -0.000000
    -0.000000    0.000000   22.087389
   Cr   Si   Te
   2   2   6
Direct configuration=    14
   0.33333300  0.33333300  0.50003028
   0.66666700  0.66666700  0.49996972
   0.00000000  0.00000000  0.44821600
   0.00000000  0.00000000  0.55178400
   0.63617236 -0.00002930  0.57790711
  -0.00002930  0.36385795  0.57790711
   0.36385795  0.63617236  0.57790711
   0.36382764  0.00002930  0.42209289
   0.00002930  0.63614205  0.42209289
   0.63614205  0.36382764  0.42209289
unknown system                          
           1
     6.820602   -0.000000   -0.000000
     3.410301    5.906814   -0.000000
    -0.000000    0.000000   22.119149
   Cr   Si   Te
   2   2   6
Direct configuration=    15
   0.33333300  0.33333300  0.50003582
   0.66666700  0.66666700  0.49996418
   0.00000000  0.00000000  0.44821600
   0.00000000  0.00000000  0.55178400
   0.63597848 -0.00006528  0.57859502
  -0.00006528  0.36408780  0.57859502
   0.36408780  0.63597848  0.57859502
   0.36402152  0.00006528  0.42140498
   0.00006528  0.63591220  0.42140498
   0.63591220  0.36402152  0.42140498
unknown system                          
           1
     6.819547   -0.000000   -0.000000
     3.409773    5.905900   -0.000000
    -0.000000    0.000000   22.115760
   Cr   Si   Te
   2   2   6
Direct configuration=    16
   0.33333300  0.33333300  0.50003523
   0.66666700  0.66666700  0.49996477
   0.00000000  0.00000000  0.44821600
   0.00000000  0.00000000  0.55178400
   0.63599913 -0.00006145  0.57852173
  -0.00006145  0.36406331  0.57852173
   0.36406331  0.63599913  0.57852173
   0.36400087  0.00006145  0.42147827
   0.00006145  0.63593669  0.42147827
   0.63593669  0.36400087  0.42147827
