 vasp.5.4.4.18Apr17-6-g9f103f2a35 (build May  1 2020 15:48:39) complex           
 executed on             LinuxGNU date 2020.07.07  16:48:44
 running on   16 total cores
 distrk:  each k-point on   16 cores,    1 groups
 distr:  one band on NCORES_PER_BAND=   1 cores,   16 groups


--------------------------------------------------------------------------------------------------------


 INCAR:
 POTCAR:   PAW_PBE Fe 06Sep2000                   
 POTCAR:   PAW_PBE Si 05Jan2001                   
 POTCAR:    PAW_PBE S 17Jan2003                   

 ----------------------------------------------------------------------------- 
|                                                                             |
|           W    W    AA    RRRRR   N    N  II  N    N   GGGG   !!!           |
|           W    W   A  A   R    R  NN   N  II  NN   N  G    G  !!!           |
|           W    W  A    A  R    R  N N  N  II  N N  N  G       !!!           |
|           W WW W  AAAAAA  RRRRR   N  N N  II  N  N N  G  GGG   !            |
|           WW  WW  A    A  R   R   N   NN  II  N   NN  G    G                |
|           W    W  A    A  R    R  N    N  II  N    N   GGGG   !!!           |
|                                                                             |
|      For optimal performance we recommend to set                            |
|        NCORE= 4 - approx SQRT( number of cores)                             |
|      NCORE specifies how many cores store one orbital (NPAR=cpu/NCORE).     |
|      This setting can  greatly improve the performance of VASP for DFT.     |
|      The default,   NCORE=1            might be grossly inefficient         |
|      on modern multi-core architectures or massively parallel machines.     |
|      Do your own testing !!!!                                               |
|      Unfortunately you need to use the default for GW and RPA calculations. |
|      (for HF NCORE is supported but not extensively tested yet)             |
|                                                                             |
 ----------------------------------------------------------------------------- 


 ----------------------------------------------------------------------------- 
|                                                                             |
|  ADVICE TO THIS USER RUNNING 'VASP/VAMP'   (HEAR YOUR MASTER'S VOICE ...):  |
|                                                                             |
|      You have switched on vdW-DFT.                                          |
|      This routine was written and supplied by Jiri Klimes.                  |
|      We recommed that you carefully read and cite the following             |
|      publication                                                            |
|      J. Klimes, D.R. Bowler, A. Michelides                                  |
|        J. Phys.: Cond Matt. 22 022201 (2010)                                |
|      J. Klimes, D.R. Bowler, A. Michelides                                  |
|        Phys. Rev. B. 83, 195131 (2011)                                      |
|      and references therein.                                                |
|                                                                             |
 ----------------------------------------------------------------------------- 

 POTCAR:   PAW_PBE Fe 06Sep2000                   
   VRHFIN =Fe:  d7 s1                                                           
   LEXCH  = PE                                                                  
   EATOM  =   594.4687 eV,   43.6922 Ry                                         
                                                                                
   TITEL  = PAW_PBE Fe 06Sep2000                                                
   LULTRA =        F    use ultrasoft PP ?                                      
   IUNSCR =        1    unscreen: 0-lin 1-nonlin 2-no                           
   RPACOR =    2.000    partial core radius                                     
   POMASS =   55.847; ZVAL   =    8.000    mass and valenz                      
   RCORE  =    2.300    outmost cutoff radius                                   
   RWIGS  =    2.460; RWIGS  =    1.302    wigner-seitz radius (au A)           
   ENMAX  =  267.883; ENMIN  =  200.912 eV                                      
   RCLOC  =    1.701    cutoff for local pot                                    
   LCOR   =        T    correct aug charges                                     
   LPAW   =        T    paw PP                                                  
   EAUG   =  511.368                                                            
   DEXC   =    -.022                                                            
   RMAX   =    2.817    core radius for proj-oper                               
   RAUG   =    1.300    factor for augmentation sphere                          
   RDEP   =    2.442    radius for radial grids                                 
   QCUT   =   -4.437; QGAM   =    8.874    optimization parameters              
                                                                                
   Description                                                                  
     l     E      TYP  RCUT    TYP  RCUT                                        
     2   .000     23  2.300                                                     
     2   .000     23  2.300                                                     
     0   .000     23  2.300                                                     
     0   .000     23  2.300                                                     
     1  -.200     23  2.300                                                     
     1   .000     23  2.300                                                     
     3   .000      7   .000                                                     
  local pseudopotential read in
  partial core-charges read in
  atomic valenz-charges read in
  non local Contribution for L=           2  read in
    real space projection operators read in
  non local Contribution for L=           2  read in
    real space projection operators read in
  non local Contribution for L=           0  read in
    real space projection operators read in
  non local Contribution for L=           0  read in
    real space projection operators read in
  non local Contribution for L=           1  read in
    real space projection operators read in
  non local Contribution for L=           1  read in
    real space projection operators read in
    PAW grid and wavefunctions read in

   number of l-projection  operators is LMAX  =           6
   number of lm-projection operators is LMMAX =          18

 POTCAR:   PAW_PBE Si 05Jan2001                   
   VRHFIN =Si: s2p2                                                             
   LEXCH  = PE                                                                  
   EATOM  =   103.0669 eV,    7.5752 Ry                                         
                                                                                
   TITEL  = PAW_PBE Si 05Jan2001                                                
   LULTRA =        F    use ultrasoft PP ?                                      
   IUNSCR =        1    unscreen: 0-lin 1-nonlin 2-no                           
   RPACOR =    1.500    partial core radius                                     
   POMASS =   28.085; ZVAL   =    4.000    mass and valenz                      
   RCORE  =    1.900    outmost cutoff radius                                   
   RWIGS  =    2.480; RWIGS  =    1.312    wigner-seitz radius (au A)           
   ENMAX  =  245.345; ENMIN  =  184.009 eV                                      
   ICORE  =        2    local potential                                         
   LCOR   =        T    correct aug charges                                     
   LPAW   =        T    paw PP                                                  
   EAUG   =  322.069                                                            
   DEXC   =    -.007                                                            
   RMAX   =    2.944    core radius for proj-oper                               
   RAUG   =    1.300    factor for augmentation sphere                          
   RDEP   =    1.993    radius for radial grids                                 
   QCUT   =   -4.246; QGAM   =    8.493    optimization parameters              
                                                                                
   Description                                                                  
     l     E      TYP  RCUT    TYP  RCUT                                        
     0   .000     23  1.900                                                     
     0   .000     23  1.900                                                     
     1   .000     23  1.900                                                     
     1   .000     23  1.900                                                     
     2   .000      7  1.900                                                     
  local pseudopotential read in
  partial core-charges read in
  atomic valenz-charges read in
  non local Contribution for L=           0  read in
    real space projection operators read in
  non local Contribution for L=           0  read in
    real space projection operators read in
  non local Contribution for L=           1  read in
    real space projection operators read in
  non local Contribution for L=           1  read in
    real space projection operators read in
    PAW grid and wavefunctions read in

   number of l-projection  operators is LMAX  =           4
   number of lm-projection operators is LMMAX =           8

 POTCAR:    PAW_PBE S 17Jan2003                   
   VRHFIN =S : s2p4                                                             
   LEXCH  = PE                                                                  
   EATOM  =   276.8230 eV,   20.3459 Ry                                         
                                                                                
   TITEL  = PAW_PBE S 17Jan2003                                                 
   LULTRA =        F    use ultrasoft PP ?                                      
   IUNSCR =        1    unscreen: 0-lin 1-nonlin 2-no                           
   RPACOR =    1.500    partial core radius                                     
   POMASS =   32.066; ZVAL   =    6.000    mass and valenz                      
   RCORE  =    1.900    outmost cutoff radius                                   
   RWIGS  =    2.200; RWIGS  =    1.164    wigner-seitz radius (au A)           
   ENMAX  =  280.000; ENMIN  =  194.016 eV                                      
   ICORE  =        2    local potential                                         
   LCOR   =        T    correct aug charges                                     
   LPAW   =        T    paw PP                                                  
   EAUG   =  335.092                                                            
   DEXC   =     .000                                                            
   RMAX   =    2.867    core radius for proj-oper                               
   RAUG   =    1.300    factor for augmentation sphere                          
   RDEP   =    1.954    radius for radial grids                                 
   QCUT   =   -4.360; QGAM   =    8.721    optimization parameters              
                                                                                
   Description                                                                  
     l     E      TYP  RCUT    TYP  RCUT                                        
     0   .000     23  1.900                                                     
     0   .000     23  1.900                                                     
     1   .000     23  1.900                                                     
     1   .000     23  1.900                                                     
     2   .000     23  1.900                                                     
  local pseudopotential read in
  partial core-charges read in
  atomic valenz-charges read in
  non local Contribution for L=           0  read in
    real space projection operators read in
  non local Contribution for L=           0  read in
    real space projection operators read in
  non local Contribution for L=           1  read in
    real space projection operators read in
  non local Contribution for L=           1  read in
    real space projection operators read in
    PAW grid and wavefunctions read in

   number of l-projection  operators is LMAX  =           4
   number of lm-projection operators is LMMAX =           8

 Optimization of the real space projectors (new method)

 maximal supplied QI-value         = 16.25
 optimisation between [QCUT,QGAM] = [ 11.54, 23.24] = [ 37.28,151.24] Ry 
 Optimized for a Real-space Cutoff    1.53 Angstroem

   l    n(q)    QCUT    max X(q) W(low)/X(q) W(high)/X(q)  e(spline) 
   2     10    11.539     4.378    0.86E-05    0.15E-04    0.46E-07
   2     10    11.539    23.237    0.11E-03    0.14E-03    0.22E-06
   0     11    11.539    17.641    0.19E-04    0.14E-05    0.18E-07
   0     11    11.539    50.908    0.43E-04    0.16E-04    0.30E-06
   1     10    11.539     6.148    0.11E-04    0.38E-05    0.26E-07
   1     10    11.539     8.345    0.44E-04    0.25E-04    0.11E-06
 Optimization of the real space projectors (new method)

 maximal supplied QI-value         = 19.84
 optimisation between [QCUT,QGAM] = [ 11.51, 23.22] = [ 37.09,150.92] Ry 
 Optimized for a Real-space Cutoff    1.21 Angstroem

   l    n(q)    QCUT    max X(q) W(low)/X(q) W(high)/X(q)  e(spline) 
   0      8    11.508     8.708    0.18E-04    0.44E-05    0.47E-08
   0      8    11.508   106.241    0.70E-04    0.15E-03    0.51E-07
   1      8    11.508     5.901    0.63E-05    0.23E-04    0.21E-07
   1      8    11.508    73.241    0.15E-03    0.36E-04    0.79E-07
 Optimization of the real space projectors (new method)

 maximal supplied QI-value         = 19.84
 optimisation between [QCUT,QGAM] = [ 11.51, 23.22] = [ 37.09,150.92] Ry 
 Optimized for a Real-space Cutoff    1.21 Angstroem

   l    n(q)    QCUT    max X(q) W(low)/X(q) W(high)/X(q)  e(spline) 
   0      8    11.508     5.487    0.18E-04    0.22E-05    0.47E-08
   0      8    11.508    85.627    0.96E-04    0.18E-03    0.54E-07
   1      8    11.508     3.530    0.17E-04    0.28E-04    0.21E-07
   1      8    11.508    42.714    0.18E-03    0.63E-04    0.92E-07

 ----------------------------------------------------------------------------- 
|                                                                             |
|  ADVICE TO THIS USER RUNNING 'VASP/VAMP'   (HEAR YOUR MASTER'S VOICE ...):  |
|                                                                             |
|      You enforced a specific xc-type in the INCAR file,                     |
|      a different type was found on the POTCAR file                          |
|          I HOPE YOU KNOW, WHAT YOU ARE  DOING                               |
|                                                                             |
 ----------------------------------------------------------------------------- 

 PAW_PBE Fe 06Sep2000                   :
 energy of atom  1       EATOM= -594.4687
 kinetic energy error for atom=    0.0026 (will be added to EATOM!!)
 PAW_PBE Si 05Jan2001                   :
 energy of atom  2       EATOM= -103.0669
 kinetic energy error for atom=    0.0005 (will be added to EATOM!!)
  PAW_PBE S 17Jan2003                   :
 energy of atom  3       EATOM= -276.8230
 kinetic energy error for atom=    0.0016 (will be added to EATOM!!)


 POSCAR: Fe2 Si2 S6                              
  positions in direct lattice
  velocities in cartesian coordinates
  No initial velocities read in
 exchange correlation table for  LEXCH =       42
   RHO(1)=    0.500       N(1)  =     2000
   RHO(2)=  100.500       N(2)  =     4000



--------------------------------------------------------------------------------------------------------


 ion  position               nearest neighbor table
   1  0.333  0.333  0.500-   6 2.78   5 2.78   7 2.78   8 2.78  10 2.78   9 2.78
   2  0.667  0.667  0.500-   9 2.78   8 2.78  10 2.78   5 2.78   7 2.78   6 2.78
   3  0.000  0.000  0.448-   4 2.43   8 2.63  10 2.63   9 2.63
   4  0.000  0.000  0.552-   3 2.43   5 2.63   7 2.63   6 2.63
   5  0.626  0.000  0.574-   4 2.63   1 2.78   2 2.78
   6  0.000  0.373  0.574-   4 2.63   1 2.78   2 2.78
   7  0.373  0.626  0.574-   4 2.63   1 2.78   2 2.78
   8  0.374  1.000  0.426-   3 2.63   2 2.78   1 2.78
   9  1.000  0.627  0.426-   3 2.63   2 2.78   1 2.78
  10  0.627  0.374  0.426-   3 2.63   2 2.78   1 2.78

  LATTYP: Found a hexagonal cell.
 ALAT       =     6.9077769333
 C/A-ratio  =     3.3939410937
  
  Lattice vectors:
  
 A1 = (   3.4538890000,  -5.9823100000,   0.0000000000)
 A2 = (  -6.9077770000,   0.0000000000,   0.0000000000)
 A3 = (   0.0000000000,   0.0000000000, -23.4445880000)


Analysis of symmetry for initial positions (statically):
=====================================================================
 Subroutine PRICEL returns:
 Original cell was already a primitive cell.
 

 Routine SETGRP: Setting up the symmetry group for a 
 hexagonal supercell.


 Subroutine GETGRP returns: Found  6 space group operations
 (whereof  6 operations were pure point group operations)
 out of a pool of 24 trial point group operations.


The static configuration has the point symmetry S_6 .


Analysis of symmetry for dynamics (positions and initial velocities):
=====================================================================
 Subroutine PRICEL returns:
 Original cell was already a primitive cell.
 

 Routine SETGRP: Setting up the symmetry group for a 
 hexagonal supercell.


 Subroutine GETGRP returns: Found  6 space group operations
 (whereof  6 operations were pure point group operations)
 out of a pool of 24 trial point group operations.


The dynamic configuration has the point symmetry S_6 .


Analysis of constrained symmetry for selective dynamics:
=====================================================================
 Subroutine PRICEL returns:
 Original cell was already a primitive cell.
 

 Routine SETGRP: Setting up the symmetry group for a 
 hexagonal supercell.


 Subroutine GETGRP returns: Found  6 space group operations
 (whereof  6 operations were pure point group operations)
 out of a pool of 24 trial point group operations.


The constrained configuration has the point symmetry S_6 .


Analysis of structural, dynamic, and magnetic symmetry:
=====================================================================
 Subroutine PRICEL returns:
 Original cell was already a primitive cell.
 

 Routine SETGRP: Setting up the symmetry group for a 
 hexagonal supercell.


 Subroutine GETGRP returns: Found  6 space group operations
 (whereof  6 operations were pure point group operations)
 out of a pool of 24 trial point group operations.


The magnetic configuration has the point symmetry S_6 .


 Subroutine INISYM returns: Found  6 space group operations
 (whereof  6 operations are pure point group operations),
 and found     1 'primitive' translations



 KPOINTS: Kpoints from vasprun.xml                

Automatic generation of k-mesh.
Space group operators:
 irot       det(A)        alpha          n_x          n_y          n_z        tau_x        tau_y        tau_z
    1     1.000000     0.000000     1.000000     0.000000     0.000000     0.000000     0.000000     0.000000
    2    -1.000000     0.000000     1.000000     0.000000     0.000000     0.000000     0.000000     0.000000
    3     1.000000   120.000000     0.000000     0.000000     1.000000     0.000000     0.000000     0.000000
    4    -1.000000   120.000000     0.000000     0.000000     1.000000     0.000000     0.000000     0.000000
    5     1.000000   120.000000     0.000000     0.000000    -1.000000     0.000000     0.000000     0.000000
    6    -1.000000   120.000000     0.000000     0.000000    -1.000000     0.000000     0.000000     0.000000
 
 Subroutine IBZKPT returns following result:
 ===========================================
 
 Found      5 irreducible k-points:
 
 Following reciprocal coordinates:
            Coordinates               Weight
  0.000000  0.000000  0.000000      1.000000
  0.200000  0.000000  0.000000      6.000000
  0.400000  0.000000  0.000000      6.000000
  0.400000  0.200000  0.000000      6.000000
 -0.400000  0.200000  0.000000      6.000000
 
 Following cartesian coordinates:
            Coordinates               Weight
  0.000000  0.000000  0.000000      1.000000
  0.028953 -0.016716  0.000000      6.000000
  0.057906 -0.033432  0.000000      6.000000
  0.057906  0.000000  0.000000      6.000000
 -0.057906  0.066864  0.000000      6.000000
 
 TETIRR: Found     15 inequivalent tetrahedra from      150


--------------------------------------------------------------------------------------------------------




 Dimension of arrays:
   k-points           NKPTS =      5   k-points in BZ     NKDIM =      5   number of bands    NBANDS=     48
   number of dos      NEDOS =    301   number of ions     NIONS =     10
   non local maximal  LDIM  =      6   non local SUM 2l+1 LMDIM =     18
   total plane-waves  NPLWV = 524880
   max r-space proj   IRMAX =   8238   max aug-charges    IRDMAX=  19496
   dimension x,y,z NGX =    54 NGY =   54 NGZ =  180
   dimension x,y,z NGXF=   108 NGYF=  108 NGZF=  360
   support grid    NGXF=   108 NGYF=  108 NGZF=  360
   ions per type =               2   2   6
   NGX,Y,Z   is equivalent  to a cutoff of  13.00, 13.00, 12.76 a.u.
   NGXF,Y,Z  is equivalent  to a cutoff of  25.99, 25.99, 25.53 a.u.

 SYSTEM =  unknown system                          
 POSCAR =  Fe2 Si2 S6                              

 Startparameter for this run:
   NWRITE =      2    write-flag & timer
   PREC   = accura    normal or accurate (medium, high low for compatibility)
   ISTART =      0    job   : 0-new  1-cont  2-samecut
   ICHARG =      2    charge: 1-file 2-atom 10-const
   ISPIN  =      2    spin polarized calculation?
   LNONCOLLINEAR =      F non collinear calculations
   LSORBIT =      F    spin-orbit coupling
   INIWAV =      1    electr: 0-lowe 1-rand  2-diag
   LASPH  =      F    aspherical Exc in radial PAW
   METAGGA=      F    non-selfconsistent MetaGGA calc.

 Electronic Relaxation 1
   ENCUT  =  520.0 eV  38.22 Ry    6.18 a.u.  12.84 12.84 43.59*2*pi/ulx,y,z
   ENINI  =  520.0     initial cutoff
   ENAUG  =  511.4 eV  augmentation charge cutoff
   NELM   =    400;   NELMIN=  2; NELMDL=  0     # of ELM steps 
   EDIFF  = 0.1E-03   stopping-criterion for ELM
   LREAL  =      T    real-space projection
   NLSPLINE    = F    spline interpolate recip. space projectors
   LCOMPAT=      F    compatible to vasp.4.4
   GGA_COMPAT  = T    GGA compatible to vasp.4.4-vasp.4.6
   LMAXPAW     = -100 max onsite density
   LMAXMIX     =    2 max onsite mixed and CHGCAR
   VOSKOWN=      0    Vosko Wilk Nusair interpolation
   ROPT   =   -0.00025  -0.00025  -0.00025
 Ionic relaxation
   EDIFFG = 0.1E-02   stopping-criterion for IOM
   NSW    =     99    number of steps for IOM
   NBLOCK =      1;   KBLOCK =     99    inner block; outer block 
   IBRION =      2    ionic relax: 0-MD 1-quasi-New 2-CG
   NFREE  =      1    steps in history (QN), initial steepest desc. (CG)
   ISIF   =      3    stress and relaxation
   IWAVPR =     11    prediction:  0-non 1-charg 2-wave 3-comb
   ISYM   =      2    0-nonsym 1-usesym 2-fastsym
   LCORR  =      T    Harris-Foulkes like correction to forces

   POTIM  = 0.5000    time-step for ionic-motion
   TEIN   =    0.0    initial temperature
   TEBEG  =    0.0;   TEEND  =   0.0 temperature during run
   SMASS  =  -3.00    Nose mass-parameter (am)
   estimated Nose-frequenzy (Omega)   =  0.10E-29 period in steps =****** mass=  -0.109E-26a.u.
   SCALEE = 1.0000    scale energy and forces
   NPACO  =    256;   APACO  = 16.0  distance and # of slots for P.C.
   PSTRESS=    0.0 pullay stress

  Mass of Ions in am
   POMASS =  55.85 28.09 32.07
  Ionic Valenz
   ZVAL   =   8.00  4.00  6.00
  Atomic Wigner-Seitz radii
   RWIGS  =  -1.00 -1.00 -1.00
  virtual crystal weights 
   VCA    =   1.00  1.00  1.00
   NELECT =      60.0000    total number of electrons
   NUPDOWN=      -1.0000    fix difference up-down

 DOS related values:
   EMIN   =  10.00;   EMAX   =-10.00  energy-range for DOS
   EFERMI =   0.00
   ISMEAR =    -5;   SIGMA  =   0.05  broadening in eV -4-tet -1-fermi 0-gaus

 Electronic relaxation 2 (details)
   IALGO  =     38    algorithm
   LDIAG  =      T    sub-space diagonalisation (order eigenvalues)
   LSUBROT=      F    optimize rotation matrix (better conditioning)
   TURBO    =      0    0=normal 1=particle mesh
   IRESTART =      0    0=no restart 2=restart with 2 vectors
   NREBOOT  =      0    no. of reboots
   NMIN     =      0    reboot dimension
   EREF     =   0.00    reference energy to select bands
   IMIX   =      4    mixing-type and parameters
     AMIX     =   0.40;   BMIX     =  1.00
     AMIX_MAG =   1.60;   BMIX_MAG =  1.00
     AMIN     =   0.01
     WC   =   100.;   INIMIX=   1;  MIXPRE=   1;  MAXMIX= -45

 Intra band minimization:
   WEIMIN = 0.0010     energy-eigenvalue tresh-hold
   EBREAK =  0.52E-06  absolut break condition
   DEPER  =   0.30     relativ break condition  

   TIME   =   0.40     timestep for ELM

  volume/ion in A,a.u.               =      96.88       653.80
  Fermi-wavevector in a.u.,A,eV,Ry     =   0.647702  1.223979  5.707889  0.419518
  Thomas-Fermi vector in A             =   1.716096

 Write flags
   LWAVE        =      F    write WAVECAR
   LDOWNSAMPLE  =      F    k-point downsampling of WAVECAR
   LCHARG       =      T    write CHGCAR
   LVTOT        =      F    write LOCPOT, total local potential
   LVHAR        =      F    write LOCPOT, Hartree potential only
   LELF         =      F    write electronic localiz. function (ELF)
   LORBIT       =     11    0 simple, 1 ext, 2 COOP (PROOUT), +10 PAW based schemes


 Dipole corrections
   LMONO  =      F    monopole corrections only (constant potential shift)
   LDIPOL =      F    correct potential (dipole corrections)
   IDIPOL =      0    1-x, 2-y, 3-z, 4-all directions 
   EPSILON=  1.0000000 bulk dielectric constant

 Exchange correlation treatment:
   GGA     =    BO    GGA type
   LEXCH   =    42    internal setting for exchange type
   VOSKOWN=      0    Vosko Wilk Nusair interpolation
   LHFCALC =     F    Hartree Fock is set to
   LHFONE  =     F    Hartree Fock one center treatment
   AEXX    =    0.0000 exact exchange contribution

 vdW DFT:
   LUSE_VDW   =     T    switch on vdW DFT
   Zab_VDW    =-.8491    correlation parameter
   PARAM1     =0.1833
   PARAM2     =0.2200
   PARAM3     =0.0000
   -- rVV10 --
   BPARAM     = 6.3000
   CPARAM     = 0.0093

 Linear response parameters
   LEPSILON=     F    determine dielectric tensor
   LRPA    =     F    only Hartree local field effects (RPA)
   LNABLA  =     F    use nabla operator in PAW spheres
   LVEL    =     F    velocity operator in full k-point grid
   LINTERFAST=   F  fast interpolation
   KINTER  =     0    interpolate to denser k-point grid
   CSHIFT  =0.1000    complex shift for real part using Kramers Kronig
   OMEGAMAX=  -1.0    maximum frequency
   DEG_THRESHOLD= 0.2000000E-02 threshold for treating states as degnerate
   RTIME   =   -0.100 relaxation time in fs
  (WPLASMAI=    0.000 imaginary part of plasma frequency in eV, 0.658/RTIME)
   DFIELD  = 0.0000000 0.0000000 0.0000000 field for delta impulse in time

 Orbital magnetization related:
   ORBITALMAG=     F  switch on orbital magnetization
   LCHIMAG   =     F  perturbation theory with respect to B field
   DQ        =  0.001000  dq finite difference perturbation B field
   LLRAUG    =     F  two centre corrections for induced B field



--------------------------------------------------------------------------------------------------------


 conjugate gradient relaxation of ions
   using selective dynamics as specified on POSCAR
 charge density and potential will be updated during run
 spin polarized calculation
 Variant of blocked Davidson
 Davidson routine will perform the subspace rotation
 perform sub-space diagonalisation
    after iterative eigenvector-optimisation
 modified Broyden-mixing scheme, WC =      100.0
 initial mixing is a Kerker type mixing with AMIX =  0.4000 and BMIX =      1.0000
 Hartree-type preconditioning will be used
 using additional bands           18
 real space projection scheme for non local part
 use partial core corrections
 calculate Harris-corrections to forces   (improved forces if not selfconsistent)
 use gradient corrections 
 use of overlap-Matrix (Vanderbilt PP)
 Fermi weights with tetrahedron method with Bloechl corrections


--------------------------------------------------------------------------------------------------------


  energy-cutoff  :      520.00
  volume of cell :      968.84
      direct lattice vectors                 reciprocal lattice vectors
     6.907777000 -0.000000000  0.000000000     0.144764372 -0.083579742  0.000000000
     3.453888000  5.982310000  0.000000000     0.000000000  0.167159509 -0.000000000
     0.000000000  0.000000000 23.444588000    -0.000000000  0.000000000  0.042653767

  length of vectors
     6.907777000  6.907776433 23.444588000     0.167159495  0.167159509  0.042653767



 k-points in units of 2pi/SCALE and weight: Kpoints from vasprun.xml                
   0.00000000  0.00000000  0.00000000       0.040
   0.02895287 -0.01671595  0.00000000       0.240
   0.05790575 -0.03343190  0.00000000       0.240
   0.05790575  0.00000000  0.00000000       0.240
  -0.05790575  0.06686380  0.00000000       0.240

 k-points in reciprocal lattice and weights: Kpoints from vasprun.xml                
   0.00000000  0.00000000  0.00000000       0.040
   0.20000000  0.00000000  0.00000000       0.240
   0.40000000  0.00000000  0.00000000       0.240
   0.40000000  0.20000000  0.00000000       0.240
  -0.40000000  0.20000000  0.00000000       0.240

 position of ions in fractional coordinates (direct lattice) 
   0.33333300  0.33333300  0.49992500
   0.66666700  0.66666700  0.50007500
   0.00000000  0.00000000  0.44821600
   0.00000000  0.00000000  0.55178400
   0.62635700  0.00042000  0.57375200
   0.00042000  0.37322400  0.57375200
   0.37322400  0.62635700  0.57375200
   0.37364300  0.99958000  0.42624800
   0.99958000  0.62677600  0.42624800
   0.62677600  0.37364300  0.42624800

 position of ions in cartesian coordinates  (Angst):
   3.45388488  1.99410134 11.72053566
   6.90778012  3.98820866 11.72405234
   0.00000000  0.00000000 10.50823946
   0.00000000  0.00000000 12.93634854
   4.32818511  0.00251257 13.45137925
   1.29197516  2.23274167 13.45137925
   4.74151509  3.74706174 13.45137925
   6.03347989  5.97979743  9.99320875
   9.06968984  3.74956833  9.99320875
   5.62014991  2.23524826  9.99320875



--------------------------------------------------------------------------------------------------------


 k-point  1 :   0.0000 0.0000 0.0000  plane waves:   26073
 k-point  2 :   0.2000 0.0000 0.0000  plane waves:   26070
 k-point  3 :   0.4000 0.0000 0.0000  plane waves:   26086
 k-point  4 :   0.4000 0.2000 0.0000  plane waves:   26085
 k-point  5 :  -0.4000 0.2000 0.0000  plane waves:   26115

 maximum and minimum number of plane-waves per node :     26115    26070

 maximum number of plane-waves:     26115
 maximum index in each direction: 
   IXMAX=   13   IYMAX=   12   IZMAX=   43
   IXMIN=  -13   IYMIN=  -13   IZMIN=  -43


 serial   3D FFT for wavefunctions
 parallel 3D FFT for charge:
    minimum data exchange during FFTs selected (reduces bandwidth)


 total amount of memory used by VASP MPI-rank0   126399. kBytes
=======================================================================

   base      :      30000. kBytes
   nonlr-proj:       6104. kBytes
   fftplans  :      11247. kBytes
   grid      :      66142. kBytes
   one-center:        311. kBytes
   wavefun   :      12595. kBytes

     INWAV:  cpu time    0.0000: real time    0.0004
 Broyden mixing: mesh for mixing (old mesh)
   NGX = 25   NGY = 25   NGZ = 87
  (NGX  =108   NGY  =108   NGZ  =360)
  gives a total of  54375 points

 initial charge density was supplied:
 charge density of overlapping atoms calculated
 number of electron      60.0000000 magnetization       7.2600000
 keeping initial charge density in first step


--------------------------------------------------------------------------------------------------------


 Maximum index for non-local projection operator         7925
 Maximum index for augmentation-charges         1288 (set IRDMAX)


--------------------------------------------------------------------------------------------------------


 First call to EWALD:  gamma=   0.179
 Maximum number of real-space cells 4x 4x 1
 Maximum number of reciprocal cells 2x 2x 6

    FEWALD:  cpu time    0.0000: real time    0.0015


--------------------------------------- Iteration      1(   1)  ---------------------------------------


vdW kernel read from vdw_kernel.bindat
  0.0000  0.2424  0.5071  0.7962  1.1119  1.4567  1.8333  2.2446  2.6937  3.1842
  3.7199  4.3049  4.9438  5.6415  6.4036  7.2358  8.1446  9.1372 10.2212 11.4050
 12.6979 14.1099 15.6519 17.3360 19.1751 21.1837 23.3773 25.7729 28.3892 31.2465
 34.3669 37.7748 41.4965 45.5611 50.0000

    POTLOK:  cpu time   52.9680: real time   53.0752
    SETDIJ:  cpu time    0.0400: real time    0.0404
     EDDAV:  cpu time   22.5680: real time   22.6803
 BZINTS: Fermi energy:  5.159291; 60.000000 electrons
         Band energy: -27.698843;  BLOECHL correction: -0.037132
       DOS:  cpu time    0.0040: real time    0.0067
    --------------------------------------------
      LOOP:  cpu time   75.5800: real time   75.8026

 eigenvalue-minimisations  :   960
 total energy-change (2. order) : 0.4046160E+03  (-0.1775019E+04)
 number of electron      60.0000000 magnetization       7.2600000
 augmentation part       60.0000000 magnetization       7.2600000

 Free energy of the ion-electron system (eV)
  ---------------------------------------------------
  alpha Z        PSCENC =        21.08711752
  Ewald energy   TEWEN  =      7005.02028753
  -Hartree energ DENC   =     -9760.52025692
  -exchange      EXHF   =         0.00000000
  -V(xc)+E(xc)   XCENC  =        53.78593780
  PAW double counting   =      1616.38660746    -1571.22826014
  entropy T*S    EENTRO =         0.00000000
  eigenvalues    EBANDS =       -27.69884339
  atomic energy  EATOM  =      3067.78342517
  Solvation  Ediel_sol  =         0.00000000
  ---------------------------------------------------
  free energy    TOTEN  =       404.61601503 eV

  energy without entropy =      404.61601503  energy(sigma->0) =      404.61601503


--------------------------------------------------------------------------------------------------------




--------------------------------------- Iteration      1(   2)  ---------------------------------------


     EDDAV:  cpu time   28.2600: real time   28.3553
 BZINTS: Fermi energy: -1.424479; 59.999390 electrons
         Band energy:-403.965073;  BLOECHL correction: -0.074756
       DOS:  cpu time    0.0080: real time    0.0067
    --------------------------------------------
      LOOP:  cpu time   28.2680: real time   28.3621

 eigenvalue-minimisations  :  1232
 total energy-change (2. order) :-0.3762662E+03  (-0.3448779E+03)
 number of electron      60.0000000 magnetization       7.2600000
 augmentation part       60.0000000 magnetization       7.2600000

 Free energy of the ion-electron system (eV)
  ---------------------------------------------------
  alpha Z        PSCENC =        21.08711752
  Ewald energy   TEWEN  =      7005.02028753
  -Hartree energ DENC   =     -9760.52025692
  -exchange      EXHF   =         0.00000000
  -V(xc)+E(xc)   XCENC  =        53.78593780
  PAW double counting   =      1616.38660746    -1571.22826014
  entropy T*S    EENTRO =         0.00000000
  eigenvalues    EBANDS =      -403.96507315
  atomic energy  EATOM  =      3067.78342517
  Solvation  Ediel_sol  =         0.00000000
  ---------------------------------------------------
  free energy    TOTEN  =        28.34978527 eV

  energy without entropy =       28.34978527  energy(sigma->0) =       28.34978527


--------------------------------------------------------------------------------------------------------




--------------------------------------- Iteration      1(   3)  ---------------------------------------


     EDDAV:  cpu time   28.4160: real time   29.1031
 BZINTS: Fermi energy: -2.783312; 60.000000 electrons
         Band energy:-482.831056;  BLOECHL correction: -0.003363
       DOS:  cpu time    0.0040: real time    0.0049
    --------------------------------------------
      LOOP:  cpu time   28.4200: real time   29.1081

 eigenvalue-minimisations  :  1264
 total energy-change (2. order) :-0.7886598E+02  (-0.7654479E+02)
 number of electron      60.0000000 magnetization       7.2600000
 augmentation part       60.0000000 magnetization       7.2600000

 Free energy of the ion-electron system (eV)
  ---------------------------------------------------
  alpha Z        PSCENC =        21.08711752
  Ewald energy   TEWEN  =      7005.02028753
  -Hartree energ DENC   =     -9760.52025692
  -exchange      EXHF   =         0.00000000
  -V(xc)+E(xc)   XCENC  =        53.78593780
  PAW double counting   =      1616.38660746    -1571.22826014
  entropy T*S    EENTRO =         0.00000000
  eigenvalues    EBANDS =      -482.83105636
  atomic energy  EATOM  =      3067.78342517
  Solvation  Ediel_sol  =         0.00000000
  ---------------------------------------------------
  free energy    TOTEN  =       -50.51619794 eV

  energy without entropy =      -50.51619794  energy(sigma->0) =      -50.51619794


--------------------------------------------------------------------------------------------------------




--------------------------------------- Iteration      1(   4)  ---------------------------------------


     EDDAV:  cpu time   28.6200: real time   29.0036
 BZINTS: Fermi energy: -2.824146; 60.000000 electrons
         Band energy:-486.612308;  BLOECHL correction: -0.007393
       DOS:  cpu time    0.0040: real time    0.0050
    --------------------------------------------
      LOOP:  cpu time   28.6240: real time   29.0086

 eigenvalue-minimisations  :  1264
 total energy-change (2. order) :-0.3781251E+01  (-0.3724498E+01)
 number of electron      60.0000000 magnetization       7.2600000
 augmentation part       60.0000000 magnetization       7.2600000

 Free energy of the ion-electron system (eV)
  ---------------------------------------------------
  alpha Z        PSCENC =        21.08711752
  Ewald energy   TEWEN  =      7005.02028753
  -Hartree energ DENC   =     -9760.52025692
  -exchange      EXHF   =         0.00000000
  -V(xc)+E(xc)   XCENC  =        53.78593780
  PAW double counting   =      1616.38660746    -1571.22826014
  entropy T*S    EENTRO =         0.00000000
  eigenvalues    EBANDS =      -486.61230759
  atomic energy  EATOM  =      3067.78342517
  Solvation  Ediel_sol  =         0.00000000
  ---------------------------------------------------
  free energy    TOTEN  =       -54.29744917 eV

  energy without entropy =      -54.29744917  energy(sigma->0) =      -54.29744917


--------------------------------------------------------------------------------------------------------




--------------------------------------- Iteration      1(   5)  ---------------------------------------


     EDDAV:  cpu time   29.2520: real time   29.5754
 BZINTS: Fermi energy: -2.824846; 60.000000 electrons
         Band energy:-486.739652;  BLOECHL correction: -0.007319
       DOS:  cpu time    0.0040: real time    0.0052
    CHARGE:  cpu time    2.0160: real time    2.0206
    MIXING:  cpu time    0.0440: real time    0.0444
    --------------------------------------------
      LOOP:  cpu time   31.3160: real time   31.6455

 eigenvalue-minimisations  :  1296
 total energy-change (2. order) :-0.1273439E+00  (-0.1272293E+00)
 number of electron      60.0000004 magnetization       7.2526577
 augmentation part       -0.9239459 magnetization       4.8594308

 Broyden mixing:
  rms(total) = 0.28285E+01    rms(broyden)= 0.28283E+01
  rms(prec ) = 0.31498E+01
  weight for this iteration     100.00

 Free energy of the ion-electron system (eV)
  ---------------------------------------------------
  alpha Z        PSCENC =        21.08711752
  Ewald energy   TEWEN  =      7005.02028753
  -Hartree energ DENC   =     -9760.52025692
  -exchange      EXHF   =         0.00000000
  -V(xc)+E(xc)   XCENC  =        53.78593780
  PAW double counting   =      1616.38660746    -1571.22826014
  entropy T*S    EENTRO =         0.00000000
  eigenvalues    EBANDS =      -486.73965151
  atomic energy  EATOM  =      3067.78342517
  Solvation  Ediel_sol  =         0.00000000
  ---------------------------------------------------
  free energy    TOTEN  =       -54.42479309 eV

  energy without entropy =      -54.42479309  energy(sigma->0) =      -54.42479309


--------------------------------------------------------------------------------------------------------




--------------------------------------- Iteration      1(   6)  ---------------------------------------


    POTLOK:  cpu time   52.4840: real time   52.6399
    SETDIJ:  cpu time    0.0400: real time    0.0396
     EDDAV:  cpu time   27.8720: real time   28.0295
 BZINTS: Fermi energy: -4.820895; 60.000000 electrons
         Band energy:-677.757217;  BLOECHL correction: -0.022699
       DOS:  cpu time    0.0040: real time    0.0071
    CHARGE:  cpu time    2.0040: real time    2.0054
    MIXING:  cpu time    0.0440: real time    0.0426
    --------------------------------------------
      LOOP:  cpu time   82.4480: real time   82.7642

 eigenvalue-minimisations  :  1216
 total energy-change (2. order) :-0.6960888E+02  (-0.3916210E+02)
 number of electron      60.0000014 magnetization       7.0294678
 augmentation part       10.3419493 magnetization       6.8427447

 Broyden mixing:
  rms(total) = 0.66072E+01    rms(broyden)= 0.66071E+01
  rms(prec ) = 0.71134E+01
  weight for this iteration     100.00

 eigenvalues of (default mixing * dielectric matrix)
  average eigenvalue GAMMA=   0.2381
  0.2381

 Free energy of the ion-electron system (eV)
  ---------------------------------------------------
  alpha Z        PSCENC =        21.08711752
  Ewald energy   TEWEN  =      7005.02028753
  -Hartree energ DENC   =     -9654.09621550
  -exchange      EXHF   =         0.00000000
  -V(xc)+E(xc)   XCENC  =        54.42691253
  PAW double counting   =      1427.41800402    -1367.91598967
  entropy T*S    EENTRO =         0.00000000
  eigenvalues    EBANDS =      -677.75721661
  atomic energy  EATOM  =      3067.78342517
  Solvation  Ediel_sol  =         0.00000000
  ---------------------------------------------------
  free energy    TOTEN  =      -124.03367500 eV

  energy without entropy =     -124.03367500  energy(sigma->0) =     -124.03367500


--------------------------------------------------------------------------------------------------------




--------------------------------------- Iteration      1(   7)  ---------------------------------------


    POTLOK:  cpu time   52.2400: real time   52.4712
    SETDIJ:  cpu time    0.0360: real time    0.0380
     EDDAV:  cpu time   27.6080: real time   27.7568
 BZINTS: Fermi energy: -5.134099; 60.000000 electrons
         Band energy:-527.830751;  BLOECHL correction: -0.014563
       DOS:  cpu time    0.0040: real time    0.0068
    CHARGE:  cpu time    2.0040: real time    2.0077
    MIXING:  cpu time    0.0440: real time    0.0432
    --------------------------------------------
      LOOP:  cpu time   81.9360: real time   82.3236

 eigenvalue-minimisations  :  1200
 total energy-change (2. order) : 0.7079781E+02  (-0.7775561E+01)
 number of electron      60.0000011 magnetization       7.0072264
 augmentation part        7.6813280 magnetization       3.8762016

 Broyden mixing:
  rms(total) = 0.36921E+01    rms(broyden)= 0.36913E+01
  rms(prec ) = 0.40302E+01
  weight for this iteration     100.00

 eigenvalues of (default mixing * dielectric matrix)
  average eigenvalue GAMMA=   0.3584
  0.3584  0.3584

 Free energy of the ion-electron system (eV)
  ---------------------------------------------------
  alpha Z        PSCENC =        21.08711752
  Ewald energy   TEWEN  =      7005.02028753
  -Hartree energ DENC   =     -9718.35834830
  -exchange      EXHF   =         0.00000000
  -V(xc)+E(xc)   XCENC  =        52.57042873
  PAW double counting   =      1544.87345537    -1498.38147592
  entropy T*S    EENTRO =         0.00000000
  eigenvalues    EBANDS =      -527.83075051
  atomic energy  EATOM  =      3067.78342517
  Solvation  Ediel_sol  =         0.00000000
  ---------------------------------------------------
  free energy    TOTEN  =       -53.23586041 eV

  energy without entropy =      -53.23586041  energy(sigma->0) =      -53.23586041


--------------------------------------------------------------------------------------------------------




--------------------------------------- Iteration      1(   8)  ---------------------------------------


    POTLOK:  cpu time   52.5120: real time   52.6406
    SETDIJ:  cpu time    0.0360: real time    0.0380
     EDDAV:  cpu time   29.9120: real time   30.6363
 BZINTS: Fermi energy: -4.347414; 60.000000 electrons
         Band energy:-507.960272;  BLOECHL correction: -0.015751
       DOS:  cpu time    0.0040: real time    0.0069
    CHARGE:  cpu time    2.0000: real time    2.0183
    MIXING:  cpu time    0.0400: real time    0.0425
    --------------------------------------------
      LOOP:  cpu time   84.5040: real time   85.3828

 eigenvalue-minimisations  :  1344
 total energy-change (2. order) : 0.1170010E+02  (-0.4411549E+02)
 number of electron      60.0000005 magnetization       7.0392472
 augmentation part        2.5783895 magnetization       3.7902838

 Broyden mixing:
  rms(total) = 0.17207E+01    rms(broyden)= 0.17192E+01
  rms(prec ) = 0.17306E+01
  weight for this iteration     100.00

 eigenvalues of (default mixing * dielectric matrix)
  average eigenvalue GAMMA=   0.3283
  0.3983  0.2933  0.2933

 Free energy of the ion-electron system (eV)
  ---------------------------------------------------
  alpha Z        PSCENC =        21.08711752
  Ewald energy   TEWEN  =      7005.02028753
  -Hartree energ DENC   =     -9725.91017183
  -exchange      EXHF   =         0.00000000
  -V(xc)+E(xc)   XCENC  =        52.88165853
  PAW double counting   =      1570.82918640    -1525.26699345
  entropy T*S    EENTRO =         0.00000000
  eigenvalues    EBANDS =      -507.96027238
  atomic energy  EATOM  =      3067.78342517
  Solvation  Ediel_sol  =         0.00000000
  ---------------------------------------------------
  free energy    TOTEN  =       -41.53576251 eV

  energy without entropy =      -41.53576251  energy(sigma->0) =      -41.53576251


--------------------------------------------------------------------------------------------------------




--------------------------------------- Iteration      1(   9)  ---------------------------------------


    POTLOK:  cpu time   52.3280: real time   52.5312
    SETDIJ:  cpu time    0.0400: real time    0.0395
     EDDAV:  cpu time   29.0640: real time   29.4020
 BZINTS: Fermi energy: -4.511068; 60.000000 electrons
         Band energy:-518.376828;  BLOECHL correction: -0.012484
       DOS:  cpu time    0.0040: real time    0.0072
    CHARGE:  cpu time    2.0120: real time    2.0602
    MIXING:  cpu time    0.0400: real time    0.0431
    --------------------------------------------
      LOOP:  cpu time   83.4880: real time   84.0832

 eigenvalue-minimisations  :  1280
 total energy-change (2. order) :-0.1143094E+02  (-0.1013551E+02)
 number of electron      60.0000005 magnetization       7.0403252
 augmentation part        2.2187152 magnetization       2.7569857

 Broyden mixing:
  rms(total) = 0.23970E+01    rms(broyden)= 0.23923E+01
  rms(prec ) = 0.25144E+01
  weight for this iteration     100.00

 eigenvalues of (default mixing * dielectric matrix)
  average eigenvalue GAMMA=   0.2473
  0.3976  0.2923  0.2923  0.0068

 Free energy of the ion-electron system (eV)
  ---------------------------------------------------
  alpha Z        PSCENC =        21.08711752
  Ewald energy   TEWEN  =      7005.02028753
  -Hartree energ DENC   =     -9726.57876309
  -exchange      EXHF   =         0.00000000
  -V(xc)+E(xc)   XCENC  =        53.35136252
  PAW double counting   =      1567.12806982    -1522.38137426
  entropy T*S    EENTRO =         0.00000000
  eigenvalues    EBANDS =      -518.37682835
  atomic energy  EATOM  =      3067.78342517
  Solvation  Ediel_sol  =         0.00000000
  ---------------------------------------------------
  free energy    TOTEN  =       -52.96670313 eV

  energy without entropy =      -52.96670313  energy(sigma->0) =      -52.96670313


--------------------------------------------------------------------------------------------------------




--------------------------------------- Iteration      1(  10)  ---------------------------------------


    POTLOK:  cpu time   52.2720: real time   52.3291
    SETDIJ:  cpu time    0.0400: real time    0.0384
     EDDAV:  cpu time   22.7800: real time   23.0293
 BZINTS: Fermi energy: -4.348521; 60.000000 electrons
         Band energy:-508.509688;  BLOECHL correction: -0.015649
       DOS:  cpu time    0.0040: real time    0.0067
    CHARGE:  cpu time    1.9840: real time    1.9877
    MIXING:  cpu time    0.0600: real time    0.0581
    --------------------------------------------
      LOOP:  cpu time   77.1400: real time   77.4493

 eigenvalue-minimisations  :   976
 total energy-change (2. order) : 0.1031498E+02  (-0.8219366E+02)
 number of electron      60.0000006 magnetization       7.1172818
 augmentation part        2.7956319 magnetization       3.9244093

 Broyden mixing:
  rms(total) = 0.10518E+01    rms(broyden)= 0.10451E+01
  rms(prec ) = 0.10524E+01
  weight for this iteration     100.00

 eigenvalues of (default mixing * dielectric matrix)
  average eigenvalue GAMMA=   0.3272
  0.4337  0.4337  0.3816  0.3816  0.0056

 Free energy of the ion-electron system (eV)
  ---------------------------------------------------
  alpha Z        PSCENC =        21.08711752
  Ewald energy   TEWEN  =      7005.02028753
  -Hartree energ DENC   =     -9726.34012162
  -exchange      EXHF   =         0.00000000
  -V(xc)+E(xc)   XCENC  =        53.52563143
  PAW double counting   =      1566.82784321    -1522.04621622
  entropy T*S    EENTRO =         0.00000000
  eigenvalues    EBANDS =      -508.50968770
  atomic energy  EATOM  =      3067.78342517
  Solvation  Ediel_sol  =         0.00000000
  ---------------------------------------------------
  free energy    TOTEN  =       -42.65172067 eV

  energy without entropy =      -42.65172067  energy(sigma->0) =      -42.65172067


--------------------------------------------------------------------------------------------------------




--------------------------------------- Iteration      1(  11)  ---------------------------------------


    POTLOK:  cpu time   52.4160: real time   52.8343
    SETDIJ:  cpu time    0.0360: real time    0.0389
     EDDAV:  cpu time   27.1920: real time   27.3640
 BZINTS: Fermi energy: -4.377066; 60.000000 electrons
         Band energy:-507.946120;  BLOECHL correction: -0.014490
       DOS:  cpu time    0.0040: real time    0.0068
    CHARGE:  cpu time    2.0240: real time    2.0293
    MIXING:  cpu time    0.0440: real time    0.0450
    --------------------------------------------
      LOOP:  cpu time   81.7160: real time   82.3182

 eigenvalue-minimisations  :  1184
 total energy-change (2. order) :-0.5539540E+00  (-0.3476730E-01)
 number of electron      60.0000006 magnetization       7.2734723
 augmentation part        3.1013363 magnetization       4.1789120

 Broyden mixing:
  rms(total) = 0.54423E+00    rms(broyden)= 0.54371E+00
  rms(prec ) = 0.55243E+00
  weight for this iteration     100.00

 eigenvalues of (default mixing * dielectric matrix)
  average eigenvalue GAMMA=   0.5214
  0.9281  0.9281  0.5581  0.3542  0.3542  0.0056

 Free energy of the ion-electron system (eV)
  ---------------------------------------------------
  alpha Z        PSCENC =        21.08711752
  Ewald energy   TEWEN  =      7005.02028753
  -Hartree energ DENC   =     -9727.57134237
  -exchange      EXHF   =         0.00000000
  -V(xc)+E(xc)   XCENC  =        54.34666846
  PAW double counting   =      1564.14117084    -1520.06688129
  entropy T*S    EENTRO =         0.00000000
  eigenvalues    EBANDS =      -507.94612049
  atomic energy  EATOM  =      3067.78342517
  Solvation  Ediel_sol  =         0.00000000
  ---------------------------------------------------
  free energy    TOTEN  =       -43.20567463 eV

  energy without entropy =      -43.20567463  energy(sigma->0) =      -43.20567463


--------------------------------------------------------------------------------------------------------




--------------------------------------- Iteration      1(  12)  ---------------------------------------


    POTLOK:  cpu time   52.8200: real time   52.9969
    SETDIJ:  cpu time    0.0400: real time    0.0383
     EDDAV:  cpu time   27.7520: real time   27.9979
 BZINTS: Fermi energy: -4.252789; 60.000000 electrons
         Band energy:-505.095931;  BLOECHL correction: -0.021059
       DOS:  cpu time    0.0080: real time    0.0070
    CHARGE:  cpu time    2.0360: real time    2.0391
    MIXING:  cpu time    0.0440: real time    0.0447
    --------------------------------------------
      LOOP:  cpu time   82.7000: real time   83.1240

 eigenvalue-minimisations  :  1216
 total energy-change (2. order) :-0.2187054E+00  (-0.4026820E-01)
 number of electron      60.0000006 magnetization       7.4675632
 augmentation part        2.7441606 magnetization       4.1186203

 Broyden mixing:
  rms(total) = 0.45115E+00    rms(broyden)= 0.45112E+00
  rms(prec ) = 0.45941E+00
  weight for this iteration     100.00

 eigenvalues of (default mixing * dielectric matrix)
  average eigenvalue GAMMA=   0.6066
  1.2100  1.2100  0.3519  0.3519  0.5583  0.5583  0.0056

 Free energy of the ion-electron system (eV)
  ---------------------------------------------------
  alpha Z        PSCENC =        21.08711752
  Ewald energy   TEWEN  =      7005.02028753
  -Hartree energ DENC   =     -9730.82157767
  -exchange      EXHF   =         0.00000000
  -V(xc)+E(xc)   XCENC  =        55.35551421
  PAW double counting   =      1563.54154163    -1520.29475749
  entropy T*S    EENTRO =         0.00000000
  eigenvalues    EBANDS =      -505.09593091
  atomic energy  EATOM  =      3067.78342517
  Solvation  Ediel_sol  =         0.00000000
  ---------------------------------------------------
  free energy    TOTEN  =       -43.42438001 eV

  energy without entropy =      -43.42438001  energy(sigma->0) =      -43.42438001


--------------------------------------------------------------------------------------------------------




--------------------------------------- Iteration      1(  13)  ---------------------------------------


    POTLOK:  cpu time   51.3760: real time   52.6462
    SETDIJ:  cpu time    0.0360: real time    0.0370
     EDDAV:  cpu time   29.8400: real time   29.9905
 BZINTS: Fermi energy: -4.304462; 60.000000 electrons
         Band energy:-507.848084;  BLOECHL correction: -0.017869
       DOS:  cpu time    0.0040: real time    0.0068
    CHARGE:  cpu time    2.0200: real time    2.0222
    MIXING:  cpu time    0.0480: real time    0.0501
    --------------------------------------------
      LOOP:  cpu time   83.3240: real time   84.7528

 eigenvalue-minimisations  :  1312
 total energy-change (2. order) :-0.2623515E-01  (-0.2128507E-01)
 number of electron      60.0000006 magnetization       7.6845067
 augmentation part        3.0602440 magnetization       4.3766686

 Broyden mixing:
  rms(total) = 0.14586E+00    rms(broyden)= 0.14585E+00
  rms(prec ) = 0.15538E+00
  weight for this iteration     100.00

 eigenvalues of (default mixing * dielectric matrix)
  average eigenvalue GAMMA=   0.7013
  1.7679  1.1264  0.3524  0.3524  0.8498  0.6519  0.5042  0.0056

 Free energy of the ion-electron system (eV)
  ---------------------------------------------------
  alpha Z        PSCENC =        21.08711752
  Ewald energy   TEWEN  =      7005.02028753
  -Hartree energ DENC   =     -9728.51646099
  -exchange      EXHF   =         0.00000000
  -V(xc)+E(xc)   XCENC  =        56.12465065
  PAW double counting   =      1555.03761883    -1512.13916950
  entropy T*S    EENTRO =         0.00000000
  eigenvalues    EBANDS =      -507.84808437
  atomic energy  EATOM  =      3067.78342517
  Solvation  Ediel_sol  =         0.00000000
  ---------------------------------------------------
  free energy    TOTEN  =       -43.45061516 eV

  energy without entropy =      -43.45061516  energy(sigma->0) =      -43.45061516


--------------------------------------------------------------------------------------------------------




--------------------------------------- Iteration      1(  14)  ---------------------------------------


    POTLOK:  cpu time   52.5080: real time   52.7472
    SETDIJ:  cpu time    0.0400: real time    0.0386
     EDDAV:  cpu time   24.5320: real time   24.7270
 BZINTS: Fermi energy: -4.304889; 60.000000 electrons
         Band energy:-508.631163;  BLOECHL correction: -0.019526
       DOS:  cpu time    0.0080: real time    0.0071
    CHARGE:  cpu time    1.9800: real time    2.0028
    MIXING:  cpu time    0.0480: real time    0.0484
    --------------------------------------------
      LOOP:  cpu time   79.1160: real time   79.5711

 eigenvalue-minimisations  :  1056
 total energy-change (2. order) :-0.2197683E-02  (-0.7601523E-02)
 number of electron      60.0000006 magnetization       7.9140608
 augmentation part        3.0134107 magnetization       4.5131934

 Broyden mixing:
  rms(total) = 0.10063E+00    rms(broyden)= 0.10062E+00
  rms(prec ) = 0.10648E+00
  weight for this iteration     100.00

 eigenvalues of (default mixing * dielectric matrix)
  average eigenvalue GAMMA=   0.8211
  1.9440  1.9440  0.3524  0.3524  0.8345  0.8345  0.5610  0.5610  0.0056

 Free energy of the ion-electron system (eV)
  ---------------------------------------------------
  alpha Z        PSCENC =        21.08711752
  Ewald energy   TEWEN  =      7005.02028753
  -Hartree energ DENC   =     -9727.79407319
  -exchange      EXHF   =         0.00000000
  -V(xc)+E(xc)   XCENC  =        56.36902328
  PAW double counting   =      1552.61439619    -1509.90182648
  entropy T*S    EENTRO =         0.00000000
  eigenvalues    EBANDS =      -508.63116286
  atomic energy  EATOM  =      3067.78342517
  Solvation  Ediel_sol  =         0.00000000
  ---------------------------------------------------
  free energy    TOTEN  =       -43.45281285 eV

  energy without entropy =      -43.45281285  energy(sigma->0) =      -43.45281285


--------------------------------------------------------------------------------------------------------




--------------------------------------- Iteration      1(  15)  ---------------------------------------


    POTLOK:  cpu time   52.2560: real time   52.4970
    SETDIJ:  cpu time    0.0400: real time    0.0383
     EDDAV:  cpu time   31.3040: real time   31.6198
 BZINTS: Fermi energy: -4.305664; 60.000000 electrons
         Band energy:-508.897569;  BLOECHL correction: -0.021489
       DOS:  cpu time    0.0040: real time    0.0068
    CHARGE:  cpu time    1.9920: real time    2.0139
    MIXING:  cpu time    0.0480: real time    0.0500
    --------------------------------------------
      LOOP:  cpu time   85.6480: real time   86.2257

 eigenvalue-minimisations  :  1392
 total energy-change (2. order) :-0.1427200E-01  (-0.2801508E-02)
 number of electron      60.0000006 magnetization       8.1029268
 augmentation part        2.8878011 magnetization       4.5885544

 Broyden mixing:
  rms(total) = 0.12098E+00    rms(broyden)= 0.12097E+00
  rms(prec ) = 0.12205E+00
  weight for this iteration     100.00

 eigenvalues of (default mixing * dielectric matrix)
  average eigenvalue GAMMA=   0.8763
  2.2021  2.2021  0.9311  0.9311  0.3524  0.3524  0.6210  0.6210  0.5440  0.0056

 Free energy of the ion-electron system (eV)
  ---------------------------------------------------
  alpha Z        PSCENC =        21.08711752
  Ewald energy   TEWEN  =      7005.02028753
  -Hartree energ DENC   =     -9727.38142855
  -exchange      EXHF   =         0.00000000
  -V(xc)+E(xc)   XCENC  =        56.22369167
  PAW double counting   =      1553.68527520    -1510.98788393
  entropy T*S    EENTRO =         0.00000000
  eigenvalues    EBANDS =      -508.89756945
  atomic energy  EATOM  =      3067.78342517
  Solvation  Ediel_sol  =         0.00000000
  ---------------------------------------------------
  free energy    TOTEN  =       -43.46708485 eV

  energy without entropy =      -43.46708485  energy(sigma->0) =      -43.46708485


--------------------------------------------------------------------------------------------------------




--------------------------------------- Iteration      1(  16)  ---------------------------------------


    POTLOK:  cpu time   51.8400: real time   52.5552
    SETDIJ:  cpu time    0.0360: real time    0.0380
     EDDAV:  cpu time   29.7680: real time   30.0632
 BZINTS: Fermi energy: -4.308488; 60.000000 electrons
         Band energy:-509.162570;  BLOECHL correction: -0.020315
       DOS:  cpu time    0.0040: real time    0.0073
    CHARGE:  cpu time    2.0640: real time    2.0720
    MIXING:  cpu time    0.0480: real time    0.0503
    --------------------------------------------
      LOOP:  cpu time   83.7560: real time   84.7860

 eigenvalue-minimisations  :  1312
 total energy-change (2. order) :-0.1132956E-01  (-0.5344850E-03)
 number of electron      60.0000006 magnetization       8.4042948
 augmentation part        2.8707928 magnetization       4.8220301

 Broyden mixing:
  rms(total) = 0.11510E+00    rms(broyden)= 0.11509E+00
  rms(prec ) = 0.11665E+00
  weight for this iteration     100.00

 eigenvalues of (default mixing * dielectric matrix)
  average eigenvalue GAMMA=   0.9824
  2.7390  2.7390  1.0409  1.0409  0.3524  0.3524  0.7042  0.7042  0.5842  0.5437
  0.0056

 Free energy of the ion-electron system (eV)
  ---------------------------------------------------
  alpha Z        PSCENC =        21.08711752
  Ewald energy   TEWEN  =      7005.02028753
  -Hartree energ DENC   =     -9727.14195591
  -exchange      EXHF   =         0.00000000
  -V(xc)+E(xc)   XCENC  =        56.31009112
  PAW double counting   =      1554.15517391    -1511.52998379
  entropy T*S    EENTRO =         0.00000000
  eigenvalues    EBANDS =      -509.16256995
  atomic energy  EATOM  =      3067.78342517
  Solvation  Ediel_sol  =         0.00000000
  ---------------------------------------------------
  free energy    TOTEN  =       -43.47841441 eV

  energy without entropy =      -43.47841441  energy(sigma->0) =      -43.47841441


--------------------------------------------------------------------------------------------------------




--------------------------------------- Iteration      1(  17)  ---------------------------------------


    POTLOK:  cpu time   52.0520: real time   52.3031
    SETDIJ:  cpu time    0.0400: real time    0.0396
     EDDAV:  cpu time   30.5600: real time   30.7305
 BZINTS: Fermi energy: -4.324278; 60.000000 electrons
         Band energy:-510.043707;  BLOECHL correction: -0.019804
       DOS:  cpu time    0.0040: real time    0.0069
    CHARGE:  cpu time    2.0440: real time    2.0521
    MIXING:  cpu time    0.0520: real time    0.0528
    --------------------------------------------
      LOOP:  cpu time   84.7520: real time   85.1850

 eigenvalue-minimisations  :  1344
 total energy-change (2. order) :-0.1353132E-01  (-0.9429747E-03)
 number of electron      60.0000006 magnetization       8.8724561
 augmentation part        2.9081719 magnetization       5.2306280

 Broyden mixing:
  rms(total) = 0.64772E-01    rms(broyden)= 0.64767E-01
  rms(prec ) = 0.65149E-01
  weight for this iteration     100.00

 eigenvalues of (default mixing * dielectric matrix)
  average eigenvalue GAMMA=   1.2233
  5.2565  2.7770  1.2329  1.2329  0.3524  0.3524  0.8408  0.8408  0.5386  0.6247
  0.6247  0.0056

 Free energy of the ion-electron system (eV)
  ---------------------------------------------------
  alpha Z        PSCENC =        21.08711752
  Ewald energy   TEWEN  =      7005.02028753
  -Hartree energ DENC   =     -9726.29311279
  -exchange      EXHF   =         0.00000000
  -V(xc)+E(xc)   XCENC  =        56.41945818
  PAW double counting   =      1553.76497532    -1511.23038985
  entropy T*S    EENTRO =         0.00000000
  eigenvalues    EBANDS =      -510.04370681
  atomic energy  EATOM  =      3067.78342517
  Solvation  Ediel_sol  =         0.00000000
  ---------------------------------------------------
  free energy    TOTEN  =       -43.49194573 eV

  energy without entropy =      -43.49194573  energy(sigma->0) =      -43.49194573


--------------------------------------------------------------------------------------------------------




--------------------------------------- Iteration      1(  18)  ---------------------------------------


    POTLOK:  cpu time   52.3080: real time   52.5912
    SETDIJ:  cpu time    0.0600: real time    0.0615
     EDDAV:  cpu time   32.3760: real time   32.5115
 BZINTS: Fermi energy: -4.347329; 60.000000 electrons
         Band energy:-511.520208;  BLOECHL correction: -0.017639
       DOS:  cpu time    0.0080: real time    0.0074
    CHARGE:  cpu time    2.0200: real time    2.0246
    MIXING:  cpu time    0.0560: real time    0.0535
    --------------------------------------------
      LOOP:  cpu time   86.8280: real time   87.2496

 eigenvalue-minimisations  :  1440
 total energy-change (2. order) :-0.9829292E-02  (-0.9402740E-03)
 number of electron      60.0000006 magnetization       9.1826096
 augmentation part        2.8710645 magnetization       5.3403340

 Broyden mixing:
  rms(total) = 0.84188E-01    rms(broyden)= 0.84166E-01
  rms(prec ) = 0.85651E-01
  weight for this iteration     100.00

 eigenvalues of (default mixing * dielectric matrix)
  average eigenvalue GAMMA=   1.3641
  7.8274  2.6223  1.3076  1.3076  0.3524  0.3524  0.8550  0.8550  0.6197  0.6197
  0.5394  0.4690  0.0056

 Free energy of the ion-electron system (eV)
  ---------------------------------------------------
  alpha Z        PSCENC =        21.08711752
  Ewald energy   TEWEN  =      7005.02028753
  -Hartree energ DENC   =     -9724.85834297
  -exchange      EXHF   =         0.00000000
  -V(xc)+E(xc)   XCENC  =        56.51540383
  PAW double counting   =      1553.11218883    -1510.64164690
  entropy T*S    EENTRO =         0.00000000
  eigenvalues    EBANDS =      -511.52020804
  atomic energy  EATOM  =      3067.78342517
  Solvation  Ediel_sol  =         0.00000000
  ---------------------------------------------------
  free energy    TOTEN  =       -43.50177502 eV

  energy without entropy =      -43.50177502  energy(sigma->0) =      -43.50177502


--------------------------------------------------------------------------------------------------------




--------------------------------------- Iteration      1(  19)  ---------------------------------------


    POTLOK:  cpu time   52.2120: real time   52.6392
    SETDIJ:  cpu time    0.0400: real time    0.0382
     EDDAV:  cpu time   30.4360: real time   30.6337
 BZINTS: Fermi energy: -4.363140; 60.000000 electrons
         Band energy:-512.509954;  BLOECHL correction: -0.015883
       DOS:  cpu time    0.0040: real time    0.0069
    CHARGE:  cpu time    1.9400: real time    2.0242
    MIXING:  cpu time    0.0520: real time    0.0538
    --------------------------------------------
      LOOP:  cpu time   84.6840: real time   85.3960

 eigenvalue-minimisations  :  1344
 total energy-change (2. order) :-0.2998142E-02  (-0.1113094E-02)
 number of electron      60.0000006 magnetization       9.5122703
 augmentation part        2.8968282 magnetization       5.5734397

 Broyden mixing:
  rms(total) = 0.34454E-01    rms(broyden)= 0.34428E-01
  rms(prec ) = 0.35079E-01
  weight for this iteration     100.00

 eigenvalues of (default mixing * dielectric matrix)
  average eigenvalue GAMMA=   1.7613
 12.9554  2.6662  1.5441  1.5441  0.3524  0.3524  0.9692  0.9692  0.7183  0.7183
  0.5346  0.6917  0.6371  0.0056

 Free energy of the ion-electron system (eV)
  ---------------------------------------------------
  alpha Z        PSCENC =        21.08711752
  Ewald energy   TEWEN  =      7005.02028753
  -Hartree energ DENC   =     -9723.93575663
  -exchange      EXHF   =         0.00000000
  -V(xc)+E(xc)   XCENC  =        56.66390956
  PAW double counting   =      1552.33869754    -1509.95249941
  entropy T*S    EENTRO =         0.00000000
  eigenvalues    EBANDS =      -512.50995444
  atomic energy  EATOM  =      3067.78342517
  Solvation  Ediel_sol  =         0.00000000
  ---------------------------------------------------
  free energy    TOTEN  =       -43.50477317 eV

  energy without entropy =      -43.50477317  energy(sigma->0) =      -43.50477317


--------------------------------------------------------------------------------------------------------




--------------------------------------- Iteration      1(  20)  ---------------------------------------


    POTLOK:  cpu time   52.4080: real time   52.5124
    SETDIJ:  cpu time    0.0400: real time    0.0384
     EDDAV:  cpu time   29.4040: real time   30.2190
 BZINTS: Fermi energy: -4.372487; 60.000000 electrons
         Band energy:-513.466693;  BLOECHL correction: -0.009986
       DOS:  cpu time    0.0040: real time    0.0066
    CHARGE:  cpu time    1.9880: real time    2.0080
    MIXING:  cpu time    0.0520: real time    0.0536
    --------------------------------------------
      LOOP:  cpu time   83.8960: real time   84.8379

 eigenvalue-minimisations  :  1328
 total energy-change (2. order) : 0.1704215E-02  (-0.7549015E-03)
 number of electron      60.0000006 magnetization       9.5701087
 augmentation part        2.8641834 magnetization       5.4654237

 Broyden mixing:
  rms(total) = 0.53808E-01    rms(broyden)= 0.53781E-01
  rms(prec ) = 0.56151E-01
  weight for this iteration     100.00

 eigenvalues of (default mixing * dielectric matrix)
  average eigenvalue GAMMA=   1.8058
 14.4953  2.7025  1.6185  1.6185  0.3524  0.3524  0.9932  0.9932  0.0056  0.8164
  0.8164  0.6374  0.6374  0.5468  0.5017

 Free energy of the ion-electron system (eV)
  ---------------------------------------------------
  alpha Z        PSCENC =        21.08711752
  Ewald energy   TEWEN  =      7005.02028753
  -Hartree energ DENC   =     -9723.02621801
  -exchange      EXHF   =         0.00000000
  -V(xc)+E(xc)   XCENC  =        56.76837228
  PAW double counting   =      1551.90408221    -1509.57344277
  entropy T*S    EENTRO =         0.00000000
  eigenvalues    EBANDS =      -513.46669287
  atomic energy  EATOM  =      3067.78342517
  Solvation  Ediel_sol  =         0.00000000
  ---------------------------------------------------
  free energy    TOTEN  =       -43.50306895 eV

  energy without entropy =      -43.50306895  energy(sigma->0) =      -43.50306895


--------------------------------------------------------------------------------------------------------




--------------------------------------- Iteration      1(  21)  ---------------------------------------


    POTLOK:  cpu time   52.0520: real time   52.7363
    SETDIJ:  cpu time    0.0360: real time    0.0371
     EDDAV:  cpu time   31.7080: real time   32.3564
 BZINTS: Fermi energy: -4.377664; 60.000000 electrons
         Band energy:-513.706130;  BLOECHL correction: -0.010233
       DOS:  cpu time    0.0040: real time    0.0067
    CHARGE:  cpu time    2.0000: real time    2.0022
    MIXING:  cpu time    0.0560: real time    0.0535
    --------------------------------------------
      LOOP:  cpu time   85.8560: real time   87.1922

 eigenvalue-minimisations  :  1424
 total energy-change (2. order) :-0.9160770E-03  (-0.1340189E-03)
 number of electron      60.0000006 magnetization       9.6113027
 augmentation part        2.8813877 magnetization       5.5051562

 Broyden mixing:
  rms(total) = 0.32418E-01    rms(broyden)= 0.32416E-01
  rms(prec ) = 0.33877E-01
  weight for this iteration     100.00

 eigenvalues of (default mixing * dielectric matrix)
  average eigenvalue GAMMA=   1.8343
 15.1891  2.7621  1.7779  1.7779  1.1267  1.1267  0.3524  0.3524  0.8872  0.8872
  0.6798  0.6798  0.6079  0.6079  0.5282  0.0056

 Free energy of the ion-electron system (eV)
  ---------------------------------------------------
  alpha Z        PSCENC =        21.08711752
  Ewald energy   TEWEN  =      7005.02028753
  -Hartree energ DENC   =     -9722.80078099
  -exchange      EXHF   =         0.00000000
  -V(xc)+E(xc)   XCENC  =        56.79571533
  PAW double counting   =      1551.66562989    -1509.34924989
  entropy T*S    EENTRO =         0.00000000
  eigenvalues    EBANDS =      -513.70612959
  atomic energy  EATOM  =      3067.78342517
  Solvation  Ediel_sol  =         0.00000000
  ---------------------------------------------------
  free energy    TOTEN  =       -43.50398503 eV

  energy without entropy =      -43.50398503  energy(sigma->0) =      -43.50398503


--------------------------------------------------------------------------------------------------------




--------------------------------------- Iteration      1(  22)  ---------------------------------------


    POTLOK:  cpu time   52.1480: real time   52.5356
    SETDIJ:  cpu time    0.0360: real time    0.0381
     EDDAV:  cpu time   28.4680: real time   28.7717
 BZINTS: Fermi energy: -4.382257; 60.000000 electrons
         Band energy:-513.946953;  BLOECHL correction: -0.011014
       DOS:  cpu time    0.0040: real time    0.0067
    CHARGE:  cpu time    1.9280: real time    2.0175
    MIXING:  cpu time    0.0560: real time    0.0601
    --------------------------------------------
      LOOP:  cpu time   82.6400: real time   83.4297

 eigenvalue-minimisations  :  1264
 total energy-change (2. order) :-0.2740825E-02  (-0.1028594E-03)
 number of electron      60.0000006 magnetization       9.6123530
 augmentation part        2.9050909 magnetization       5.5171633

 Broyden mixing:
  rms(total) = 0.68988E-02    rms(broyden)= 0.68970E-02
  rms(prec ) = 0.76547E-02
  weight for this iteration     100.00

 eigenvalues of (default mixing * dielectric matrix)
  average eigenvalue GAMMA=   1.7976
 15.2836  2.7586  1.8084  1.8084  1.1582  1.1582  0.3524  0.3524  0.9806  0.9806
  0.7528  0.7528  0.6360  0.6360  0.5310  0.6035  0.0056

 Free energy of the ion-electron system (eV)
  ---------------------------------------------------
  alpha Z        PSCENC =        21.08711752
  Ewald energy   TEWEN  =      7005.02028753
  -Hartree energ DENC   =     -9722.58927490
  -exchange      EXHF   =         0.00000000
  -V(xc)+E(xc)   XCENC  =        56.83683351
  PAW double counting   =      1551.30117161    -1508.99933371
  entropy T*S    EENTRO =         0.00000000
  eigenvalues    EBANDS =      -513.94695258
  atomic energy  EATOM  =      3067.78342517
  Solvation  Ediel_sol  =         0.00000000
  ---------------------------------------------------
  free energy    TOTEN  =       -43.50672585 eV

  energy without entropy =      -43.50672585  energy(sigma->0) =      -43.50672585


--------------------------------------------------------------------------------------------------------




--------------------------------------- Iteration      1(  23)  ---------------------------------------


    POTLOK:  cpu time   51.0520: real time   52.4768
    SETDIJ:  cpu time    0.0400: real time    0.0380
     EDDAV:  cpu time   25.1480: real time   26.2919
 BZINTS: Fermi energy: -4.381660; 60.000000 electrons
         Band energy:-513.958636;  BLOECHL correction: -0.011124
       DOS:  cpu time    0.0040: real time    0.0068
    CHARGE:  cpu time    2.0040: real time    2.0252
    MIXING:  cpu time    0.0960: real time    0.0941
    --------------------------------------------
      LOOP:  cpu time   78.3440: real time   80.9327

 eigenvalue-minimisations  :  1120
 total energy-change (2. order) :-0.1223710E-02  (-0.2102402E-04)
 number of electron      60.0000006 magnetization       9.6003354
 augmentation part        2.9059523 magnetization       5.5078441

 Broyden mixing:
  rms(total) = 0.65196E-02    rms(broyden)= 0.65194E-02
  rms(prec ) = 0.72066E-02
  weight for this iteration     100.00

 eigenvalues of (default mixing * dielectric matrix)
  average eigenvalue GAMMA=   1.7746
 15.2051  2.8686  1.9561  1.9561  1.2636  1.2636  0.3524  0.3524  1.0360  1.0360
  0.0056  0.7905  0.7905  0.6604  0.6604  0.5296  0.6204  0.5956

 Free energy of the ion-electron system (eV)
  ---------------------------------------------------
  alpha Z        PSCENC =        21.08711752
  Ewald energy   TEWEN  =      7005.02028753
  -Hartree energ DENC   =     -9722.58789547
  -exchange      EXHF   =         0.00000000
  -V(xc)+E(xc)   XCENC  =        56.84864466
  PAW double counting   =      1551.29794032    -1508.99883327
  entropy T*S    EENTRO =         0.00000000
  eigenvalues    EBANDS =      -513.95863601
  atomic energy  EATOM  =      3067.78342517
  Solvation  Ediel_sol  =         0.00000000
  ---------------------------------------------------
  free energy    TOTEN  =       -43.50794956 eV

  energy without entropy =      -43.50794956  energy(sigma->0) =      -43.50794956


--------------------------------------------------------------------------------------------------------




--------------------------------------- Iteration      1(  24)  ---------------------------------------


    POTLOK:  cpu time   51.6920: real time   52.6576
    SETDIJ:  cpu time    0.0400: real time    0.0383
     EDDAV:  cpu time   20.0720: real time   20.2492
 BZINTS: Fermi energy: -4.381885; 60.000000 electrons
         Band energy:-513.964341;  BLOECHL correction: -0.011445
       DOS:  cpu time    0.0040: real time    0.0068
    CHARGE:  cpu time    2.0040: real time    2.0187
    MIXING:  cpu time    0.0640: real time    0.0671
    --------------------------------------------
      LOOP:  cpu time   73.8760: real time   75.0377

 eigenvalue-minimisations  :   816
 total energy-change (2. order) :-0.1265044E-02  (-0.1057276E-04)
 number of electron      60.0000006 magnetization       9.5859246
 augmentation part        2.9071906 magnetization       5.5024057

 Broyden mixing:
  rms(total) = 0.64295E-02    rms(broyden)= 0.64288E-02
  rms(prec ) = 0.70295E-02
  weight for this iteration     100.00

 eigenvalues of (default mixing * dielectric matrix)
  average eigenvalue GAMMA=   1.7947
 15.2236  2.8986  2.7424  1.7517  1.7517  1.1881  1.1881  0.3524  0.3524  0.0056
  0.9730  0.9730  0.8213  0.8213  0.5305  0.6453  0.6453  0.6171  0.6171

 Free energy of the ion-electron system (eV)
  ---------------------------------------------------
[...]
     34      -0.8146      0.00000
     35      -0.6632      0.00000
     36       0.7270      0.00000
     37       0.9545      0.00000
     38       1.8981      0.00000
     39       1.9246      0.00000
     40       2.5183      0.00000
     41       2.6677      0.00000
     42       2.9324      0.00000
     43       2.9914      0.00000
     44       3.1895      0.00000
     45       3.7363      0.00000
     46       3.7892      0.00000
     47       4.1166      0.00000
     48       4.4423      0.00000

 k-point     5 :      -0.4000    0.2000    0.0000
  band No.  band energies     occupation 
      1     -16.4618      1.00000
      2     -16.1269      1.00000
      3     -15.6772      1.00000
      4     -15.6339      1.00000
      5     -15.3570      1.00000
      6     -15.1819      1.00000
      7     -10.4904      1.00000
      8      -9.2884      1.00000
      9      -8.0554      1.00000
     10      -7.5326      1.00000
     11      -7.4969      1.00000
     12      -6.9691      1.00000
     13      -6.7467      1.00000
     14      -6.3695      1.00000
     15      -6.0809      1.00000
     16      -5.8436      1.00000
     17      -5.6676      1.00000
     18      -5.6068      1.00000
     19      -5.4895      1.00000
     20      -5.1407      1.00000
     21      -5.0380      1.00000
     22      -4.2913      1.00000
     23      -4.2272      1.00000
     24      -4.0397      1.00000
     25      -3.6434      1.00000
     26      -2.9408      1.00000
     27      -2.8266      1.00000
     28      -2.7044      1.00000
     29      -2.4198      1.00000
     30      -2.1608      0.00000
     31      -2.1390      0.00000
     32      -1.1905      0.00000
     33      -1.1045      0.00000
     34      -0.7359      0.00000
     35      -0.5833      0.00000
     36       0.2830      0.00000
     37       0.9943      0.00000
     38       1.4438      0.00000
     39       1.7484      0.00000
     40       2.2559      0.00000
     41       2.4500      0.00000
     42       2.7199      0.00000
     43       3.4201      0.00000
     44       3.5750      0.00000
     45       3.5936      0.00000
     46       3.7423      0.00000
     47       4.1730      0.00000
     48       4.6342      0.00000


--------------------------------------------------------------------------------------------------------


 soft charge-density along one line, spin component           1
         0         1         2         3         4         5         6         7         8         9
 total charge-density along one line

 soft charge-density along one line, spin component           2
         0         1         2         3         4         5         6         7         8         9
 total charge-density along one line

 pseudopotential strength for first ion, spin component:           1
-10.358  -0.089  -0.000  -0.000  -0.000   0.727   0.026   0.000
 -0.089 -10.623   0.000   0.000  -0.000   0.026   0.806  -0.000
 -0.000   0.000 -11.048   0.000   0.000   0.000  -0.000   0.928
 -0.000   0.000   0.000 -10.623   0.089   0.000  -0.000  -0.000
 -0.000  -0.000   0.000   0.089 -10.358   0.000   0.000  -0.000
  0.727   0.026   0.000   0.000   0.000   0.526  -0.009  -0.000
  0.026   0.806  -0.000  -0.000   0.000  -0.009   0.502   0.000
  0.000  -0.000   0.928  -0.000  -0.000  -0.000   0.000   0.468
  0.000  -0.000  -0.000   0.806  -0.026  -0.000   0.000   0.000
  0.000   0.000  -0.000  -0.026   0.727  -0.000  -0.000   0.000
 -0.000  -0.000   0.081  -0.000   0.000  -0.000  -0.000  -0.020
  0.000   0.000  -0.008   0.000  -0.000  -0.000  -0.000   0.002
 -0.000  -0.000   0.000  -0.000  -0.000   0.000   0.000  -0.000
 -0.000  -0.000   0.000  -0.000   0.000  -0.000   0.000  -0.000
 -0.000  -0.000   0.000  -0.000   0.000   0.001  -0.000  -0.000
  0.000   0.000  -0.000   0.000  -0.001  -0.000  -0.000   0.000
  0.000   0.000  -0.000   0.000  -0.000  -0.000  -0.000   0.000
 -0.001   0.000  -0.000   0.000  -0.000  -0.000  -0.000   0.000
 pseudopotential strength for first ion, spin component:           2
 -9.777  -0.057  -0.000   0.000  -0.000   0.553   0.018   0.000
 -0.057 -10.111   0.000   0.000   0.000   0.018   0.648  -0.000
 -0.000   0.000  -9.768   0.000   0.000   0.000  -0.000   0.552
  0.000   0.000   0.000 -10.111   0.057  -0.000  -0.000  -0.000
 -0.000   0.000   0.000   0.057  -9.777   0.000  -0.000  -0.000
  0.553   0.018   0.000  -0.000   0.000   0.578  -0.006  -0.000
  0.018   0.648  -0.000  -0.000  -0.000  -0.006   0.551   0.000
  0.000  -0.000   0.552  -0.000  -0.000  -0.000   0.000   0.576
 -0.000  -0.000  -0.000   0.648  -0.018   0.000   0.000   0.000
  0.000  -0.000  -0.000  -0.018   0.553  -0.000   0.000   0.000
 -0.000  -0.000   0.014  -0.000   0.000  -0.000  -0.000  -0.007
  0.000   0.000  -0.003   0.000  -0.000  -0.000  -0.000   0.001
 -0.000  -0.000   0.000  -0.000   0.002  -0.000   0.000  -0.000
 -0.000  -0.000  -0.000  -0.000  -0.000  -0.000   0.000   0.000
  0.002  -0.000   0.000  -0.000  -0.000  -0.000  -0.000  -0.000
  0.000   0.000  -0.000   0.000  -0.001  -0.000  -0.000   0.000
  0.000   0.000   0.000   0.000   0.000  -0.000  -0.000  -0.000
 -0.001   0.000  -0.000   0.000  -0.000   0.000  -0.000   0.000
 total augmentation occupancy for first ion, spin component:           1
  1.532  -0.375   0.000   0.000  -0.000   0.101   0.254   0.000  -0.000  -0.000   0.000   0.000  -0.000   0.000  -0.001   0.000
 -0.375   1.347  -0.000  -0.000   0.000   0.207   0.254   0.000  -0.000  -0.000   0.000   0.000  -0.000  -0.000   0.008   0.000
  0.000  -0.000   1.241  -0.000  -0.000   0.000   0.000  -0.065   0.000  -0.000   0.029   0.043   0.000   0.000  -0.000  -0.000
  0.000  -0.000  -0.000   1.347   0.375  -0.000   0.000   0.000   0.254  -0.207   0.000   0.000  -0.008  -0.000  -0.000   0.000
 -0.000   0.000  -0.000   0.375   1.532   0.000  -0.000  -0.000  -0.254   0.101  -0.000  -0.000  -0.001  -0.000   0.000   0.000
  0.101   0.207   0.000  -0.000   0.000   0.149   0.075   0.000  -0.000  -0.000   0.000  -0.000  -0.000   0.000   0.018   0.000
  0.254   0.254   0.000   0.000  -0.000   0.075   0.235   0.000  -0.000  -0.000  -0.000   0.000  -0.000   0.000  -0.005   0.000
  0.000   0.000  -0.065   0.000  -0.000   0.000   0.000   0.144   0.000  -0.000   0.051  -0.026  -0.000   0.000   0.000   0.000
 -0.000  -0.000   0.000   0.254  -0.254  -0.000  -0.000   0.000   0.235  -0.075  -0.000  -0.000   0.005   0.000  -0.000  -0.001
 -0.000  -0.000  -0.000  -0.207   0.101  -0.000  -0.000  -0.000  -0.075   0.149  -0.000   0.000   0.018  -0.000   0.000  -0.003
  0.000   0.000   0.029   0.000  -0.000   0.000  -0.000   0.051  -0.000  -0.000   1.085  -0.293   0.000  -0.000  -0.000   0.000
  0.000  -0.000   0.043  -0.000  -0.000  -0.000   0.000  -0.026  -0.000   0.000  -0.293   0.144  -0.000  -0.000  -0.000   0.000
 -0.000  -0.000   0.000  -0.008  -0.001  -0.000  -0.000  -0.000   0.005   0.018   0.000  -0.000   0.201   0.000  -0.000  -0.014
  0.000  -0.000   0.000  -0.000  -0.000   0.000  -0.000   0.000   0.000  -0.000  -0.000  -0.000   0.000   0.216   0.000  -0.000
 -0.001   0.008  -0.000  -0.000   0.000   0.018  -0.005   0.000  -0.000   0.000  -0.000  -0.000  -0.000   0.000   0.201   0.000
  0.000   0.000  -0.000   0.000   0.000   0.000   0.000   0.000  -0.001  -0.003   0.000   0.000  -0.014  -0.000   0.000   0.001
 -0.000   0.000  -0.000   0.000   0.000  -0.000  -0.000  -0.000  -0.000   0.000   0.000   0.000  -0.000  -0.016  -0.000   0.000
  0.000  -0.000   0.000   0.000  -0.000  -0.003   0.001  -0.000   0.000  -0.000   0.000   0.000  -0.000  -0.000  -0.014  -0.000
 total augmentation occupancy for first ion, spin component:           2
  0.111   0.017   0.000   0.000  -0.000  -0.057   0.007  -0.000  -0.000   0.000  -0.000   0.000   0.000  -0.000   0.008  -0.000
  0.017   0.052   0.000  -0.000   0.000   0.016  -0.040   0.000   0.000  -0.000  -0.000  -0.000  -0.000  -0.000  -0.005   0.000
  0.000   0.000   0.689   0.000  -0.000  -0.000   0.000  -0.213   0.000   0.000  -0.032   0.050  -0.000  -0.000   0.000  -0.000
  0.000  -0.000   0.000   0.052  -0.017  -0.000  -0.000   0.000  -0.040  -0.016  -0.000   0.000   0.005   0.000  -0.000  -0.000
 -0.000   0.000  -0.000  -0.017   0.111  -0.000  -0.000   0.000  -0.007  -0.057   0.000  -0.000   0.008   0.000  -0.000   0.000
 -0.057   0.016  -0.000  -0.000  -0.000  -0.005  -0.019   0.000   0.000  -0.000   0.000  -0.000  -0.000   0.000  -0.001  -0.000
  0.007  -0.040   0.000  -0.000  -0.000  -0.019  -0.019  -0.000   0.000   0.000  -0.000   0.000   0.000   0.000   0.001  -0.000
 -0.000   0.000  -0.213   0.000   0.000   0.000  -0.000   0.049  -0.000  -0.000   0.013  -0.009   0.000   0.000  -0.000  -0.000
 -0.000   0.000   0.000  -0.040  -0.007   0.000   0.000  -0.000  -0.019   0.019   0.000   0.000  -0.001   0.000   0.000   0.000
  0.000  -0.000   0.000  -0.016  -0.057  -0.000   0.000  -0.000   0.019  -0.005  -0.000   0.000  -0.001  -0.000   0.000   0.000
 -0.000   0.000  -0.032  -0.000   0.000   0.000  -0.000   0.013   0.000  -0.000   0.048   0.030   0.000   0.000   0.000   0.000
  0.000  -0.000   0.050   0.000  -0.000  -0.000   0.000  -0.009  -0.000   0.000   0.030  -0.014   0.000  -0.000  -0.000  -0.000
  0.000  -0.000  -0.000   0.005   0.008  -0.000   0.000   0.000  -0.001  -0.001   0.000   0.000   0.007   0.000  -0.000   0.001
 -0.000   0.000  -0.000  -0.000   0.000   0.000   0.000   0.000   0.000  -0.000   0.000  -0.000   0.000   0.006   0.000   0.000
  0.008  -0.005   0.000  -0.000  -0.000  -0.001   0.001  -0.000   0.000   0.000  -0.000  -0.000  -0.000   0.000   0.007  -0.000
 -0.000   0.000  -0.000  -0.000   0.000  -0.000  -0.000  -0.000   0.000   0.000   0.000  -0.000   0.001   0.000  -0.000  -0.000
  0.000  -0.000   0.000  -0.000  -0.000  -0.000  -0.000  -0.000   0.000   0.000  -0.000   0.000   0.000   0.001   0.000  -0.000
  0.000   0.000   0.000   0.000   0.000   0.000  -0.000   0.000  -0.000   0.000  -0.000  -0.000   0.000   0.000   0.001   0.000


------------------------ aborting loop because EDIFF is reached ----------------------------------------





 total charge     

# of ion       s       p       d       tot
------------------------------------------
    1        0.376   0.506   6.318   7.200
    2        0.376   0.506   6.318   7.200
    3        0.746   0.907   0.000   1.653
    4        0.746   0.907   0.000   1.653
    5        1.362   2.346   0.000   3.708
    6        1.356   2.365   0.000   3.722
    7        1.361   2.349   0.000   3.711
    8        1.362   2.346   0.000   3.708
    9        1.356   2.365   0.000   3.722
   10        1.361   2.349   0.000   3.711
--------------------------------------------------
tot         10.405  16.948  12.636  39.988



 magnetization (x)

# of ion       s       p       d       tot
------------------------------------------
    1        0.011   0.012   1.025   1.047
    2        0.011   0.012   1.025   1.047
    3       -0.003   0.008   0.000   0.005
    4       -0.003   0.008   0.000   0.005
    5       -0.001  -0.026   0.000  -0.028
    6       -0.001  -0.004   0.000  -0.005
    7       -0.001  -0.021   0.000  -0.022
    8       -0.001  -0.026   0.000  -0.028
    9       -0.001  -0.004   0.000  -0.005
   10       -0.001  -0.021   0.000  -0.022
--------------------------------------------------
tot          0.009  -0.064   2.050   1.994

    CHARGE:  cpu time    1.9760: real time    1.9779
    FORLOC:  cpu time    0.0560: real time    0.0556
    FORNL :  cpu time    6.7760: real time    6.8079
    STRESS:  cpu time   20.1840: real time   20.3996
    FORCOR:  cpu time   51.9280: real time   52.3445
    FORHAR:  cpu time    0.3440: real time    0.3475
    MIXING:  cpu time    0.0400: real time    0.0413
    OFIELD:  cpu time    0.0000: real time    0.0001

  FORCE on cell =-STRESS in cart. coord.  units (eV):
  Direction    XX          YY          ZZ          XY          YZ          ZX
  --------------------------------------------------------------------------------------
  Alpha Z    33.27441    33.27441    33.27441
  Ewald   11394.19129 11394.18862-13383.62015    -0.00184    -0.00055    -0.00099
  Hartree 11877.31930 11877.31994-11551.63005    -0.00026     0.00005     0.00008
  E(xc)    -236.18696  -236.18695  -235.10248     0.00000     0.00000     0.00001
  Local  -24174.47601-24174.47543 24006.50538     0.00163     0.00031     0.00057
  n-local   456.18894   456.09658   463.84240    -0.00476     0.64212     0.66677
  augment   -35.49959   -35.49951   -45.27748     0.00004     0.00002     0.00005
  Kinetic   686.90355   683.91931   711.86456    -2.00568     1.45665     1.66550
  Fock        0.00000     0.00000     0.00000     0.00000     0.00000     0.00000
  -------------------------------------------------------------------------------------
  Total       0.17594     0.17594    -0.14341    -0.00000    -0.00000     0.00000
  in kB       0.45911     0.45911    -0.37423    -0.00000    -0.00000     0.00000
  external pressure =        0.18 kB  Pullay stress =        0.00 kB


 VOLUME and BASIS-vectors are now :
 -----------------------------------------------------------------------------
  energy-cutoff  :      520.00
  volume of cell :      613.98
      direct lattice vectors                 reciprocal lattice vectors
     5.816088236  0.000000062  0.000000000     0.171936870 -0.099267791 -0.000000000
     2.908043805  5.036880004  0.000000000    -0.000000002  0.198535602 -0.000000000
     0.000000000  0.000000000 20.958688525    -0.000000000 -0.000000000  0.047712909

  length of vectors
     5.816088236  5.816087942 20.958688525     0.198535592  0.198535602  0.047712909


 FORCES acting on ions
    electron-ion (+dipol)            ewald-force                    non-local-force                 convergence-correction
 -----------------------------------------------------------------------------------------------
   -.147E-03 -.979E-04 0.599E+00   0.664E-03 0.393E-03 -.603E+00   0.694E-17 0.694E-17 0.778E-02   -.508E-07 -.804E-07 -.349E-03
   0.147E-03 0.979E-04 -.599E+00   -.664E-03 -.393E-03 0.603E+00   0.694E-17 -.992E-21 -.778E-02   0.508E-07 0.804E-07 0.349E-03
   -.172E-04 -.495E-04 0.268E+03   -.220E-03 -.124E-03 -.259E+03   0.261E-16 -.220E-16 -.890E+01   0.186E-07 0.113E-07 -.243E-02
   0.172E-04 0.495E-04 -.268E+03   0.220E-03 0.124E-03 0.259E+03   -.331E-16 0.807E-17 0.890E+01   -.186E-07 -.113E-07 0.243E-02
   -.202E+02 -.299E-02 -.541E+03   0.166E+02 0.684E-02 0.545E+03   0.366E+01 -.797E-02 -.421E+01   0.559E-02 -.823E-04 0.769E-02
   0.101E+02 0.175E+02 -.541E+03   -.829E+01 -.144E+02 0.545E+03   -.184E+01 -.316E+01 -.421E+01   -.287E-02 -.480E-02 0.769E-02
   0.101E+02 -.175E+02 -.541E+03   -.830E+01 0.144E+02 0.545E+03   -.182E+01 0.317E+01 -.421E+01   -.272E-02 0.488E-02 0.769E-02
   0.202E+02 0.299E-02 0.541E+03   -.166E+02 -.684E-02 -.545E+03   -.366E+01 0.797E-02 0.421E+01   -.559E-02 0.823E-04 -.769E-02
   -.101E+02 -.175E+02 0.541E+03   0.829E+01 0.144E+02 -.545E+03   0.184E+01 0.316E+01 0.421E+01   0.287E-02 0.480E-02 -.769E-02
   -.101E+02 0.175E+02 0.541E+03   0.830E+01 -.144E+02 -.545E+03   0.182E+01 -.317E+01 0.421E+01   0.272E-02 -.488E-02 -.769E-02
 -----------------------------------------------------------------------------------------------
   -.758E-10 -.135E-09 0.293E-09   0.000E+00 0.000E+00 0.341E-12   0.000E+00 0.000E+00 -.178E-14   0.283E-13 0.130E-12 -.211E-10


 POSITION                                       TOTAL-FORCE (eV/Angst)
 -----------------------------------------------------------------------------------
      2.90804      1.67896     10.47829         0.000000      0.000000      0.003776
      5.81609      3.35792     10.48040         0.000000     -0.000000     -0.003776
      0.00000      0.00000      9.36571         0.000000      0.000000      0.010175
      0.00000      0.00000     11.59297         0.000000     -0.000000     -0.010175
      3.67396      0.00069     11.91969         0.017211     -0.003377     -0.014670
      1.07167      1.85480     11.91969        -0.011530     -0.013217     -0.014670
      3.97852      3.18139     11.91969        -0.005681      0.016593     -0.014670
      5.05018      5.03619      9.03900        -0.017211      0.003377      0.014670
      7.65246      3.18208      9.03900         0.011530      0.013217      0.014670
      4.74562      1.85549      9.03900         0.005681     -0.016593      0.014670
 -----------------------------------------------------------------------------------
    total drift:                               -0.000000     -0.000000      0.000000


--------------------------------------------------------------------------------------------------------



  FREE ENERGIE OF THE ION-ELECTRON SYSTEM (eV)
  ---------------------------------------------------
  free  energy   TOTEN  =       -51.64136607 eV

  energy  without entropy=      -51.64136607  energy(sigma->0) =      -51.64136607

 d Force = 0.1691336E-03[-0.140E-03, 0.478E-03]  d Energy = 0.6992692E-03-0.530E-03
 d Force = 0.2833525E+01[ 0.283E+01, 0.283E+01]  d Ewald  = 0.1041517E+02-0.758E+01


--------------------------------------------------------------------------------------------------------


    POTLOK:  cpu time   52.1440: real time   52.4784


--------------------------------------------------------------------------------------------------------




--------------------------------------------------------------------------------------------------------


  
 reached required accuracy - stopping structural energy minimisation
     LOOP+:  cpu time  551.5320: real time  554.9948
    4ORBIT:  cpu time    0.0000: real time    0.0000



 total charge     

# of ion       s       p       d       tot
------------------------------------------
    1        0.376   0.506   6.318   7.200
    2        0.376   0.506   6.318   7.200
    3        0.746   0.907   0.000   1.653
    4        0.746   0.907   0.000   1.653
    5        1.362   2.346   0.000   3.708
    6        1.356   2.365   0.000   3.722
    7        1.361   2.349   0.000   3.711
    8        1.362   2.346   0.000   3.708
    9        1.356   2.365   0.000   3.722
   10        1.361   2.349   0.000   3.711
--------------------------------------------------
tot         10.405  16.948  12.636  39.988



 magnetization (x)

# of ion       s       p       d       tot
------------------------------------------
    1        0.011   0.012   1.025   1.047
    2        0.011   0.012   1.025   1.047
    3       -0.003   0.008   0.000   0.005
    4       -0.003   0.008   0.000   0.005
    5       -0.001  -0.026   0.000  -0.028
    6       -0.001  -0.004   0.000  -0.005
    7       -0.001  -0.021   0.000  -0.022
    8       -0.001  -0.026   0.000  -0.028
    9       -0.001  -0.004   0.000  -0.005
   10       -0.001  -0.021   0.000  -0.022
--------------------------------------------------
tot          0.009  -0.064   2.050   1.994

 BZINTS: Fermi energy: -2.386177; 60.000000 electrons
         Band energy:-458.442622;  BLOECHL correction:  0.000000

 total amount of memory used by VASP MPI-rank0   130085. kBytes
=======================================================================

   base      :      30000. kBytes
   nonlr-proj:       9790. kBytes
   fftplans  :      11247. kBytes
   grid      :      66142. kBytes
   one-center:        311. kBytes
   wavefun   :      12595. kBytes

  
  
 General timing and accounting informations for this job:
 ========================================================
  
                  Total CPU time used (sec):    13711.636
                            User time (sec):    13345.924
                          System time (sec):      365.712
                         Elapsed time (sec):    13821.904
  
                   Maximum memory used (kb):      386272.
                   Average memory used (kb):           0.
  
                          Minor page faults:     11994095
                          Major page faults:            7
                 Voluntary context switches:         1059
