       N       E                     dE             d eps       ncg     rms          rms(c)
DAV:   1     0.371179255039E+03    0.37118E+03   -0.16035E+04   960   0.813E+02
DAV:   2     0.454845180365E+01   -0.36663E+03   -0.34529E+03  1184   0.159E+02
DAV:   3    -0.412237384224E+02   -0.45772E+02   -0.44906E+02  1296   0.645E+01
DAV:   4    -0.434699547833E+02   -0.22462E+01   -0.22368E+01  1344   0.185E+01
DAV:   5    -0.435267821350E+02   -0.56827E-01   -0.56819E-01  1488   0.298E+00    0.146E+01
DAV:   6    -0.462588460244E+02   -0.27321E+01   -0.26266E+01  1488   0.454E+01    0.224E+01
DAV:   7    -0.415934260681E+02    0.46654E+01   -0.60440E+01  1328   0.699E+01    0.874E+00
DAV:   8    -0.414827671111E+02    0.11066E+00   -0.31125E+00  1392   0.904E+00    0.553E+00
DAV:   9    -0.418694675945E+02   -0.38670E+00   -0.17313E+00  1488   0.101E+01    0.329E+00
DAV:  10    -0.252985512798E+03   -0.21112E+03   -0.20849E+03  1568   0.747E+00    0.237E+01
DAV:  11    -0.440256667855E+02    0.20896E+03   -0.19423E+03  1072   0.330E+01    0.127E+01
DAV:  12    -0.418221859116E+02    0.22035E+01   -0.49081E+02  1024   0.713E+01    0.327E+00
DAV:  13    -0.423450152497E+02   -0.52283E+00   -0.75092E-01  1184   0.455E+00    0.210E+00
DAV:  14    -0.426012378583E+02   -0.25622E+00   -0.24585E-01  1440   0.537E+00    0.175E+00
DAV:  15    -0.427101310637E+02   -0.10889E+00   -0.20375E-01  1328   0.424E+00    0.765E-01
DAV:  16    -0.427562640302E+02   -0.46133E-01   -0.15689E-01  1056   0.207E+00    0.441E-01
DAV:  17    -0.427696507265E+02   -0.13387E-01   -0.11595E-02  1136   0.653E-01    0.233E-01
DAV:  18    -0.427734300064E+02   -0.37793E-02   -0.27480E-03  1040   0.322E-01    0.194E-01
DAV:  19    -0.427750862302E+02   -0.16562E-02   -0.65853E-04   992   0.128E-01    0.190E-01
DAV:  20    -0.427745994749E+02    0.48676E-03   -0.69591E-04   960   0.116E-01    0.187E-01
DAV:  21    -0.427765895595E+02   -0.19901E-02   -0.11728E-03   944   0.151E-01    0.184E-01
DAV:  22    -0.427771447826E+02   -0.55522E-03   -0.10180E-03   960   0.158E-01    0.179E-01
DAV:  23    -0.427788701141E+02   -0.17253E-02   -0.15837E-03  1056   0.181E-01    0.169E-01
DAV:  24    -0.427807433726E+02   -0.18733E-02   -0.16373E-03   944   0.178E-01    0.158E-01
DAV:  25    -0.427812423258E+02   -0.49895E-03   -0.32774E-04   912   0.986E-02    0.151E-01
DAV:  26    -0.427831437442E+02   -0.19014E-02   -0.63674E-04   944   0.122E-01    0.147E-01
DAV:  27    -0.427837570482E+02   -0.61330E-03   -0.83226E-04   848   0.140E-01    0.144E-01
DAV:  28    -0.427831799763E+02    0.57707E-03   -0.33668E-04   848   0.862E-02    0.143E-01
DAV:  29    -0.427845789954E+02   -0.13990E-02   -0.11376E-04   848   0.509E-02    0.142E-01
DAV:  30    -0.427841942988E+02    0.38470E-03   -0.13477E-04   976   0.577E-02    0.142E-01
DAV:  31    -0.427865138425E+02   -0.23195E-02   -0.85540E-04   944   0.131E-01    0.142E-01
DAV:  32    -0.427880133314E+02   -0.14995E-02   -0.62876E-03   816   0.308E-01    0.142E-01
DAV:  33    -0.427857723841E+02    0.22409E-02   -0.73898E-03   816   0.333E-01    0.142E-01
DAV:  34    -0.427836846299E+02    0.20878E-02   -0.10132E-03   848   0.115E-01    0.141E-01
DAV:  35    -0.427848580503E+02   -0.11734E-02   -0.27270E-04   832   0.707E-02    0.140E-01
DAV:  36    -0.427849218107E+02   -0.63760E-04   -0.46962E-04   848   0.944E-02
   1 F= -.42784922E+02 E0= -.42784922E+02  d E =-.427849E+02  mag=     6.0091
       N       E                     dE             d eps       ncg     rms          rms(c)
DAV:   1    -0.429438486419E+02   -0.15899E+00   -0.36356E+00  1232   0.106E+01    0.204E+00
DAV:   2    -0.429287196132E+02    0.15129E-01   -0.54206E-01  1200   0.731E+00    0.202E+00
DAV:   3    -0.428703767735E+02    0.58343E-01   -0.27053E-01  1312   0.598E+00    0.862E-01
DAV:   4    -0.428532946866E+02    0.17082E-01   -0.77508E-02  1424   0.210E+00    0.180E-01
DAV:   5    -0.428512606669E+02    0.20340E-02   -0.62866E-03  1200   0.556E-01    0.721E-02
DAV:   6    -0.428518842667E+02   -0.62360E-03   -0.11613E-03  1104   0.218E-01    0.467E-02
DAV:   7    -0.428523436372E+02   -0.45937E-03   -0.30381E-04  1072   0.134E-01    0.292E-02
DAV:   8    -0.428526294099E+02   -0.28577E-03   -0.15854E-04   912   0.129E-01    0.243E-02
DAV:   9    -0.428530076967E+02   -0.37829E-03   -0.14015E-04   880   0.898E-02    0.121E-02
DAV:  10    -0.428535155729E+02   -0.50788E-03   -0.21390E-04  1056   0.519E-02    0.947E-03
DAV:  11    -0.428541305491E+02   -0.61498E-03   -0.54562E-04  1072   0.535E-02    0.799E-03
DAV:  12    -0.428542789780E+02   -0.14843E-03   -0.15912E-04  1008   0.311E-02    0.699E-03
DAV:  13    -0.428542584041E+02    0.20574E-04   -0.17608E-04   880   0.286E-02
   2 F= -.42854258E+02 E0= -.42854258E+02  d E =-.693366E-01  mag=     5.9990
       N       E                     dE             d eps       ncg     rms          rms(c)
DAV:   1    -0.428541464830E+02    0.13250E-03   -0.22330E-04   992   0.728E-02    0.160E-02
DAV:   2    -0.428541644189E+02   -0.17936E-04   -0.35953E-05   816   0.669E-02
   3 F= -.42854164E+02 E0= -.42854164E+02  d E =-.692426E-01  mag=     5.9991
       N       E                     dE             d eps       ncg     rms          rms(c)
DAV:   1    -0.428841684729E+02   -0.30022E-01   -0.12519E+00  1040   0.402E+00    0.509E-01
DAV:   2    -0.428869311662E+02   -0.27627E-02   -0.76471E-02  1184   0.142E+00    0.339E-01
DAV:   3    -0.428854588530E+02    0.14723E-02   -0.99272E-03  1472   0.101E+00    0.254E-01
DAV:   4    -0.428838532565E+02    0.16056E-02   -0.46818E-03  1360   0.623E-01    0.735E-02
DAV:   5    -0.428835368027E+02    0.31645E-03   -0.80058E-04  1392   0.167E-01    0.244E-02
DAV:   6    -0.428834952424E+02    0.41560E-04   -0.66835E-05   816   0.342E-02
   4 F= -.42883495E+02 E0= -.42883495E+02  d E =-.293308E-01  mag=     5.9996
       N       E                     dE             d eps       ncg     rms          rms(c)
DAV:   1    -0.428893694984E+02   -0.58327E-02   -0.59430E-01   976   0.279E+00    0.358E-01
DAV:   2    -0.428906233346E+02   -0.12538E-02   -0.36996E-02  1184   0.101E+00    0.242E-01
DAV:   3    -0.428898533347E+02    0.77000E-03   -0.50867E-03  1328   0.728E-01    0.179E-01
DAV:   4    -0.428890339102E+02    0.81942E-03   -0.23707E-03  1344   0.438E-01    0.512E-02
DAV:   5    -0.428888825617E+02    0.15135E-03   -0.39769E-04  1040   0.123E-01    0.200E-02
DAV:   6    -0.428888721966E+02    0.10365E-04   -0.50238E-05   704   0.689E-02
   5 F= -.42888872E+02 E0= -.42888872E+02  d E =-.347078E-01  mag=     5.9998
       N       E                     dE             d eps       ncg     rms          rms(c)
DAV:   1    -0.428955691909E+02   -0.66866E-02   -0.27386E-01  1056   0.230E+00    0.409E-01
DAV:   2    -0.428940944593E+02    0.14747E-02   -0.24492E-02  1200   0.134E+00    0.371E-01
DAV:   3    -0.428919535932E+02    0.21409E-02   -0.93986E-03  1264   0.106E+00    0.196E-01
DAV:   4    -0.428904449928E+02    0.15086E-02   -0.42128E-03  1312   0.477E-01    0.510E-02
DAV:   5    -0.428902820151E+02    0.16298E-03   -0.34432E-04   976   0.140E-01    0.277E-02
DAV:   6    -0.428902199137E+02    0.62101E-04   -0.92839E-05   800   0.117E-01
   6 F= -.42890220E+02 E0= -.42890220E+02  d E =-.134772E-02  mag=     5.9999
       N       E                     dE             d eps       ncg     rms          rms(c)
DAV:   1    -0.428916826576E+02   -0.14006E-02   -0.48017E-02  1136   0.958E-01    0.165E-01
DAV:   2    -0.428915326252E+02    0.15003E-03   -0.39694E-03  1200   0.524E-01    0.144E-01
DAV:   3    -0.428912058420E+02    0.32678E-03   -0.14565E-03  1168   0.422E-01    0.800E-02
DAV:   4    -0.428910389858E+02    0.16686E-03   -0.66130E-04  1136   0.201E-01    0.219E-02
DAV:   5    -0.428910878316E+02   -0.48846E-04   -0.50627E-05   672   0.710E-02
   7 F= -.42891088E+02 E0= -.42891088E+02  d E =-.221564E-02  mag=     6.0000
