 vasp.5.4.4.18Apr17-6-g9f103f2a35 (build May  1 2020 15:48:39) complex           
 executed on             LinuxGNU date 2020.06.18  05:17:05
 running on   16 total cores
 distrk:  each k-point on   16 cores,    1 groups
 distr:  one band on NCORES_PER_BAND=   1 cores,   16 groups


--------------------------------------------------------------------------------------------------------


 INCAR:
 POTCAR:   PAW_PBE Cr 06Sep2000                   
 POTCAR:   PAW_PBE Si 05Jan2001                   
 POTCAR:   PAW_PBE Ge 05Jan2001                   
 POTCAR:   PAW_PBE Te 08Apr2002                   

 ----------------------------------------------------------------------------- 
|                                                                             |
|           W    W    AA    RRRRR   N    N  II  N    N   GGGG   !!!           |
|           W    W   A  A   R    R  NN   N  II  NN   N  G    G  !!!           |
|           W    W  A    A  R    R  N N  N  II  N N  N  G       !!!           |
|           W WW W  AAAAAA  RRRRR   N  N N  II  N  N N  G  GGG   !            |
|           WW  WW  A    A  R   R   N   NN  II  N   NN  G    G                |
|           W    W  A    A  R    R  N    N  II  N    N   GGGG   !!!           |
|                                                                             |
|      For optimal performance we recommend to set                            |
|        NCORE= 4 - approx SQRT( number of cores)                             |
|      NCORE specifies how many cores store one orbital (NPAR=cpu/NCORE).     |
|      This setting can  greatly improve the performance of VASP for DFT.     |
|      The default,   NCORE=1            might be grossly inefficient         |
|      on modern multi-core architectures or massively parallel machines.     |
|      Do your own testing !!!!                                               |
|      Unfortunately you need to use the default for GW and RPA calculations. |
|      (for HF NCORE is supported but not extensively tested yet)             |
|                                                                             |
 ----------------------------------------------------------------------------- 


 ----------------------------------------------------------------------------- 
|                                                                             |
|  ADVICE TO THIS USER RUNNING 'VASP/VAMP'   (HEAR YOUR MASTER'S VOICE ...):  |
|                                                                             |
|      You have switched on vdW-DFT.                                          |
|      This routine was written and supplied by Jiri Klimes.                  |
|      We recommed that you carefully read and cite the following             |
|      publication                                                            |
|      J. Klimes, D.R. Bowler, A. Michelides                                  |
|        J. Phys.: Cond Matt. 22 022201 (2010)                                |
|      J. Klimes, D.R. Bowler, A. Michelides                                  |
|        Phys. Rev. B. 83, 195131 (2011)                                      |
|      and references therein.                                                |
|                                                                             |
 ----------------------------------------------------------------------------- 

 POTCAR:   PAW_PBE Cr 06Sep2000                   
   VRHFIN =Cr : d5 s1                                                           
   LEXCH  = PE                                                                  
   EATOM  =   276.9744 eV,   20.3570 Ry                                         
                                                                                
   TITEL  = PAW_PBE Cr 06Sep2000                                                
   LULTRA =        F    use ultrasoft PP ?                                      
   IUNSCR =        1    unscreen: 0-lin 1-nonlin 2-no                           
   RPACOR =    2.080    partial core radius                                     
   POMASS =   51.996; ZVAL   =    6.000    mass and valenz                      
   RCORE  =    2.500    outmost cutoff radius                                   
   RWIGS  =    2.500; RWIGS  =    1.323    wigner-seitz radius (au A)           
   ENMAX  =  227.082; ENMIN  =  170.311 eV                                      
   RCLOC  =    1.721    cutoff for local pot                                    
   LCOR   =        T    correct aug charges                                     
   LPAW   =        T    paw PP                                                  
   EAUG   =  402.108                                                            
   DEXC   =    -.035                                                            
   RMAX   =    3.060    core radius for proj-oper                               
   RAUG   =    1.300    factor for augmentation sphere                          
   RDEP   =    2.609    radius for radial grids                                 
   QCUT   =   -4.085; QGAM   =    8.171    optimization parameters              
                                                                                
   Description                                                                  
     l     E      TYP  RCUT    TYP  RCUT                                        
     2   .000     23  2.500                                                     
     2   .000     23  2.500                                                     
     0   .000     23  2.500                                                     
     0   .000     23  2.500                                                     
     1  -.400     23  2.500                                                     
     1  2.000     23  2.500                                                     
     3   .000      7   .000                                                     
  local pseudopotential read in
  partial core-charges read in
  atomic valenz-charges read in
  non local Contribution for L=           2  read in
    real space projection operators read in
  non local Contribution for L=           2  read in
    real space projection operators read in
  non local Contribution for L=           0  read in
    real space projection operators read in
  non local Contribution for L=           0  read in
    real space projection operators read in
  non local Contribution for L=           1  read in
    real space projection operators read in
  non local Contribution for L=           1  read in
    real space projection operators read in
    PAW grid and wavefunctions read in

   number of l-projection  operators is LMAX  =           6
   number of lm-projection operators is LMMAX =          18

 POTCAR:   PAW_PBE Si 05Jan2001                   
   VRHFIN =Si: s2p2                                                             
   LEXCH  = PE                                                                  
   EATOM  =   103.0669 eV,    7.5752 Ry                                         
                                                                                
   TITEL  = PAW_PBE Si 05Jan2001                                                
   LULTRA =        F    use ultrasoft PP ?                                      
   IUNSCR =        1    unscreen: 0-lin 1-nonlin 2-no                           
   RPACOR =    1.500    partial core radius                                     
   POMASS =   28.085; ZVAL   =    4.000    mass and valenz                      
   RCORE  =    1.900    outmost cutoff radius                                   
   RWIGS  =    2.480; RWIGS  =    1.312    wigner-seitz radius (au A)           
   ENMAX  =  245.345; ENMIN  =  184.009 eV                                      
   ICORE  =        2    local potential                                         
   LCOR   =        T    correct aug charges                                     
   LPAW   =        T    paw PP                                                  
   EAUG   =  322.069                                                            
   DEXC   =    -.007                                                            
   RMAX   =    2.944    core radius for proj-oper                               
   RAUG   =    1.300    factor for augmentation sphere                          
   RDEP   =    1.993    radius for radial grids                                 
   QCUT   =   -4.246; QGAM   =    8.493    optimization parameters              
                                                                                
   Description                                                                  
     l     E      TYP  RCUT    TYP  RCUT                                        
     0   .000     23  1.900                                                     
     0   .000     23  1.900                                                     
     1   .000     23  1.900                                                     
     1   .000     23  1.900                                                     
     2   .000      7  1.900                                                     
  local pseudopotential read in
  partial core-charges read in
  atomic valenz-charges read in
  non local Contribution for L=           0  read in
    real space projection operators read in
  non local Contribution for L=           0  read in
    real space projection operators read in
  non local Contribution for L=           1  read in
    real space projection operators read in
  non local Contribution for L=           1  read in
    real space projection operators read in
    PAW grid and wavefunctions read in

   number of l-projection  operators is LMAX  =           4
   number of lm-projection operators is LMMAX =           8

 POTCAR:   PAW_PBE Ge 05Jan2001                   
   VRHFIN =Ge: s2p2                                                             
   LEXCH  = PE                                                                  
   EATOM  =   104.9960 eV,    7.7170 Ry                                         
                                                                                
   TITEL  = PAW_PBE Ge 05Jan2001                                                
   LULTRA =        F    use ultrasoft PP ?                                      
   IUNSCR =        1    unscreen: 0-lin 1-nonlin 2-no                           
   RPACOR =    2.170    partial core radius                                     
   POMASS =   72.610; ZVAL   =    4.000    mass and valenz                      
   RCORE  =    2.300    outmost cutoff radius                                   
   RWIGS  =    2.300; RWIGS  =    1.217    wigner-seitz radius (au A)           
   ENMAX  =  173.807; ENMIN  =  130.355 eV                                      
   ICORE  =        3    local potential                                         
   LCOR   =        T    correct aug charges                                     
   LPAW   =        T    paw PP                                                  
   EAUG   =  385.843                                                            
   DEXC   =    -.138                                                            
   RMAX   =    3.497    core radius for proj-oper                               
   RAUG   =    1.300    factor for augmentation sphere                          
   RDEP   =    2.318    radius for radial grids                                 
   QCUT   =   -3.574; QGAM   =    7.148    optimization parameters              
                                                                                
   Description                                                                  
     l     E      TYP  RCUT    TYP  RCUT                                        
     0   .000     23  2.300                                                     
     0   .000     23  2.300                                                     
     1   .000     23  2.300                                                     
     1   .000     23  2.300                                                     
     2   .000     23  2.300                                                     
     3  -.100      7  2.300                                                     
  local pseudopotential read in
  partial core-charges read in
  atomic valenz-charges read in
  non local Contribution for L=           0  read in
    real space projection operators read in
  non local Contribution for L=           0  read in
    real space projection operators read in
  non local Contribution for L=           1  read in
    real space projection operators read in
  non local Contribution for L=           1  read in
    real space projection operators read in
  non local Contribution for L=           2  read in
    real space projection operators read in
    PAW grid and wavefunctions read in

   number of l-projection  operators is LMAX  =           5
   number of lm-projection operators is LMMAX =          13

 POTCAR:   PAW_PBE Te 08Apr2002                   
   VRHFIN =Te: s2p4                                                             
   LEXCH  = PE                                                                  
   EATOM  =   223.2721 eV,   16.4100 Ry                                         
                                                                                
   TITEL  = PAW_PBE Te 08Apr2002                                                
   LULTRA =        F    use ultrasoft PP ?                                      
   IUNSCR =        1    unscreen: 0-lin 1-nonlin 2-no                           
   RPACOR =    2.200    partial core radius                                     
   POMASS =  127.600; ZVAL   =    6.000    mass and valenz                      
   RCORE  =    2.300    outmost cutoff radius                                   
   RWIGS  =    2.900; RWIGS  =    1.535    wigner-seitz radius (au A)           
   ENMAX  =  174.982; ENMIN  =  131.236 eV                                      
   ICORE  =        3    local potential                                         
   LCOR   =        T    correct aug charges                                     
   LPAW   =        T    paw PP                                                  
   EAUG   =  368.792                                                            
   DEXC   =    -.169                                                            
   RMAX   =    3.486    core radius for proj-oper                               
   RAUG   =    1.300    factor for augmentation sphere                          
   RDEP   =    2.397    radius for radial grids                                 
   QCUT   =   -3.586; QGAM   =    7.172    optimization parameters              
                                                                                
   Description                                                                  
     l     E      TYP  RCUT    TYP  RCUT                                        
     0   .000     23  2.300                                                     
     0   .000     23  2.300                                                     
     1   .000     23  2.300                                                     
     1   .000     23  2.300                                                     
     2   .000     23  2.300                                                     
     3  -.100     23  2.300                                                     
  local pseudopotential read in
  partial core-charges read in
  atomic valenz-charges read in
  non local Contribution for L=           0  read in
    real space projection operators read in
  non local Contribution for L=           0  read in
    real space projection operators read in
  non local Contribution for L=           1  read in
    real space projection operators read in
  non local Contribution for L=           1  read in
    real space projection operators read in
  non local Contribution for L=           2  read in
    real space projection operators read in
    PAW grid and wavefunctions read in

   number of l-projection  operators is LMAX  =           5
   number of lm-projection operators is LMMAX =          13

 Optimization of the real space projectors (new method)

 maximal supplied QI-value         = 15.12
 optimisation between [QCUT,QGAM] = [ 11.64, 23.28] = [ 37.95,151.78] Ry 
 Optimized for a Real-space Cutoff    1.49 Angstroem

   l    n(q)    QCUT    max X(q) W(low)/X(q) W(high)/X(q)  e(spline) 
   2      9    11.641     4.777    0.25E-04    0.21E-05    0.63E-07
   2      9    11.641    31.132    0.13E-03    0.22E-03    0.64E-06
   0     10    11.641    20.416    0.11E-04    0.74E-05    0.19E-07
   0     10    11.641    45.408    0.10E-03    0.85E-04    0.30E-06
   1     10    11.641     7.848    0.22E-04    0.23E-04    0.56E-07
   1     10    11.641     9.895    0.85E-04    0.54E-04    0.16E-06
 Optimization of the real space projectors (new method)

 maximal supplied QI-value         = 19.84
 optimisation between [QCUT,QGAM] = [ 11.51, 23.22] = [ 37.09,150.92] Ry 
 Optimized for a Real-space Cutoff    1.21 Angstroem

   l    n(q)    QCUT    max X(q) W(low)/X(q) W(high)/X(q)  e(spline) 
   0      8    11.508     8.708    0.18E-04    0.44E-05    0.47E-08
   0      8    11.508   106.241    0.70E-04    0.15E-03    0.51E-07
   1      8    11.508     5.901    0.63E-05    0.23E-04    0.21E-07
   1      8    11.508    73.241    0.15E-03    0.36E-04    0.79E-07
 Optimization of the real space projectors (new method)

 maximal supplied QI-value         = 16.25
 optimisation between [QCUT,QGAM] = [ 11.54, 23.24] = [ 37.28,151.24] Ry 
 Optimized for a Real-space Cutoff    1.28 Angstroem

   l    n(q)    QCUT    max X(q) W(low)/X(q) W(high)/X(q)  e(spline) 
   0      9    11.539     8.651    0.22E-04    0.16E-04    0.10E-07
   0      9    11.539    33.192    0.11E-03    0.16E-03    0.65E-07
   1      8    11.539     5.899    0.37E-04    0.28E-04    0.43E-07
   1      8    11.539    27.289    0.22E-03    0.28E-04    0.14E-06
   2      8    11.539     4.673    0.11E-03    0.18E-03    0.58E-07
 Optimization of the real space projectors (new method)

 maximal supplied QI-value         = 16.25
 optimisation between [QCUT,QGAM] = [ 11.54, 23.24] = [ 37.28,151.24] Ry 
 Optimized for a Real-space Cutoff    1.36 Angstroem

   l    n(q)    QCUT    max X(q) W(low)/X(q) W(high)/X(q)  e(spline) 
   0      9    11.539     7.090    0.13E-04    0.25E-05    0.51E-08
   0      9    11.539   101.654    0.53E-04    0.69E-04    0.12E-06
   1      9    11.539     5.276    0.20E-04    0.98E-05    0.24E-07
   1      9    11.539    81.891    0.24E-03    0.13E-04    0.15E-06
   2      9    11.539     5.599    0.30E-04    0.97E-04    0.54E-07

 ----------------------------------------------------------------------------- 
|                                                                             |
|  ADVICE TO THIS USER RUNNING 'VASP/VAMP'   (HEAR YOUR MASTER'S VOICE ...):  |
|                                                                             |
|      You enforced a specific xc-type in the INCAR file,                     |
|      a different type was found on the POTCAR file                          |
|          I HOPE YOU KNOW, WHAT YOU ARE  DOING                               |
|                                                                             |
 ----------------------------------------------------------------------------- 

 PAW_PBE Cr 06Sep2000                   :
 energy of atom  1       EATOM= -276.9744
 kinetic energy error for atom=    0.0010 (will be added to EATOM!!)
 PAW_PBE Si 05Jan2001                   :
 energy of atom  2       EATOM= -103.0669
 kinetic energy error for atom=    0.0005 (will be added to EATOM!!)
 PAW_PBE Ge 05Jan2001                   :
 energy of atom  3       EATOM= -104.9960
 kinetic energy error for atom=    0.0002 (will be added to EATOM!!)
 PAW_PBE Te 08Apr2002                   :
 energy of atom  4       EATOM= -223.2721
 kinetic energy error for atom=    0.0007 (will be added to EATOM!!)


 POSCAR: Cr2 Si Ge Te6                           
  positions in direct lattice
  velocities in cartesian coordinates
  No initial velocities read in
 exchange correlation table for  LEXCH =       42
   RHO(1)=    0.500       N(1)  =     2000
   RHO(2)=  100.500       N(2)  =     4000



--------------------------------------------------------------------------------------------------------


 ion  position               nearest neighbor table
   1  0.333  0.333  0.500-   6 2.78   5 2.78   7 2.78   8 2.78  10 2.78   9 2.78
   2  0.667  0.667  0.500-   9 2.78   8 2.78  10 2.78   5 2.78   7 2.78   6 2.78
   3  0.000  0.000  0.448-   4 2.43   8 2.63  10 2.63   9 2.63
   4  0.000  0.000  0.552-   3 2.43   5 2.63   7 2.63   6 2.63
   5  0.626  0.000  0.574-   4 2.63   1 2.78   2 2.78
   6  0.000  0.373  0.574-   4 2.63   1 2.78   2 2.78
   7  0.373  0.626  0.574-   4 2.63   1 2.78   2 2.78
   8  0.374  1.000  0.426-   3 2.63   2 2.78   1 2.78
   9  1.000  0.627  0.426-   3 2.63   2 2.78   1 2.78
  10  0.627  0.374  0.426-   3 2.63   2 2.78   1 2.78

  LATTYP: Found a hexagonal cell.
 ALAT       =     6.9077769333
 C/A-ratio  =     3.3939410937
  
  Lattice vectors:
  
 A1 = (   3.4538890000,  -5.9823100000,   0.0000000000)
 A2 = (  -6.9077770000,   0.0000000000,   0.0000000000)
 A3 = (   0.0000000000,   0.0000000000, -23.4445880000)


Analysis of symmetry for initial positions (statically):
=====================================================================
 Subroutine PRICEL returns:
 Original cell was already a primitive cell.
 

 Routine SETGRP: Setting up the symmetry group for a 
 hexagonal supercell.


 Subroutine GETGRP returns: Found  3 space group operations
 (whereof  3 operations were pure point group operations)
 out of a pool of 24 trial point group operations.


The static configuration has the point symmetry C_3 .


Analysis of symmetry for dynamics (positions and initial velocities):
=====================================================================
 Subroutine PRICEL returns:
 Original cell was already a primitive cell.
 

 Routine SETGRP: Setting up the symmetry group for a 
 hexagonal supercell.


 Subroutine GETGRP returns: Found  3 space group operations
 (whereof  3 operations were pure point group operations)
 out of a pool of 24 trial point group operations.


The dynamic configuration has the point symmetry C_3 .


Analysis of structural, dynamic, and magnetic symmetry:
=====================================================================
 Subroutine PRICEL returns:
 Original cell was already a primitive cell.
 

 Routine SETGRP: Setting up the symmetry group for a 
 hexagonal supercell.


 Subroutine GETGRP returns: Found  3 space group operations
 (whereof  3 operations were pure point group operations)
 out of a pool of 24 trial point group operations.


The magnetic configuration has the point symmetry C_3 .


 Subroutine INISYM returns: Found  3 space group operations
 (whereof  3 operations are pure point group operations),
 and found     1 'primitive' translations



 KPOINTS: Kpoints from vasprun.xml                

Automatic generation of k-mesh.
Space group operators:
 irot       det(A)        alpha          n_x          n_y          n_z        tau_x        tau_y        tau_z
    1     1.000000     0.000000     1.000000     0.000000     0.000000     0.000000     0.000000     0.000000
    2     1.000000   120.000000     0.000000     0.000000     1.000000     0.000000     0.000000     0.000000
    3     1.000000   120.000000     0.000000     0.000000    -1.000000     0.000000     0.000000     0.000000
 
 Subroutine IBZKPT returns following result:
 ===========================================
 
 Found      5 irreducible k-points:
 
 Following reciprocal coordinates:
            Coordinates               Weight
  0.000000  0.000000  0.000000      1.000000
  0.200000  0.000000  0.000000      6.000000
  0.400000  0.000000  0.000000      6.000000
  0.400000  0.200000  0.000000      6.000000
 -0.400000  0.200000  0.000000      6.000000
 
 Following cartesian coordinates:
            Coordinates               Weight
  0.000000  0.000000  0.000000      1.000000
  0.028953 -0.016716  0.000000      6.000000
  0.057906 -0.033432  0.000000      6.000000
  0.057906  0.000000  0.000000      6.000000
 -0.057906  0.066864  0.000000      6.000000
 
 TETIRR: Found     15 inequivalent tetrahedra from      150


--------------------------------------------------------------------------------------------------------




 Dimension of arrays:
   k-points           NKPTS =      5   k-points in BZ     NKDIM =      5   number of bands    NBANDS=     48
   number of dos      NEDOS =    301   number of ions     NIONS =     10
   non local maximal  LDIM  =      6   non local SUM 2l+1 LMDIM =     18
   total plane-waves  NPLWV = 524880
   max r-space proj   IRMAX =   7543   max aug-charges    IRDMAX=  31706
   dimension x,y,z NGX =    54 NGY =   54 NGZ =  180
   dimension x,y,z NGXF=   108 NGYF=  108 NGZF=  360
   support grid    NGXF=   108 NGYF=  108 NGZF=  360
   ions per type =               2   1   1   6
   NGX,Y,Z   is equivalent  to a cutoff of  13.00, 13.00, 12.76 a.u.
   NGXF,Y,Z  is equivalent  to a cutoff of  25.99, 25.99, 25.53 a.u.

 SYSTEM =  unknown system                          
 POSCAR =  Cr2 Si Ge Te6                           

 Startparameter for this run:
   NWRITE =      2    write-flag & timer
   PREC   = accura    normal or accurate (medium, high low for compatibility)
   ISTART =      0    job   : 0-new  1-cont  2-samecut
   ICHARG =      2    charge: 1-file 2-atom 10-const
   ISPIN  =      2    spin polarized calculation?
   LNONCOLLINEAR =      F non collinear calculations
   LSORBIT =      F    spin-orbit coupling
   INIWAV =      1    electr: 0-lowe 1-rand  2-diag
   LASPH  =      F    aspherical Exc in radial PAW
   METAGGA=      F    non-selfconsistent MetaGGA calc.

 Electronic Relaxation 1
   ENCUT  =  520.0 eV  38.22 Ry    6.18 a.u.  12.84 12.84 43.59*2*pi/ulx,y,z
   ENINI  =  520.0     initial cutoff
   ENAUG  =  402.1 eV  augmentation charge cutoff
   NELM   =    400;   NELMIN=  2; NELMDL=  0     # of ELM steps 
   EDIFF  = 0.1E-03   stopping-criterion for ELM
   LREAL  =      T    real-space projection
   NLSPLINE    = F    spline interpolate recip. space projectors
   LCOMPAT=      F    compatible to vasp.4.4
   GGA_COMPAT  = T    GGA compatible to vasp.4.4-vasp.4.6
   LMAXPAW     = -100 max onsite density
   LMAXMIX     =    2 max onsite mixed and CHGCAR
   VOSKOWN=      0    Vosko Wilk Nusair interpolation
   ROPT   =   -0.00025  -0.00025  -0.00025  -0.00025
 Ionic relaxation
   EDIFFG = 0.1E-02   stopping-criterion for IOM
   NSW    =     99    number of steps for IOM
   NBLOCK =      1;   KBLOCK =     99    inner block; outer block 
   IBRION =      2    ionic relax: 0-MD 1-quasi-New 2-CG
   NFREE  =      1    steps in history (QN), initial steepest desc. (CG)
   ISIF   =      3    stress and relaxation
   IWAVPR =     11    prediction:  0-non 1-charg 2-wave 3-comb
   ISYM   =      2    0-nonsym 1-usesym 2-fastsym
   LCORR  =      T    Harris-Foulkes like correction to forces

   POTIM  = 0.5000    time-step for ionic-motion
   TEIN   =    0.0    initial temperature
   TEBEG  =    0.0;   TEEND  =   0.0 temperature during run
   SMASS  =  -3.00    Nose mass-parameter (am)
   estimated Nose-frequenzy (Omega)   =  0.10E-29 period in steps =****** mass=  -0.109E-26a.u.
   SCALEE = 1.0000    scale energy and forces
   NPACO  =    256;   APACO  = 16.0  distance and # of slots for P.C.
   PSTRESS=    0.0 pullay stress

  Mass of Ions in am
   POMASS =  52.00 28.09 72.61127.60
  Ionic Valenz
   ZVAL   =   6.00  4.00  4.00  6.00
  Atomic Wigner-Seitz radii
   RWIGS  =  -1.00 -1.00 -1.00 -1.00
  virtual crystal weights 
   VCA    =   1.00  1.00  1.00  1.00
   NELECT =      56.0000    total number of electrons
   NUPDOWN=      -1.0000    fix difference up-down

 DOS related values:
   EMIN   =  10.00;   EMAX   =-10.00  energy-range for DOS
   EFERMI =   0.00
   ISMEAR =    -5;   SIGMA  =   0.05  broadening in eV -4-tet -1-fermi 0-gaus

 Electronic relaxation 2 (details)
   IALGO  =     38    algorithm
   LDIAG  =      T    sub-space diagonalisation (order eigenvalues)
   LSUBROT=      F    optimize rotation matrix (better conditioning)
   TURBO    =      0    0=normal 1=particle mesh
   IRESTART =      0    0=no restart 2=restart with 2 vectors
   NREBOOT  =      0    no. of reboots
   NMIN     =      0    reboot dimension
   EREF     =   0.00    reference energy to select bands
   IMIX   =      4    mixing-type and parameters
     AMIX     =   0.40;   BMIX     =  1.00
     AMIX_MAG =   1.60;   BMIX_MAG =  1.00
     AMIN     =   0.01
     WC   =   100.;   INIMIX=   1;  MIXPRE=   1;  MAXMIX= -45

 Intra band minimization:
   WEIMIN = 0.0010     energy-eigenvalue tresh-hold
   EBREAK =  0.52E-06  absolut break condition
   DEPER  =   0.30     relativ break condition  

   TIME   =   0.40     timestep for ELM

  volume/ion in A,a.u.               =      96.88       653.80
  Fermi-wavevector in a.u.,A,eV,Ry     =   0.632976  1.196152  5.451299  0.400659
  Thomas-Fermi vector in A             =   1.696476

 Write flags
   LWAVE        =      F    write WAVECAR
   LDOWNSAMPLE  =      F    k-point downsampling of WAVECAR
   LCHARG       =      T    write CHGCAR
   LVTOT        =      F    write LOCPOT, total local potential
   LVHAR        =      F    write LOCPOT, Hartree potential only
   LELF         =      F    write electronic localiz. function (ELF)
   LORBIT       =     11    0 simple, 1 ext, 2 COOP (PROOUT), +10 PAW based schemes


 Dipole corrections
   LMONO  =      F    monopole corrections only (constant potential shift)
   LDIPOL =      F    correct potential (dipole corrections)
   IDIPOL =      0    1-x, 2-y, 3-z, 4-all directions 
   EPSILON=  1.0000000 bulk dielectric constant

 Exchange correlation treatment:
   GGA     =    BO    GGA type
   LEXCH   =    42    internal setting for exchange type
   VOSKOWN=      0    Vosko Wilk Nusair interpolation
   LHFCALC =     F    Hartree Fock is set to
   LHFONE  =     F    Hartree Fock one center treatment
   AEXX    =    0.0000 exact exchange contribution

 vdW DFT:
   LUSE_VDW   =     T    switch on vdW DFT
   Zab_VDW    =-.8491    correlation parameter
   PARAM1     =0.1833
   PARAM2     =0.2200
   PARAM3     =0.0000
   -- rVV10 --
   BPARAM     = 6.3000
   CPARAM     = 0.0093

 Linear response parameters
   LEPSILON=     F    determine dielectric tensor
   LRPA    =     F    only Hartree local field effects (RPA)
   LNABLA  =     F    use nabla operator in PAW spheres
   LVEL    =     F    velocity operator in full k-point grid
   LINTERFAST=   F  fast interpolation
   KINTER  =     0    interpolate to denser k-point grid
   CSHIFT  =0.1000    complex shift for real part using Kramers Kronig
   OMEGAMAX=  -1.0    maximum frequency
   DEG_THRESHOLD= 0.2000000E-02 threshold for treating states as degnerate
   RTIME   =   -0.100 relaxation time in fs
  (WPLASMAI=    0.000 imaginary part of plasma frequency in eV, 0.658/RTIME)
   DFIELD  = 0.0000000 0.0000000 0.0000000 field for delta impulse in time

 Orbital magnetization related:
   ORBITALMAG=     F  switch on orbital magnetization
   LCHIMAG   =     F  perturbation theory with respect to B field
   DQ        =  0.001000  dq finite difference perturbation B field
   LLRAUG    =     F  two centre corrections for induced B field



--------------------------------------------------------------------------------------------------------


 conjugate gradient relaxation of ions
 charge density and potential will be updated during run
 spin polarized calculation
 Variant of blocked Davidson
 Davidson routine will perform the subspace rotation
 perform sub-space diagonalisation
    after iterative eigenvector-optimisation
 modified Broyden-mixing scheme, WC =      100.0
 initial mixing is a Kerker type mixing with AMIX =  0.4000 and BMIX =      1.0000
 Hartree-type preconditioning will be used
 using additional bands           20
 real space projection scheme for non local part
 use partial core corrections
 calculate Harris-corrections to forces   (improved forces if not selfconsistent)
 use gradient corrections 
 use of overlap-Matrix (Vanderbilt PP)
 Fermi weights with tetrahedron method with Bloechl corrections


--------------------------------------------------------------------------------------------------------


  energy-cutoff  :      520.00
  volume of cell :      968.84
      direct lattice vectors                 reciprocal lattice vectors
     6.907777000 -0.000000000  0.000000000     0.144764372 -0.083579742  0.000000000
     3.453888000  5.982310000  0.000000000     0.000000000  0.167159509 -0.000000000
     0.000000000  0.000000000 23.444588000    -0.000000000  0.000000000  0.042653767

  length of vectors
     6.907777000  6.907776433 23.444588000     0.167159495  0.167159509  0.042653767



 k-points in units of 2pi/SCALE and weight: Kpoints from vasprun.xml                
   0.00000000  0.00000000  0.00000000       0.040
   0.02895287 -0.01671595  0.00000000       0.240
   0.05790575 -0.03343190  0.00000000       0.240
   0.05790575  0.00000000  0.00000000       0.240
  -0.05790575  0.06686380  0.00000000       0.240

 k-points in reciprocal lattice and weights: Kpoints from vasprun.xml                
   0.00000000  0.00000000  0.00000000       0.040
   0.20000000  0.00000000  0.00000000       0.240
   0.40000000  0.00000000  0.00000000       0.240
   0.40000000  0.20000000  0.00000000       0.240
  -0.40000000  0.20000000  0.00000000       0.240

 position of ions in fractional coordinates (direct lattice) 
   0.33333300  0.33333300  0.49992500
   0.66666700  0.66666700  0.50007500
   0.00000000  0.00000000  0.44821600
   0.00000000  0.00000000  0.55178400
   0.62635700  0.00042000  0.57375200
   0.00042000  0.37322400  0.57375200
   0.37322400  0.62635700  0.57375200
   0.37364300  0.99958000  0.42624800
   0.99958000  0.62677600  0.42624800
   0.62677600  0.37364300  0.42624800

 position of ions in cartesian coordinates  (Angst):
   3.45388488  1.99410134 11.72053566
   6.90778012  3.98820866 11.72405234
   0.00000000  0.00000000 10.50823946
   0.00000000  0.00000000 12.93634854
   4.32818511  0.00251257 13.45137925
   1.29197516  2.23274167 13.45137925
   4.74151509  3.74706174 13.45137925
   6.03347989  5.97979743  9.99320875
   9.06968984  3.74956833  9.99320875
   5.62014991  2.23524826  9.99320875



--------------------------------------------------------------------------------------------------------


 k-point  1 :   0.0000 0.0000 0.0000  plane waves:   26073
 k-point  2 :   0.2000 0.0000 0.0000  plane waves:   26070
 k-point  3 :   0.4000 0.0000 0.0000  plane waves:   26086
 k-point  4 :   0.4000 0.2000 0.0000  plane waves:   26085
 k-point  5 :  -0.4000 0.2000 0.0000  plane waves:   26115

 maximum and minimum number of plane-waves per node :     26115    26070

 maximum number of plane-waves:     26115
 maximum index in each direction: 
   IXMAX=   13   IYMAX=   12   IZMAX=   43
   IXMIN=  -13   IYMIN=  -13   IZMIN=  -43


 serial   3D FFT for wavefunctions
 parallel 3D FFT for charge:
    minimum data exchange during FFTs selected (reduces bandwidth)


 total amount of memory used by VASP MPI-rank0   130713. kBytes
=======================================================================

   base      :      30000. kBytes
   nonlr-proj:       8213. kBytes
   fftplans  :      11247. kBytes
   grid      :      68332. kBytes
   one-center:        311. kBytes
   wavefun   :      12610. kBytes

     INWAV:  cpu time    0.0000: real time    0.0009
 Broyden mixing: mesh for mixing (old mesh)
   NGX = 25   NGY = 25   NGZ = 87
  (NGX  =108   NGY  =108   NGZ  =360)
  gives a total of  54375 points

 initial charge density was supplied:
 charge density of overlapping atoms calculated
 number of electron      56.0000000 magnetization      14.8000000
 keeping initial charge density in first step


--------------------------------------------------------------------------------------------------------


 Maximum index for non-local projection operator         7247
 Maximum index for augmentation-charges         2278 (set IRDMAX)


--------------------------------------------------------------------------------------------------------


 First call to EWALD:  gamma=   0.179
 Maximum number of real-space cells 4x 4x 1
 Maximum number of reciprocal cells 2x 2x 6

    FEWALD:  cpu time    0.0040: real time    0.0015


--------------------------------------- Iteration      1(   1)  ---------------------------------------


vdW kernel read from vdw_kernel.bindat
  0.0000  0.2424  0.5071  0.7962  1.1119  1.4567  1.8333  2.2446  2.6937  3.1842
  3.7199  4.3049  4.9438  5.6415  6.4036  7.2358  8.1446  9.1372 10.2212 11.4050
 12.6979 14.1099 15.6519 17.3360 19.1751 21.1837 23.3773 25.7729 28.3892 31.2465
 34.3669 37.7748 41.4965 45.5611 50.0000

    POTLOK:  cpu time   52.4760: real time   52.7409
    SETDIJ:  cpu time    0.0560: real time    0.0543
     EDDAV:  cpu time   22.4440: real time   23.0574
 BZINTS: Fermi energy:  6.202249; 56.000000 electrons
         Band energy:  23.699025;  BLOECHL correction: -0.069315
       DOS:  cpu time    0.0080: real time    0.0071
    --------------------------------------------
      LOOP:  cpu time   74.9840: real time   75.8598

 eigenvalue-minimisations  :   960
 total energy-change (2. order) : 0.3711793E+03  (-0.1603468E+04)
 number of electron      56.0000000 magnetization      14.8000000
 augmentation part       56.0000000 magnetization      14.8000000

 Free energy of the ion-electron system (eV)
  ---------------------------------------------------
  alpha Z        PSCENC =        12.70886290
  Ewald energy   TEWEN  =      5985.89955237
  -Hartree energ DENC   =     -7849.97450105
  -exchange      EXHF   =         0.00000000
  -V(xc)+E(xc)   XCENC  =      -228.37069198
  PAW double counting   =      1151.72699308     -836.68224472
  entropy T*S    EENTRO =         0.00000000
  eigenvalues    EBANDS =        23.69902539
  atomic energy  EATOM  =      2112.17225906
  Solvation  Ediel_sol  =         0.00000000
  ---------------------------------------------------
  free energy    TOTEN  =       371.17925504 eV

  energy without entropy =      371.17925504  energy(sigma->0) =      371.17925504


--------------------------------------------------------------------------------------------------------




--------------------------------------- Iteration      1(   2)  ---------------------------------------


     EDDAV:  cpu time   27.5480: real time   27.7743
 BZINTS: Fermi energy: -0.562507; 55.990713 electrons
         Band energy:-342.931778;  BLOECHL correction: -0.009854
       DOS:  cpu time    0.0040: real time    0.0081
    --------------------------------------------
      LOOP:  cpu time   27.5520: real time   27.7825

 eigenvalue-minimisations  :  1184
 total energy-change (2. order) :-0.3666308E+03  (-0.3452915E+03)
 number of electron      56.0000000 magnetization      14.8000000
 augmentation part       56.0000000 magnetization      14.8000000

 Free energy of the ion-electron system (eV)
  ---------------------------------------------------
  alpha Z        PSCENC =        12.70886290
  Ewald energy   TEWEN  =      5985.89955237
  -Hartree energ DENC   =     -7849.97450105
  -exchange      EXHF   =         0.00000000
  -V(xc)+E(xc)   XCENC  =      -228.37069198
  PAW double counting   =      1151.72699308     -836.68224472
  entropy T*S    EENTRO =         0.00000000
  eigenvalues    EBANDS =      -342.93177785
  atomic energy  EATOM  =      2112.17225906
  Solvation  Ediel_sol  =         0.00000000
  ---------------------------------------------------
  free energy    TOTEN  =         4.54845180 eV

  energy without entropy =        4.54845180  energy(sigma->0) =        4.54845180


--------------------------------------------------------------------------------------------------------




--------------------------------------- Iteration      1(   3)  ---------------------------------------


     EDDAV:  cpu time   29.2080: real time   30.2275
 BZINTS: Fermi energy: -2.145750; 56.000000 electrons
         Band energy:-388.703968;  BLOECHL correction:  0.000000
       DOS:  cpu time    0.0040: real time    0.0014
    --------------------------------------------
      LOOP:  cpu time   29.2120: real time   30.2289

 eigenvalue-minimisations  :  1296
 total energy-change (2. order) :-0.4577219E+02  (-0.4490579E+02)
 number of electron      56.0000000 magnetization      14.8000000
 augmentation part       56.0000000 magnetization      14.8000000

 Free energy of the ion-electron system (eV)
  ---------------------------------------------------
  alpha Z        PSCENC =        12.70886290
  Ewald energy   TEWEN  =      5985.89955237
  -Hartree energ DENC   =     -7849.97450105
  -exchange      EXHF   =         0.00000000
  -V(xc)+E(xc)   XCENC  =      -228.37069198
  PAW double counting   =      1151.72699308     -836.68224472
  entropy T*S    EENTRO =         0.00000000
  eigenvalues    EBANDS =      -388.70396807
  atomic energy  EATOM  =      2112.17225906
  Solvation  Ediel_sol  =         0.00000000
  ---------------------------------------------------
  free energy    TOTEN  =       -41.22373842 eV

  energy without entropy =      -41.22373842  energy(sigma->0) =      -41.22373842


--------------------------------------------------------------------------------------------------------




--------------------------------------- Iteration      1(   4)  ---------------------------------------


     EDDAV:  cpu time   30.2520: real time   31.0710
 BZINTS: Fermi energy: -2.160301; 56.000000 electrons
         Band energy:-390.950184;  BLOECHL correction:  0.000000
       DOS:  cpu time    0.0000: real time    0.0014
    --------------------------------------------
      LOOP:  cpu time   30.2520: real time   31.0725

 eigenvalue-minimisations  :  1344
 total energy-change (2. order) :-0.2246216E+01  (-0.2236843E+01)
 number of electron      56.0000000 magnetization      14.8000000
 augmentation part       56.0000000 magnetization      14.8000000

 Free energy of the ion-electron system (eV)
  ---------------------------------------------------
  alpha Z        PSCENC =        12.70886290
  Ewald energy   TEWEN  =      5985.89955237
  -Hartree energ DENC   =     -7849.97450105
  -exchange      EXHF   =         0.00000000
  -V(xc)+E(xc)   XCENC  =      -228.37069198
  PAW double counting   =      1151.72699308     -836.68224472
  entropy T*S    EENTRO =         0.00000000
  eigenvalues    EBANDS =      -390.95018443
  atomic energy  EATOM  =      2112.17225906
  Solvation  Ediel_sol  =         0.00000000
  ---------------------------------------------------
  free energy    TOTEN  =       -43.46995478 eV

  energy without entropy =      -43.46995478  energy(sigma->0) =      -43.46995478


--------------------------------------------------------------------------------------------------------




--------------------------------------- Iteration      1(   5)  ---------------------------------------


     EDDAV:  cpu time   32.8280: real time   33.9061
 BZINTS: Fermi energy: -2.168673; 56.000000 electrons
         Band energy:-391.007012;  BLOECHL correction:  0.000000
       DOS:  cpu time    0.0000: real time    0.0022
    CHARGE:  cpu time    1.8960: real time    1.8976
    MIXING:  cpu time    0.0480: real time    0.0458
    --------------------------------------------
      LOOP:  cpu time   34.7720: real time   35.8517

 eigenvalue-minimisations  :  1488
 total energy-change (2. order) :-0.5682735E-01  (-0.5681926E-01)
 number of electron      56.0000002 magnetization      13.8564751
 augmentation part       -4.3111486 magnetization      11.4591250

 Broyden mixing:
  rms(total) = 0.14610E+01    rms(broyden)= 0.14610E+01
  rms(prec ) = 0.15449E+01
  weight for this iteration     100.00

 Free energy of the ion-electron system (eV)
  ---------------------------------------------------
  alpha Z        PSCENC =        12.70886290
  Ewald energy   TEWEN  =      5985.89955237
  -Hartree energ DENC   =     -7849.97450105
  -exchange      EXHF   =         0.00000000
  -V(xc)+E(xc)   XCENC  =      -228.37069198
  PAW double counting   =      1151.72699308     -836.68224472
  entropy T*S    EENTRO =         0.00000000
  eigenvalues    EBANDS =      -391.00701178
  atomic energy  EATOM  =      2112.17225906
  Solvation  Ediel_sol  =         0.00000000
  ---------------------------------------------------
  free energy    TOTEN  =       -43.52678214 eV

  energy without entropy =      -43.52678214  energy(sigma->0) =      -43.52678214


--------------------------------------------------------------------------------------------------------




--------------------------------------- Iteration      1(   6)  ---------------------------------------


    POTLOK:  cpu time   51.3880: real time   51.8698
    SETDIJ:  cpu time    0.0440: real time    0.0484
     EDDAV:  cpu time   33.5200: real time   33.8508
 BZINTS: Fermi energy: -3.293856; 56.000000 electrons
         Band energy:-419.039851;  BLOECHL correction: -0.027693
       DOS:  cpu time    0.0040: real time    0.0068
    CHARGE:  cpu time    1.9160: real time    1.9150
    MIXING:  cpu time    0.0400: real time    0.0401
    --------------------------------------------
      LOOP:  cpu time   86.9120: real time   87.7310

 eigenvalue-minimisations  :  1488
 total energy-change (2. order) :-0.2732064E+01  (-0.2626562E+01)
 number of electron      56.0000000 magnetization      13.5518183
 augmentation part        0.9806170 magnetization      10.8885625

 Broyden mixing:
  rms(total) = 0.22446E+01    rms(broyden)= 0.22446E+01
  rms(prec ) = 0.25388E+01
  weight for this iteration     100.00

 eigenvalues of (default mixing * dielectric matrix)
  average eigenvalue GAMMA=   0.4546
  0.4546

 Free energy of the ion-electron system (eV)
  ---------------------------------------------------
  alpha Z        PSCENC =        12.70886290
  Ewald energy   TEWEN  =      5985.89955237
  -Hartree energ DENC   =     -7827.25284834
  -exchange      EXHF   =         0.00000000
  -V(xc)+E(xc)   XCENC  =      -229.89310950
  PAW double counting   =      1143.67022122     -824.52393250
  entropy T*S    EENTRO =         0.00000000
  eigenvalues    EBANDS =      -419.03985123
  atomic energy  EATOM  =      2112.17225906
  Solvation  Ediel_sol  =         0.00000000
  ---------------------------------------------------
  free energy    TOTEN  =       -46.25884602 eV

  energy without entropy =      -46.25884602  energy(sigma->0) =      -46.25884602


--------------------------------------------------------------------------------------------------------




--------------------------------------- Iteration      1(   7)  ---------------------------------------


    POTLOK:  cpu time   51.6120: real time   51.6332
    SETDIJ:  cpu time    0.0520: real time    0.0504
     EDDAV:  cpu time   30.4160: real time   30.4576
 BZINTS: Fermi energy: -2.338016; 56.000000 electrons
         Band energy:-384.496690;  BLOECHL correction:  0.000000
       DOS:  cpu time    0.0000: real time    0.0033
    CHARGE:  cpu time    1.9000: real time    1.9019
    MIXING:  cpu time    0.0520: real time    0.0570
    --------------------------------------------
      LOOP:  cpu time   84.0320: real time   84.1034

 eigenvalue-minimisations  :  1328
 total energy-change (2. order) : 0.4665420E+01  (-0.6044003E+01)
 number of electron      56.0000001 magnetization      12.9110528
 augmentation part       -3.7506651 magnetization      10.5902076

 Broyden mixing:
  rms(total) = 0.87395E+00    rms(broyden)= 0.87393E+00
  rms(prec ) = 0.93818E+00
  weight for this iteration     100.00

 eigenvalues of (default mixing * dielectric matrix)
  average eigenvalue GAMMA=   0.5059
  0.7506  0.2613

 Free energy of the ion-electron system (eV)
  ---------------------------------------------------
  alpha Z        PSCENC =        12.70886290
  Ewald energy   TEWEN  =      5985.89955237
  -Hartree energ DENC   =     -7852.36780883
  -exchange      EXHF   =         0.00000000
  -V(xc)+E(xc)   XCENC  =      -230.13155719
  PAW double counting   =      1195.56857638     -880.94662063
  entropy T*S    EENTRO =         0.00000000
  eigenvalues    EBANDS =      -384.49669013
  atomic energy  EATOM  =      2112.17225906
  Solvation  Ediel_sol  =         0.00000000
  ---------------------------------------------------
  free energy    TOTEN  =       -41.59342607 eV

  energy without entropy =      -41.59342607  energy(sigma->0) =      -41.59342607


--------------------------------------------------------------------------------------------------------




--------------------------------------- Iteration      1(   8)  ---------------------------------------


    POTLOK:  cpu time   51.7400: real time   51.7692
    SETDIJ:  cpu time    0.0520: real time    0.0515
     EDDAV:  cpu time   31.4200: real time   31.5180
 BZINTS: Fermi energy: -2.388353; 56.000000 electrons
         Band energy:-387.577266;  BLOECHL correction:  0.000000
       DOS:  cpu time    0.0000: real time    0.0034
    CHARGE:  cpu time    1.9080: real time    1.9092
    MIXING:  cpu time    0.0400: real time    0.0411
    --------------------------------------------
      LOOP:  cpu time   85.1600: real time   85.2923

 eigenvalue-minimisations  :  1392
 total energy-change (2. order) : 0.1106590E+00  (-0.3112472E+00)
 number of electron      56.0000001 magnetization      11.2746590
 augmentation part       -3.3184408 magnetization       9.1391603

 Broyden mixing:
  rms(total) = 0.55333E+00    rms(broyden)= 0.55333E+00
  rms(prec ) = 0.57889E+00
  weight for this iteration     100.00

 eigenvalues of (default mixing * dielectric matrix)
  average eigenvalue GAMMA=   0.8157
  0.2877  1.0798  1.0798

 Free energy of the ion-electron system (eV)
  ---------------------------------------------------
  alpha Z        PSCENC =        12.70886290
  Ewald energy   TEWEN  =      5985.89955237
  -Hartree energ DENC   =     -7849.53683917
  -exchange      EXHF   =         0.00000000
  -V(xc)+E(xc)   XCENC  =      -229.78234569
  PAW double counting   =      1201.86525785     -887.23224804
  entropy T*S    EENTRO =         0.00000000
  eigenvalues    EBANDS =      -387.57726639
  atomic energy  EATOM  =      2112.17225906
  Solvation  Ediel_sol  =         0.00000000
  ---------------------------------------------------
  free energy    TOTEN  =       -41.48276711 eV

  energy without entropy =      -41.48276711  energy(sigma->0) =      -41.48276711


--------------------------------------------------------------------------------------------------------




--------------------------------------- Iteration      1(   9)  ---------------------------------------


    POTLOK:  cpu time   50.8480: real time   51.0513
    SETDIJ:  cpu time    0.0520: real time    0.0525
     EDDAV:  cpu time   33.3120: real time   33.4858
 BZINTS: Fermi energy: -2.311908; 56.000000 electrons
         Band energy:-385.890782;  BLOECHL correction:  0.000000
       DOS:  cpu time    0.0000: real time    0.0031
    CHARGE:  cpu time    1.8880: real time    1.8908
    MIXING:  cpu time    0.0800: real time    0.0800
    --------------------------------------------
      LOOP:  cpu time   86.1800: real time   86.5636

 eigenvalue-minimisations  :  1488
 total energy-change (2. order) :-0.3867005E+00  (-0.1731345E+00)
 number of electron      56.0000001 magnetization       9.8931566
 augmentation part       -2.5593132 magnetization       8.2056146

 Broyden mixing:
  rms(total) = 0.32901E+00    rms(broyden)= 0.32901E+00
  rms(prec ) = 0.33619E+00
  weight for this iteration     100.00

 eigenvalues of (default mixing * dielectric matrix)
  average eigenvalue GAMMA=   1.1047
  2.1325  1.3186  0.2860  0.6816

 Free energy of the ion-electron system (eV)
  ---------------------------------------------------
  alpha Z        PSCENC =        12.70886290
  Ewald energy   TEWEN  =      5985.89955237
  -Hartree energ DENC   =     -7852.33860123
  -exchange      EXHF   =         0.00000000
  -V(xc)+E(xc)   XCENC  =      -228.74620442
  PAW double counting   =      1224.71624387     -910.39079776
  entropy T*S    EENTRO =         0.00000000
  eigenvalues    EBANDS =      -385.89078237
  atomic energy  EATOM  =      2112.17225906
  Solvation  Ediel_sol  =         0.00000000
  ---------------------------------------------------
  free energy    TOTEN  =       -41.86946759 eV

  energy without entropy =      -41.86946759  energy(sigma->0) =      -41.86946759


--------------------------------------------------------------------------------------------------------




--------------------------------------- Iteration      1(  10)  ---------------------------------------


    POTLOK:  cpu time   50.8080: real time   51.0568
    SETDIJ:  cpu time    0.0520: real time    0.0519
     EDDAV:  cpu time   35.1600: real time   35.4017
 BZINTS: Fermi energy: -2.955619; 56.000000 electrons
         Band energy:-593.269727;  BLOECHL correction: -0.048117
       DOS:  cpu time    0.0040: real time    0.0066
    CHARGE:  cpu time    1.9320: real time    1.9368
    MIXING:  cpu time    0.0440: real time    0.0425
    --------------------------------------------
      LOOP:  cpu time   88.0000: real time   88.4963

 eigenvalue-minimisations  :  1568
 total energy-change (2. order) :-0.2111160E+03  (-0.2084933E+03)
 number of electron      56.0000001 magnetization       9.8928856
 augmentation part       -2.4547870 magnetization       9.2742933

 Broyden mixing:
  rms(total) = 0.23702E+01    rms(broyden)= 0.22938E+01
  rms(prec ) = 0.23293E+01
  weight for this iteration     100.00

 eigenvalues of (default mixing * dielectric matrix)
  average eigenvalue GAMMA=   0.8842
  2.1330  1.3182  0.2860  0.6816  0.0023

 Free energy of the ion-electron system (eV)
  ---------------------------------------------------
  alpha Z        PSCENC =        12.70886290
  Ewald energy   TEWEN  =      5985.89955237
  -Hartree energ DENC   =     -7856.13954826
  -exchange      EXHF   =         0.00000000
  -V(xc)+E(xc)   XCENC  =      -227.85567818
  PAW double counting   =      1231.26823717     -917.76947058
  entropy T*S    EENTRO =         0.00000000
  eigenvalues    EBANDS =      -593.26972727
  atomic energy  EATOM  =      2112.17225906
  Solvation  Ediel_sol  =         0.00000000
  ---------------------------------------------------
  free energy    TOTEN  =      -252.98551280 eV

  energy without entropy =     -252.98551280  energy(sigma->0) =     -252.98551280


--------------------------------------------------------------------------------------------------------




--------------------------------------- Iteration      1(  11)  ---------------------------------------


    POTLOK:  cpu time   50.6160: real time   50.8237
    SETDIJ:  cpu time    0.0520: real time    0.0515
     EDDAV:  cpu time   24.9880: real time   25.0205
 BZINTS: Fermi energy: -2.852043; 56.000000 electrons
         Band energy:-385.202420;  BLOECHL correction: -0.036488
       DOS:  cpu time    0.0040: real time    0.0064
    CHARGE:  cpu time    1.8600: real time    1.9244
    MIXING:  cpu time    0.0400: real time    0.0434
    --------------------------------------------
      LOOP:  cpu time   77.5600: real time   77.8700

 eigenvalue-minimisations  :  1072
 total energy-change (2. order) : 0.2089598E+03  (-0.1942323E+03)
 number of electron      56.0000001 magnetization       9.8904892
 augmentation part       -2.4297113 magnetization       9.0047768

 Broyden mixing:
  rms(total) = 0.12659E+01    rms(broyden)= 0.11636E+01
  rms(prec ) = 0.12081E+01
  weight for this iteration     100.00

 eigenvalues of (default mixing * dielectric matrix)
  average eigenvalue GAMMA=   0.7387
  2.1350  1.3167  0.6819  0.2860  0.0121  0.0006

 Free energy of the ion-electron system (eV)
  ---------------------------------------------------
  alpha Z        PSCENC =        12.70886290
  Ewald energy   TEWEN  =      5985.89955237
  -Hartree energ DENC   =     -7856.18402100
  -exchange      EXHF   =         0.00000000
  -V(xc)+E(xc)   XCENC  =      -226.90647153
  PAW double counting   =      1231.26720010     -917.78062867
  entropy T*S    EENTRO =         0.00000000
  eigenvalues    EBANDS =      -385.20242002
  atomic energy  EATOM  =      2112.17225906
  Solvation  Ediel_sol  =         0.00000000
  ---------------------------------------------------
  free energy    TOTEN  =       -44.02566679 eV

  energy without entropy =      -44.02566679  energy(sigma->0) =      -44.02566679


--------------------------------------------------------------------------------------------------------




--------------------------------------- Iteration      1(  12)  ---------------------------------------


    POTLOK:  cpu time   50.7160: real time   50.8591
    SETDIJ:  cpu time    0.0520: real time    0.0527
     EDDAV:  cpu time   23.8920: real time   24.0014
 BZINTS: Fermi energy: -2.305868; 56.000000 electrons
         Band energy:-382.425326;  BLOECHL correction:  0.000000
       DOS:  cpu time    0.0000: real time    0.0037
    CHARGE:  cpu time    1.8880: real time    1.8907
    MIXING:  cpu time    0.0440: real time    0.0446
    --------------------------------------------
      LOOP:  cpu time   76.5920: real time   76.8521

 eigenvalue-minimisations  :  1024
 total energy-change (2. order) : 0.2203481E+01  (-0.4908059E+02)
 number of electron      56.0000001 magnetization       9.1986090
 augmentation part       -2.4741801 magnetization       7.6178516

 Broyden mixing:
  rms(total) = 0.32667E+00    rms(broyden)= 0.29064E+00
  rms(prec ) = 0.30195E+00
  weight for this iteration     100.00
  WARNING: grid for Broyden might be to small

 eigenvalues of (default mixing * dielectric matrix)
  average eigenvalue GAMMA=   0.8109
  2.7402  1.0133  1.0133  0.2857  0.6169  0.0065  0.0007

 Free energy of the ion-electron system (eV)
  ---------------------------------------------------
  alpha Z        PSCENC =        12.70886290
  Ewald energy   TEWEN  =      5985.89955237
  -Hartree energ DENC   =     -7856.06990370
  -exchange      EXHF   =         0.00000000
  -V(xc)+E(xc)   XCENC  =      -227.59734256
  PAW double counting   =      1231.20274408     -917.71303173
  entropy T*S    EENTRO =         0.00000000
  eigenvalues    EBANDS =      -382.42532633
  atomic energy  EATOM  =      2112.17225906
  Solvation  Ediel_sol  =         0.00000000
  ---------------------------------------------------
  free energy    TOTEN  =       -41.82218591 eV

  energy without entropy =      -41.82218591  energy(sigma->0) =      -41.82218591


--------------------------------------------------------------------------------------------------------




--------------------------------------- Iteration      1(  13)  ---------------------------------------


    POTLOK:  cpu time   50.5520: real time   51.0356
    SETDIJ:  cpu time    0.0560: real time    0.0531
     EDDAV:  cpu time   27.2320: real time   27.3233
 BZINTS: Fermi energy: -2.295842; 56.000000 electrons
         Band energy:-381.396827;  BLOECHL correction:  0.000000
       DOS:  cpu time    0.0040: real time    0.0033
    CHARGE:  cpu time    1.9120: real time    1.9227
    MIXING:  cpu time    0.0440: real time    0.0449
    --------------------------------------------
      LOOP:  cpu time   79.8000: real time   80.3829

 eigenvalue-minimisations  :  1184
 total energy-change (2. order) :-0.5228293E+00  (-0.7509205E-01)
 number of electron      56.0000001 magnetization       8.1757924
 augmentation part       -2.6187065 magnetization       6.5712453

 Broyden mixing:
  rms(total) = 0.20999E+00    rms(broyden)= 0.20785E+00
  rms(prec ) = 0.21387E+00
  weight for this iteration     100.00

 eigenvalues of (default mixing * dielectric matrix)
  average eigenvalue GAMMA=   0.9118
  3.2720  1.2273  1.2273  0.2859  0.6694  0.6050  0.0066  0.0007

 Free energy of the ion-electron system (eV)
  ---------------------------------------------------
  alpha Z        PSCENC =        12.70886290
  Ewald energy   TEWEN  =      5985.89955237
  -Hartree energ DENC   =     -7857.03752311
  -exchange      EXHF   =         0.00000000
  -V(xc)+E(xc)   XCENC  =      -228.18907754
  PAW double counting   =      1232.43009958     -918.93236198
  entropy T*S    EENTRO =         0.00000000
  eigenvalues    EBANDS =      -381.39682653
  atomic energy  EATOM  =      2112.17225906
  Solvation  Ediel_sol  =         0.00000000
  ---------------------------------------------------
  free energy    TOTEN  =       -42.34501525 eV

  energy without entropy =      -42.34501525  energy(sigma->0) =      -42.34501525


--------------------------------------------------------------------------------------------------------




--------------------------------------- Iteration      1(  14)  ---------------------------------------


    POTLOK:  cpu time   50.7960: real time   50.9546
    SETDIJ:  cpu time    0.0520: real time    0.0509
     EDDAV:  cpu time   32.4360: real time   32.5738
 BZINTS: Fermi energy: -2.319117; 56.000000 electrons
         Band energy:-380.075341;  BLOECHL correction:  0.000000
       DOS:  cpu time    0.0000: real time    0.0036
    CHARGE:  cpu time    1.8920: real time    1.8934
    MIXING:  cpu time    0.0480: real time    0.0464
    --------------------------------------------
      LOOP:  cpu time   85.2240: real time   85.5227

 eigenvalue-minimisations  :  1440
 total energy-change (2. order) :-0.2562226E+00  (-0.2458529E-01)
 number of electron      56.0000001 magnetization       6.9442128
 augmentation part       -2.7340170 magnetization       5.2506107

 Broyden mixing:
  rms(total) = 0.17474E+00    rms(broyden)= 0.17464E+00
  rms(prec ) = 0.18457E+00
  weight for this iteration     100.00

 eigenvalues of (default mixing * dielectric matrix)
  average eigenvalue GAMMA=   1.1164
  4.9119  1.5277  1.5277  0.8100  0.6302  0.2858  0.3465  0.0066  0.0007

 Free energy of the ion-electron system (eV)
  ---------------------------------------------------
  alpha Z        PSCENC =        12.70886290
  Ewald energy   TEWEN  =      5985.89955237
  -Hartree energ DENC   =     -7858.11853138
  -exchange      EXHF   =         0.00000000
  -V(xc)+E(xc)   XCENC  =      -228.61286720
  PAW double counting   =      1230.76697306     -917.34214590
  entropy T*S    EENTRO =         0.00000000
  eigenvalues    EBANDS =      -380.07534077
  atomic energy  EATOM  =      2112.17225906
  Solvation  Ediel_sol  =         0.00000000
  ---------------------------------------------------
  free energy    TOTEN  =       -42.60123786 eV

  energy without entropy =      -42.60123786  energy(sigma->0) =      -42.60123786


--------------------------------------------------------------------------------------------------------




--------------------------------------- Iteration      1(  15)  ---------------------------------------


    POTLOK:  cpu time   50.8520: real time   50.9365
    SETDIJ:  cpu time    0.0520: real time    0.0527
     EDDAV:  cpu time   30.1440: real time   30.2511
 BZINTS: Fermi energy: -2.285265; 56.000000 electrons
         Band energy:-378.543866;  BLOECHL correction:  0.000000
       DOS:  cpu time    0.0000: real time    0.0034
    CHARGE:  cpu time    1.8840: real time    1.8843
    MIXING:  cpu time    0.0480: real time    0.0475
    --------------------------------------------
      LOOP:  cpu time   82.9800: real time   83.1755

 eigenvalue-minimisations  :  1328
 total energy-change (2. order) :-0.1088932E+00  (-0.2037477E-01)
 number of electron      56.0000001 magnetization       6.2817283
 augmentation part       -2.8078326 magnetization       4.5134685

 Broyden mixing:
  rms(total) = 0.76530E-01    rms(broyden)= 0.76520E-01
  rms(prec ) = 0.78999E-01
  weight for this iteration     100.00

 eigenvalues of (default mixing * dielectric matrix)
  average eigenvalue GAMMA=   1.3191
  6.9020  1.9260  1.1936  1.1936  0.7116  0.6372  0.2858  0.3335  0.0066  0.0007

 Free energy of the ion-electron system (eV)
  ---------------------------------------------------
  alpha Z        PSCENC =        12.70886290
  Ewald energy   TEWEN  =      5985.89955237
  -Hartree energ DENC   =     -7859.43555306
  -exchange      EXHF   =         0.00000000
  -V(xc)+E(xc)   XCENC  =      -228.89578245
  PAW double counting   =      1227.36920533     -913.98480906
  entropy T*S    EENTRO =         0.00000000
  eigenvalues    EBANDS =      -378.54386614
  atomic energy  EATOM  =      2112.17225906
  Solvation  Ediel_sol  =         0.00000000
  ---------------------------------------------------
  free energy    TOTEN  =       -42.71013106 eV

  energy without entropy =      -42.71013106  energy(sigma->0) =      -42.71013106


--------------------------------------------------------------------------------------------------------




--------------------------------------- Iteration      1(  16)  ---------------------------------------


    POTLOK:  cpu time   50.8200: real time   50.9737
    SETDIJ:  cpu time    0.0560: real time    0.0535
     EDDAV:  cpu time   24.5320: real time   24.6272
 BZINTS: Fermi energy: -2.296918; 56.000000 electrons
         Band energy:-377.879332;  BLOECHL correction:  0.000000
       DOS:  cpu time    0.0000: real time    0.0037
    CHARGE:  cpu time    1.8880: real time    1.8909
    MIXING:  cpu time    0.0480: real time    0.0492
    --------------------------------------------
      LOOP:  cpu time   77.3440: real time   77.5982

 eigenvalue-minimisations  :  1056
 total energy-change (2. order) :-0.4613297E-01  (-0.1568922E-01)
 number of electron      56.0000001 magnetization       6.0838716
 augmentation part       -2.7837602 magnetization       4.3426842

 Broyden mixing:
  rms(total) = 0.44117E-01    rms(broyden)= 0.44116E-01
  rms(prec ) = 0.45568E-01
  weight for this iteration     100.00

 eigenvalues of (default mixing * dielectric matrix)
  average eigenvalue GAMMA=   1.4902
  8.5083  2.3931  1.3676  1.3676  0.8066  0.7093  0.6128  0.2858  0.3340  0.0066
  0.0007

 Free energy of the ion-electron system (eV)
  ---------------------------------------------------
  alpha Z        PSCENC =        12.70886290
  Ewald energy   TEWEN  =      5985.89955237
  -Hartree energ DENC   =     -7860.29926390
  -exchange      EXHF   =         0.00000000
  -V(xc)+E(xc)   XCENC  =      -228.95080945
  PAW double counting   =      1224.70268348     -911.11021657
  entropy T*S    EENTRO =         0.00000000
  eigenvalues    EBANDS =      -377.87933192
  atomic energy  EATOM  =      2112.17225906
  Solvation  Ediel_sol  =         0.00000000
  ---------------------------------------------------
  free energy    TOTEN  =       -42.75626403 eV

  energy without entropy =      -42.75626403  energy(sigma->0) =      -42.75626403


--------------------------------------------------------------------------------------------------------




--------------------------------------- Iteration      1(  17)  ---------------------------------------


    POTLOK:  cpu time   50.8840: real time   50.9789
    SETDIJ:  cpu time    0.0520: real time    0.0540
     EDDAV:  cpu time   26.0240: real time   26.2257
 BZINTS: Fermi energy: -2.287192; 56.000000 electrons
         Band energy:-377.433960;  BLOECHL correction:  0.000000
       DOS:  cpu time    0.0000: real time    0.0030
    CHARGE:  cpu time    1.9200: real time    1.9263
    MIXING:  cpu time    0.0480: real time    0.0491
    --------------------------------------------
      LOOP:  cpu time   78.9280: real time   79.2370

 eigenvalue-minimisations  :  1136
 total energy-change (2. order) :-0.1338670E-01  (-0.1159496E-02)
 number of electron      56.0000001 magnetization       6.0307662
 augmentation part       -2.7617896 magnetization       4.3070149

 Broyden mixing:
  rms(total) = 0.23271E-01    rms(broyden)= 0.23271E-01
  rms(prec ) = 0.24451E-01
  weight for this iteration     100.00

 eigenvalues of (default mixing * dielectric matrix)
  average eigenvalue GAMMA=   1.5222
  9.1322  2.6303  1.3975  1.3975  1.0361  0.7167  0.7167  0.6127  0.2858  0.3332
  0.0066  0.0007

 Free energy of the ion-electron system (eV)
  ---------------------------------------------------
  alpha Z        PSCENC =        12.70886290
  Ewald energy   TEWEN  =      5985.89955237
  -Hartree energ DENC   =     -7860.84830109
  -exchange      EXHF   =         0.00000000
  -V(xc)+E(xc)   XCENC  =      -228.90975467
  PAW double counting   =      1223.31996269     -909.67827182
  entropy T*S    EENTRO =         0.00000000
  eigenvalues    EBANDS =      -377.43396017
  atomic energy  EATOM  =      2112.17225906
  Solvation  Ediel_sol  =         0.00000000
  ---------------------------------------------------
  free energy    TOTEN  =       -42.76965073 eV

  energy without entropy =      -42.76965073  energy(sigma->0) =      -42.76965073


--------------------------------------------------------------------------------------------------------




--------------------------------------- Iteration      1(  18)  ---------------------------------------


    POTLOK:  cpu time   50.6560: real time   50.9032
    SETDIJ:  cpu time    0.0520: real time    0.0524
     EDDAV:  cpu time   24.0120: real time   24.3013
 BZINTS: Fermi energy: -2.253538; 56.000000 electrons
         Band energy:-377.181630;  BLOECHL correction:  0.000000
       DOS:  cpu time    0.0040: real time    0.0037
    CHARGE:  cpu time    1.8120: real time    1.8931
    MIXING:  cpu time    0.0880: real time    0.0856
    --------------------------------------------
      LOOP:  cpu time   76.6240: real time   77.2392

 eigenvalue-minimisations  :  1040
 total energy-change (2. order) :-0.3779280E-02  (-0.2748036E-03)
 number of electron      56.0000001 magnetization       6.0221862
 augmentation part       -2.7528659 magnetization       4.3056512

 Broyden mixing:
  rms(total) = 0.19442E-01    rms(broyden)= 0.19442E-01
  rms(prec ) = 0.20422E-01
  weight for this iteration     100.00

 eigenvalues of (default mixing * dielectric matrix)
  average eigenvalue GAMMA=   1.5111
  9.2517  2.7091  1.4899  1.3554  1.3554  0.2858  0.7940  0.7940  0.6560  0.6132
  0.3331  0.0066  0.0007

 Free energy of the ion-electron system (eV)
  ---------------------------------------------------
  alpha Z        PSCENC =        12.70886290
  Ewald energy   TEWEN  =      5985.89955237
  -Hartree energ DENC   =     -7861.11490708
  -exchange      EXHF   =         0.00000000
  -V(xc)+E(xc)   XCENC  =      -228.93154363
  PAW double counting   =      1223.49544350     -909.82146691
  entropy T*S    EENTRO =         0.00000000
  eigenvalues    EBANDS =      -377.18163021
  atomic energy  EATOM  =      2112.17225906
  Solvation  Ediel_sol  =         0.00000000
  ---------------------------------------------------
  free energy    TOTEN  =       -42.77343001 eV

  energy without entropy =      -42.77343001  energy(sigma->0) =      -42.77343001


--------------------------------------------------------------------------------------------------------




--------------------------------------- Iteration      1(  19)  ---------------------------------------


    POTLOK:  cpu time   50.8560: real time   50.9228
    SETDIJ:  cpu time    0.0520: real time    0.0525
     EDDAV:  cpu time   23.2920: real time   23.3881
 BZINTS: Fermi energy: -2.295674; 56.000000 electrons
         Band energy:-377.019039;  BLOECHL correction:  0.000000
       DOS:  cpu time    0.0040: real time    0.0015
    CHARGE:  cpu time    1.8920: real time    1.8953
    MIXING:  cpu time    0.0480: real time    0.0510
    --------------------------------------------
      LOOP:  cpu time   76.1440: real time   76.3112

 eigenvalue-minimisations  :   992
 total energy-change (2. order) :-0.1656224E-02  (-0.6585296E-04)
 number of electron      56.0000001 magnetization       6.0189821
 augmentation part       -2.7507870 magnetization       4.3023225

 Broyden mixing:
  rms(total) = 0.19038E-01    rms(broyden)= 0.19038E-01
  rms(prec ) = 0.19922E-01
  weight for this iteration     100.00

 eigenvalues of (default mixing * dielectric matrix)
  average eigenvalue GAMMA=   1.4969
  9.2696  2.7430  1.7945  1.3575  1.3575  1.0099  0.2858  0.7745  0.7745  0.6468
  0.6024  0.3332  0.0066  0.0007

 Free energy of the ion-electron system (eV)
  ---------------------------------------------------
  alpha Z        PSCENC =        12.70886290
  Ewald energy   TEWEN  =      5985.89955237
  -Hartree energ DENC   =     -7861.26705206
  -exchange      EXHF   =         0.00000000
  -V(xc)+E(xc)   XCENC  =      -228.93472227
  PAW double counting   =      1223.82219960     -910.15714639
  entropy T*S    EENTRO =         0.00000000
  eigenvalues    EBANDS =      -377.01903944
  atomic energy  EATOM  =      2112.17225906
  Solvation  Ediel_sol  =         0.00000000
  ---------------------------------------------------
  free energy    TOTEN  =       -42.77508623 eV

  energy without entropy =      -42.77508623  energy(sigma->0) =      -42.77508623


--------------------------------------------------------------------------------------------------------




--------------------------------------- Iteration      1(  20)  ---------------------------------------


    POTLOK:  cpu time   50.8240: real time   50.9852
    SETDIJ:  cpu time    0.0480: real time    0.0512
     EDDAV:  cpu time   22.2720: real time   22.6718
 BZINTS: Fermi energy: -2.278006; 56.000000 electrons
         Band energy:-376.834664;  BLOECHL correction:  0.000000
       DOS:  cpu time    0.0000: real time    0.0034
    CHARGE:  cpu time    1.8680: real time    1.8822
    MIXING:  cpu time    0.0560: real time    0.0561
    --------------------------------------------
      LOOP:  cpu time   75.0680: real time   75.6499

 eigenvalue-minimisations  :   960
 total energy-change (2. order) : 0.4867554E-03  (-0.6959083E-04)
 number of electron      56.0000001 magnetization       6.0169790
 augmentation part       -2.7503479 magnetization       4.3001438

 Broyden mixing:
  rms(total) = 0.18689E-01    rms(broyden)= 0.18689E-01
  rms(prec ) = 0.19480E-01
  weight for this iteration     100.00

 eigenvalues of (default mixing * dielectric matrix)
  average eigenvalue GAMMA=   1.5014
  9.2747  2.7767  2.2278  1.3618  1.3618  1.2870  0.2858  0.8285  0.8285  0.7015
  0.6403  0.6055  0.3332  0.0066  0.0007

 Free energy of the ion-electron system (eV)
  ---------------------------------------------------
  alpha Z        PSCENC =        12.70886290
  Ewald energy   TEWEN  =      5985.89955237
  -Hartree energ DENC   =     -7861.43928405
  -exchange      EXHF   =         0.00000000
  -V(xc)+E(xc)   XCENC  =      -228.94047355
  PAW double counting   =      1224.14018214     -910.48103448
  entropy T*S    EENTRO =         0.00000000
  eigenvalues    EBANDS =      -376.83466386
  atomic energy  EATOM  =      2112.17225906
  Solvation  Ediel_sol  =         0.00000000
  ---------------------------------------------------
  free energy    TOTEN  =       -42.77459947 eV

  energy without entropy =      -42.77459947  energy(sigma->0) =      -42.77459947


--------------------------------------------------------------------------------------------------------




--------------------------------------- Iteration      1(  21)  ---------------------------------------


    POTLOK:  cpu time   50.6800: real time   51.0573
    SETDIJ:  cpu time    0.0520: real time    0.0513
     EDDAV:  cpu time   22.2680: real time   22.5975
 BZINTS: Fermi energy: -2.268129; 56.000000 electrons
         Band energy:-376.604908;  BLOECHL correction:  0.000000
       DOS:  cpu time    0.0000: real time    0.0032
    CHARGE:  cpu time    1.8840: real time    1.9010
    MIXING:  cpu time    0.0560: real time    0.0551
    --------------------------------------------
      LOOP:  cpu time   74.9400: real time   75.6653

 eigenvalue-minimisations  :   944
 total energy-change (2. order) :-0.1990085E-02  (-0.1172826E-03)
 number of electron      56.0000001 magnetization       6.0142183
 augmentation part       -2.7498187 magnetization       4.2975347

 Broyden mixing:
  rms(total) = 0.18414E-01    rms(broyden)= 0.18414E-01
  rms(prec ) = 0.19128E-01
  weight for this iteration     100.00

 eigenvalues of (default mixing * dielectric matrix)
  average eigenvalue GAMMA=   1.4852
  9.2764  2.8214  2.4283  1.3548  1.3548  1.3499  1.0079  0.2858  0.3332  0.8688
  0.7184  0.7184  0.6047  0.6333  0.0066  0.0007

 Free energy of the ion-electron system (eV)
  ---------------------------------------------------
  alpha Z        PSCENC =        12.70886290
  Ewald energy   TEWEN  =      5985.89955237
  -Hartree energ DENC   =     -7861.66615957
  -exchange      EXHF   =         0.00000000
  -V(xc)+E(xc)   XCENC  =      -228.94002386
  PAW double counting   =      1224.31401306     -910.66018541
  entropy T*S    EENTRO =         0.00000000
  eigenvalues    EBANDS =      -376.60490811
  atomic energy  EATOM  =      2112.17225906
  Solvation  Ediel_sol  =         0.00000000
  ---------------------------------------------------
  free energy    TOTEN  =       -42.77658956 eV

  energy without entropy =      -42.77658956  energy(sigma->0) =      -42.77658956


--------------------------------------------------------------------------------------------------------




--------------------------------------- Iteration      1(  22)  ---------------------------------------


    POTLOK:  cpu time   50.5920: real time   51.0117
    SETDIJ:  cpu time    0.0520: real time    0.0522
     EDDAV:  cpu time   22.5840: real time   22.6916
 BZINTS: Fermi energy: -2.261576; 56.000000 electrons
         Band energy:-376.141933;  BLOECHL correction:  0.000000
       DOS:  cpu time    0.0040: real time    0.0032
    CHARGE:  cpu time    1.9000: real time    1.9005
    MIXING:  cpu time    0.0520: real time    0.0548
    --------------------------------------------
      LOOP:  cpu time   75.1840: real time   75.7139

 eigenvalue-minimisations  :   960
 total energy-change (2. order) :-0.5552230E-03  (-0.1018031E-03)
 number of electron      56.0000001 magnetization       6.0098126
 augmentation part       -2.7492179 magnetization       4.2937518

 Broyden mixing:
  rms(total) = 0.17877E-01    rms(broyden)= 0.17877E-01
  rms(prec ) = 0.18461E-01
  weight for this iteration     100.00

 eigenvalues of (default mixing * dielectric matrix)
  average eigenvalue GAMMA=   1.4866
  9.2776  2.9290  2.5554  1.3460  1.3460  1.4342  1.4342  0.2858  0.3332  0.9076
  0.7596  0.7596  0.6619  0.6012  0.6330  0.0066  0.0007

 Free energy of the ion-electron system (eV)
  ---------------------------------------------------
  alpha Z        PSCENC =        12.70886290
  Ewald energy   TEWEN  =      5985.89955237
  -Hartree energ DENC   =     -7862.12826639
  -exchange      EXHF   =         0.00000000
  -V(xc)+E(xc)   XCENC  =      -228.93999066
  PAW double counting   =      1224.35783085     -910.70546012
  entropy T*S    EENTRO =         0.00000000
  eigenvalues    EBANDS =      -376.14193280
  atomic energy  EATOM  =      2112.17225906
  Solvation  Ediel_sol  =         0.00000000
  ---------------------------------------------------
  free energy    TOTEN  =       -42.77714478 eV

  energy without entropy =      -42.77714478  energy(sigma->0) =      -42.77714478


--------------------------------------------------------------------------------------------------------




[...]
     34       0.2182      0.00000
     35       0.2809      0.00000
     36       0.3610      0.00000
     37       0.7424      0.00000
     38       1.0979      0.00000
     39       1.2210      0.00000
     40       1.9183      0.00000
     41       2.0136      0.00000
     42       2.2022      0.00000
     43       2.3071      0.00000
     44       2.4669      0.00000
     45       2.7281      0.00000
     46       3.0614      0.00000
     47       3.2893      0.00000
     48       3.3786      0.00000

 k-point     5 :      -0.4000    0.2000    0.0000
  band No.  band energies     occupation 
      1     -14.0699      1.00000
      2     -13.5781      1.00000
      3     -13.3418      1.00000
      4     -13.2441      1.00000
      5     -13.0767      1.00000
      6     -12.9159      1.00000
      7     -10.2488      1.00000
      8      -8.4960      1.00000
      9      -6.4532      1.00000
     10      -6.0602      1.00000
     11      -5.9598      1.00000
     12      -5.5453      1.00000
     13      -5.4190      1.00000
     14      -5.0645      1.00000
     15      -4.6574      1.00000
     16      -4.4553      1.00000
     17      -4.2953      1.00000
     18      -4.1795      1.00000
     19      -4.0120      1.00000
     20      -3.9190      1.00000
     21      -3.6286      1.00000
     22      -3.3558      1.00000
     23      -3.2097      1.00000
     24      -3.1884      1.00000
     25      -3.0622      1.00000
     26      -1.7425      0.00000
     27      -0.9092      0.00000
     28      -0.8905      0.00000
     29      -0.8808      0.00000
     30      -0.3604      0.00000
     31      -0.3112      0.00000
     32      -0.3027      0.00000
     33       0.0168      0.00000
     34       0.0352      0.00000
     35       0.3923      0.00000
     36       0.4576      0.00000
     37       0.6681      0.00000
     38       0.8778      0.00000
     39       1.1862      0.00000
     40       1.7456      0.00000
     41       1.9485      0.00000
     42       1.9947      0.00000
     43       2.7497      0.00000
     44       2.8289      0.00000
     45       2.8514      0.00000
     46       2.9056      0.00000
     47       3.0493      0.00000
     48       3.5011      0.00000


--------------------------------------------------------------------------------------------------------


 soft charge-density along one line, spin component           1
         0         1         2         3         4         5         6         7         8         9
 total charge-density along one line

 soft charge-density along one line, spin component           2
         0         1         2         3         4         5         6         7         8         9
 total charge-density along one line

 pseudopotential strength for first ion, spin component:           1
 -8.519   0.090  -0.000   0.006  -0.000   0.609  -0.024   0.000
  0.090  -8.449   0.000  -0.000   0.006  -0.024   0.590  -0.000
 -0.000   0.000  -8.599   0.000   0.000   0.000  -0.000   0.631
  0.006  -0.000   0.000  -8.449  -0.090  -0.002   0.000  -0.000
 -0.000   0.006   0.000  -0.090  -8.519   0.000  -0.002  -0.000
  0.609  -0.024   0.000  -0.002   0.000   0.383   0.006  -0.000
 -0.024   0.590  -0.000   0.000  -0.002   0.006   0.388   0.000
  0.000  -0.000   0.631  -0.000  -0.000  -0.000   0.000   0.378
 -0.002   0.000  -0.000   0.590   0.024   0.000  -0.000   0.000
  0.000  -0.002  -0.000   0.024   0.609  -0.000   0.000   0.000
  0.000  -0.000   0.001  -0.000   0.000  -0.000   0.000  -0.000
 -0.000   0.000  -0.000   0.000  -0.000   0.000  -0.000   0.000
  0.000   0.002   0.000  -0.000   0.001  -0.000  -0.001  -0.000
 -0.000  -0.000   0.002  -0.000  -0.000   0.000   0.000  -0.001
  0.001  -0.000   0.000   0.002  -0.000  -0.000   0.000  -0.000
 -0.000  -0.001  -0.000   0.000  -0.001   0.000   0.000   0.000
  0.000   0.000  -0.001   0.000   0.000  -0.000  -0.000   0.000
 -0.001   0.000  -0.000  -0.001   0.000   0.000  -0.000   0.000
 pseudopotential strength for first ion, spin component:           2
 -6.844  -0.166  -0.000  -0.011  -0.000   0.135   0.043   0.000
 -0.166  -7.018   0.000  -0.000  -0.011   0.043   0.181  -0.000
 -0.000   0.000  -6.742   0.000   0.000   0.000  -0.000   0.109
 -0.011  -0.000   0.000  -7.018   0.166   0.003   0.000  -0.000
 -0.000  -0.011   0.000   0.166  -6.844   0.000   0.003  -0.000
  0.135   0.043   0.000   0.003   0.000   0.513  -0.011  -0.000
  0.043   0.181  -0.000   0.000   0.003  -0.011   0.502   0.000
  0.000  -0.000   0.109  -0.000  -0.000  -0.000   0.000   0.520
  0.003   0.000  -0.000   0.181  -0.043  -0.001  -0.000   0.000
  0.000   0.003  -0.000  -0.043   0.135  -0.000  -0.001   0.000
 -0.000  -0.000   0.007  -0.000   0.000  -0.000   0.000  -0.001
  0.000   0.000  -0.001   0.000  -0.000  -0.000  -0.000   0.000
  0.000   0.001   0.000  -0.000   0.001  -0.000  -0.000  -0.000
 -0.000  -0.000   0.001  -0.000   0.000   0.000   0.000  -0.000
  0.001  -0.000   0.000   0.001  -0.000   0.000   0.000  -0.000
 -0.000  -0.001  -0.000   0.000  -0.001   0.000   0.000   0.000
  0.000   0.000  -0.000   0.000  -0.000  -0.000  -0.000   0.000
 -0.001   0.000  -0.000  -0.001   0.000   0.000  -0.000   0.000
 total augmentation occupancy for first ion, spin component:           1
  0.979  -0.038   0.000  -0.002  -0.000   0.019   0.193  -0.000   0.013  -0.000  -0.000  -0.000   0.006   0.000   0.006   0.000
 -0.038   0.931  -0.000  -0.000  -0.002   0.192   0.215   0.000   0.000   0.013  -0.000   0.000   0.010   0.000   0.002  -0.000
  0.000  -0.000   1.024  -0.000  -0.000  -0.000   0.000  -0.109   0.000   0.000  -0.004  -0.012   0.000   0.001   0.000   0.000
 -0.002  -0.000  -0.000   0.931   0.038   0.013  -0.000   0.000   0.215  -0.192   0.000   0.000  -0.002   0.000   0.010  -0.000
 -0.000  -0.002  -0.000   0.038   0.979   0.000   0.013   0.000  -0.193   0.019   0.000   0.000   0.006  -0.000  -0.006   0.000
  0.019   0.192  -0.000   0.013   0.000   0.123   0.055   0.000   0.004  -0.000   0.000  -0.000  -0.001   0.000   0.015  -0.000
  0.193   0.215   0.000  -0.000   0.013   0.055   0.184   0.000  -0.000   0.004   0.000  -0.000   0.004   0.000  -0.003  -0.000
 -0.000   0.000  -0.109   0.000   0.000   0.000   0.000   0.120   0.000  -0.000   0.047  -0.009  -0.000   0.005   0.000   0.000
  0.013   0.000   0.000   0.215  -0.193   0.004  -0.000   0.000   0.184  -0.055   0.000   0.000   0.003  -0.000   0.004  -0.000
 -0.000   0.013   0.000  -0.192   0.019  -0.000   0.004  -0.000  -0.055   0.123  -0.000   0.000   0.015  -0.000   0.001  -0.001
 -0.000  -0.000  -0.004   0.000   0.000   0.000   0.000   0.047   0.000  -0.000   1.035  -0.135  -0.000   0.012   0.000  -0.000
 -0.000  -0.000  -0.012   0.000   0.000  -0.000   0.000  -0.009   0.000   0.000  -0.135   0.048  -0.000  -0.002   0.000  -0.000
  0.006   0.010   0.000  -0.002   0.006  -0.001   0.004  -0.000   0.003   0.015  -0.000  -0.000   0.197   0.000  -0.000  -0.001
  0.000   0.000   0.001   0.000  -0.000   0.000   0.000   0.005  -0.000  -0.000   0.012  -0.002  -0.000   0.211   0.000  -0.000
  0.006   0.002   0.000   0.010  -0.006   0.015  -0.003   0.000   0.004   0.001   0.000   0.000  -0.000   0.000   0.197  -0.000
  0.000  -0.000   0.000  -0.000   0.000  -0.000  -0.000   0.000  -0.000  -0.001  -0.000  -0.000  -0.001   0.000  -0.000   0.000
 -0.000   0.000  -0.001   0.000   0.000  -0.000   0.000  -0.000  -0.000   0.000  -0.000   0.000  -0.000  -0.002   0.000   0.000
  0.000   0.000   0.000  -0.000  -0.000  -0.001   0.000  -0.000  -0.000   0.000   0.000   0.000   0.000   0.000  -0.001  -0.000
 total augmentation occupancy for first ion, spin component:           2
  0.738  -0.282   0.000  -0.019  -0.000  -0.145   0.046  -0.000   0.003  -0.000  -0.000  -0.000   0.002  -0.000   0.000   0.000
 -0.282   0.462  -0.000  -0.000  -0.019   0.043  -0.092   0.000  -0.000   0.003   0.000  -0.000   0.001   0.000   0.005   0.000
  0.000  -0.000   0.921  -0.000  -0.000  -0.000   0.000  -0.199   0.000   0.000  -0.030  -0.003   0.000  -0.003   0.000  -0.000
 -0.019  -0.000  -0.000   0.462   0.282   0.003   0.000   0.000  -0.092  -0.043   0.000   0.000  -0.005   0.000   0.001   0.000
 -0.000  -0.019  -0.000   0.282   0.738   0.000   0.003   0.000  -0.046  -0.145   0.000   0.000   0.000   0.000  -0.002   0.001
 -0.145   0.043  -0.000   0.003   0.000  -0.002  -0.047   0.000  -0.003  -0.000   0.000   0.000  -0.002   0.000  -0.001  -0.000
  0.046  -0.092   0.000   0.000   0.003  -0.047  -0.046  -0.000   0.000  -0.003   0.000  -0.000  -0.002   0.000  -0.001   0.000
 -0.000   0.000  -0.199   0.000   0.000   0.000  -0.000   0.040  -0.000  -0.000   0.010   0.004  -0.000   0.001  -0.000  -0.000
  0.003  -0.000   0.000  -0.092  -0.046  -0.003   0.000  -0.000  -0.046   0.047  -0.000   0.000   0.001  -0.000  -0.002  -0.000
 -0.000   0.003   0.000  -0.043  -0.145  -0.000  -0.003  -0.000   0.047  -0.002  -0.000  -0.000  -0.001  -0.000   0.002  -0.000
 -0.000  -0.000  -0.030   0.000   0.000   0.000   0.000   0.010  -0.000  -0.000   0.180   0.064   0.000   0.001  -0.000  -0.000
 -0.000  -0.000  -0.003   0.000   0.000   0.000   0.000   0.004   0.000  -0.000   0.064  -0.017   0.000   0.001   0.000  -0.000
  0.002   0.001   0.000  -0.005   0.000  -0.002  -0.002  -0.000   0.001  -0.001   0.000   0.000   0.029   0.000  -0.000   0.003
 -0.000   0.000  -0.003   0.000   0.000   0.000   0.000   0.001  -0.000  -0.000   0.001   0.001   0.000   0.023  -0.000   0.000
  0.000   0.005   0.000   0.001  -0.002  -0.001  -0.001  -0.000  -0.002   0.002  -0.000   0.000  -0.000  -0.000   0.029  -0.000
  0.000   0.000  -0.000   0.000   0.001  -0.000   0.000  -0.000  -0.000  -0.000   0.000  -0.000   0.003   0.000  -0.000   0.000
 -0.000   0.000  -0.000   0.000   0.000   0.000   0.000   0.000  -0.000  -0.000   0.000  -0.000  -0.000   0.002   0.000   0.000
  0.001  -0.000   0.000   0.000  -0.000  -0.000   0.000  -0.000   0.000   0.000   0.000   0.000   0.000   0.000   0.003  -0.000


------------------------ aborting loop because EDIFF is reached ----------------------------------------





 total charge     

# of ion       s       p       d       tot
------------------------------------------
    1        0.331   0.403   4.237   4.971
    2        0.331   0.403   4.236   4.969
    3        0.779   0.832   0.000   1.611
    4        1.173   1.142   0.076   2.391
    5        1.392   1.974   0.033   3.400
    6        1.387   1.972   0.032   3.392
    7        1.391   1.970   0.033   3.395
    8        1.388   1.988   0.035   3.411
    9        1.381   1.991   0.035   3.406
   10        1.386   1.987   0.035   3.408
--------------------------------------------------
tot         10.940  14.661   8.752  34.353



 magnetization (x)

# of ion       s       p       d       tot
------------------------------------------
    1        0.042   0.046   3.047   3.135
    2        0.042   0.046   3.046   3.135
    3        0.004   0.030   0.000   0.034
    4        0.001   0.039  -0.003   0.038
    5       -0.002  -0.109   0.005  -0.106
    6       -0.003  -0.091   0.005  -0.089
    7       -0.002  -0.104   0.005  -0.101
    8       -0.001  -0.092   0.005  -0.089
    9       -0.002  -0.080   0.005  -0.076
   10       -0.001  -0.088   0.005  -0.084
--------------------------------------------------
tot          0.080  -0.403   6.120   5.797

    CHARGE:  cpu time    1.9560: real time    1.9583
    FORLOC:  cpu time    0.0600: real time    0.0632
    FORNL :  cpu time    6.4440: real time    6.4493
    STRESS:  cpu time   19.1840: real time   19.3854
    FORCOR:  cpu time   50.8440: real time   50.9680
    FORHAR:  cpu time    0.3320: real time    0.3316
    MIXING:  cpu time    0.0440: real time    0.0438
    OFIELD:  cpu time    0.0000: real time    0.0000

  FORCE on cell =-STRESS in cart. coord.  units (eV):
  Direction    XX          YY          ZZ          XY          YZ          ZX
  --------------------------------------------------------------------------------------
  Alpha Z    12.87644    12.87644    12.87644
  Ewald    7512.27709  7512.27508 -8952.46274    -0.00103    -0.00038    -0.00070
  Hartree  7813.33002  7813.33040 -7674.25318    -0.00003     0.00005     0.00008
  E(xc)    -223.72441  -223.72438  -223.49139     0.00002     0.00002     0.00002
  Local  -16171.78369-16171.78290 15752.54084     0.00081     0.00024     0.00045
  n-local   702.56816   704.44729   713.79317     0.79436     0.86739     0.92840
  augment  -103.63092  -103.63085  -109.62474     0.00000    -0.00004     0.00005
  Kinetic   460.12430   454.23786   480.52966    -4.26092     0.65194     0.67105
  Fock        0.00000     0.00000     0.00000     0.00000     0.00000     0.00000
  -------------------------------------------------------------------------------------
  Total       0.03295     0.03295    -0.09195     0.00000    -0.00000     0.00000
  in kB       0.05521     0.05521    -0.15406     0.00000    -0.00000     0.00000
  external pressure =       -0.01 kB  Pullay stress =        0.00 kB


 VOLUME and BASIS-vectors are now :
 -----------------------------------------------------------------------------
  energy-cutoff  :      520.00
  volume of cell :      956.23
      direct lattice vectors                 reciprocal lattice vectors
     6.863123432 -0.000000046 -0.000000000     0.145706253 -0.084123539 -0.000000000
     3.431561266  5.943638860  0.000000000     0.000000001  0.168247099 -0.000000000
     0.000000000  0.000000000 23.441559281     0.000000000 -0.000000000  0.042659278

  length of vectors
     6.863123432  6.863122876 23.441559281     0.168247085  0.168247099  0.042659278


 FORCES acting on ions
    electron-ion (+dipol)            ewald-force                    non-local-force                 convergence-correction
 -----------------------------------------------------------------------------------------------
   -.400E-04 -.365E-04 0.312E+01   0.305E-03 0.182E-03 -.292E+01   0.690E-17 -.326E-21 -.197E+00   0.255E-07 -.506E-08 0.374E-03
   0.410E-04 0.269E-04 0.234E+01   -.313E-03 -.186E-03 -.213E+01   -.393E-19 -.139E-16 -.210E+00   -.498E-07 -.301E-07 0.817E-03
   -.332E-04 -.170E-04 0.162E+03   -.147E-03 -.808E-04 -.158E+03   0.619E-17 -.659E-20 -.398E+01   -.523E-08 -.768E-08 -.477E-02
   0.261E-04 0.198E-04 -.159E+03   0.138E-03 0.762E-04 0.156E+03   0.502E-18 0.444E-20 0.268E+01   -.430E-07 -.235E-07 0.849E-02
   -.878E+01 0.315E-01 -.344E+03   0.521E+01 -.156E-01 0.349E+03   0.358E+01 -.706E-02 -.460E+01   -.252E-03 -.109E-01 0.202E-01
   0.442E+01 0.759E+01 -.344E+03   -.262E+01 -.451E+01 0.349E+03   -.180E+01 -.310E+01 -.460E+01   -.927E-02 0.564E-02 0.202E-01
   0.436E+01 -.762E+01 -.344E+03   -.259E+01 0.452E+01 0.349E+03   -.178E+01 0.310E+01 -.460E+01   0.952E-02 0.521E-02 0.202E-01
   0.346E+01 0.370E-02 0.342E+03   0.430E+00 0.282E-03 -.347E+03   -.390E+01 0.100E-01 0.456E+01   0.221E-02 -.104E-01 -.159E-01
   -.173E+01 -.300E+01 0.342E+03   -.214E+00 -.372E+00 -.347E+03   0.196E+01 0.338E+01 0.456E+01   -.101E-01 0.331E-02 -.159E-01
   -.173E+01 0.300E+01 0.342E+03   -.215E+00 0.372E+00 -.347E+03   0.194E+01 -.339E+01 0.456E+01   0.794E-02 0.714E-02 -.159E-01
 -----------------------------------------------------------------------------------------------
   -.507E-04 -.121E-05 0.179E+01   0.109E-13 -.466E-14 0.171E-12   -.222E-15 0.444E-15 -.180E+01   -.728E-07 -.700E-07 0.176E-01


 POSITION                                       TOTAL-FORCE (eV/Angst)
 -----------------------------------------------------------------------------------
      3.43156      1.98121     11.72460         0.000000     -0.000000      0.003066
      6.86313      3.96243     11.72809         0.000000     -0.000000     -0.006831
      0.00000     -0.00000     10.51713         0.000000     -0.000000      0.028776
      0.00000     -0.00000     12.87911         0.000000     -0.000000      0.051995
      4.28220      0.00112     13.46483         0.011806     -0.001471     -0.024996
      1.29143      2.23459     13.46483        -0.007177     -0.009489     -0.024996
      4.72106      3.70793     13.46483        -0.004629      0.010960     -0.024996
      5.92517      5.94257      9.98812        -0.008970      0.002993     -0.000673
      9.04695      3.78464      9.98812         0.007077      0.006272     -0.000673
      5.61724      2.16006      9.98812         0.001893     -0.009265     -0.000673
 -----------------------------------------------------------------------------------
    total drift:                               -0.000051     -0.000001      0.002600


--------------------------------------------------------------------------------------------------------



  FREE ENERGIE OF THE ION-ELECTRON SYSTEM (eV)
  ---------------------------------------------------
  free  energy   TOTEN  =       -42.89108783 eV

  energy  without entropy=      -42.89108783  energy(sigma->0) =      -42.89108783

 d Force = 0.4804394E-03[-0.246E-03, 0.121E-02]  d Energy = 0.8679180E-03-0.387E-03
 d Force =-0.1681624E+01[-0.168E+01,-0.168E+01]  d Ewald  = 0.1017177E+02-0.119E+02


--------------------------------------------------------------------------------------------------------


    POTLOK:  cpu time   50.8560: real time   51.0472


--------------------------------------------------------------------------------------------------------




--------------------------------------------------------------------------------------------------------


  
 reached required accuracy - stopping structural energy minimisation
     LOOP+:  cpu time  516.4760: real time  519.0593
    4ORBIT:  cpu time    0.0000: real time    0.0000



 total charge     

# of ion       s       p       d       tot
------------------------------------------
    1        0.331   0.403   4.237   4.971
    2        0.331   0.403   4.236   4.969
    3        0.779   0.832   0.000   1.611
    4        1.173   1.142   0.076   2.391
    5        1.392   1.974   0.033   3.400
    6        1.387   1.972   0.032   3.392
    7        1.391   1.970   0.033   3.395
    8        1.388   1.988   0.035   3.411
    9        1.381   1.991   0.035   3.406
   10        1.386   1.987   0.035   3.408
--------------------------------------------------
tot         10.940  14.661   8.752  34.353



 magnetization (x)

# of ion       s       p       d       tot
------------------------------------------
    1        0.042   0.046   3.047   3.135
    2        0.042   0.046   3.046   3.135
    3        0.004   0.030   0.000   0.034
    4        0.001   0.039  -0.003   0.038
    5       -0.002  -0.109   0.005  -0.106
    6       -0.003  -0.091   0.005  -0.089
    7       -0.002  -0.104   0.005  -0.101
    8       -0.001  -0.092   0.005  -0.089
    9       -0.002  -0.080   0.005  -0.076
   10       -0.001  -0.088   0.005  -0.084
--------------------------------------------------
tot          0.080  -0.403   6.120   5.797

 BZINTS: Fermi energy: -2.170308; 56.000000 electrons
         Band energy:-374.328311;  BLOECHL correction:  0.000000

 total amount of memory used by VASP MPI-rank0   130713. kBytes
=======================================================================

   base      :      30000. kBytes
   nonlr-proj:       8213. kBytes
   fftplans  :      11247. kBytes
   grid      :      68332. kBytes
   one-center:        311. kBytes
   wavefun   :      12610. kBytes

  
  
 General timing and accounting informations for this job:
 ========================================================
  
                  Total CPU time used (sec):     6551.864
                            User time (sec):     6411.108
                          System time (sec):      140.756
                         Elapsed time (sec):     6586.979
  
                   Maximum memory used (kb):      382420.
                   Average memory used (kb):           0.
  
                          Minor page faults:      6567726
                          Major page faults:            7
                 Voluntary context switches:         1040
