PROCAR lm decomposed
# of k-points:    5         # of bands:   48         # of ions:   10

 k-point     1 :    0.00000000 0.00000000 0.00000000     weight = 0.04000000

band     1 # energy  -14.66224327 # occ.  1.00000000

ion      s     py     pz     px    dxy    dyz    dz2    dxz  x2-y2    tot
    1  0.014  0.000  0.000  0.000  0.000  0.000  0.000  0.000  0.000  0.014
    2  0.014  0.000  0.000  0.000  0.000  0.000  0.000  0.000  0.000  0.014
    3  0.048  0.000  0.000  0.000  0.000  0.000  0.000  0.000  0.000  0.048
    4  0.079  0.000  0.000  0.000  0.000  0.000  0.000  0.000  0.000  0.080
    5  0.075  0.000  0.001  0.000  0.000  0.000  0.000  0.000  0.000  0.076
    6  0.075  0.000  0.001  0.000  0.000  0.000  0.000  0.000  0.000  0.076
    7  0.075  0.000  0.001  0.000  0.000  0.000  0.000  0.000  0.000  0.076
    8  0.074  0.000  0.001  0.001  0.000  0.000  0.000  0.000  0.000  0.076
    9  0.074  0.000  0.001  0.000  0.000  0.000  0.000  0.000  0.000  0.076
   10  0.074  0.000  0.001  0.000  0.000  0.000  0.000  0.000  0.000  0.076
tot    0.603  0.002  0.005  0.002  0.000  0.000  0.000  0.000  0.000  0.613

band     2 # energy  -13.75287307 # occ.  1.00000000

ion      s     py     pz     px    dxy    dyz    dz2    dxz  x2-y2    tot
    1  0.000  0.000  0.006  0.000  0.000  0.000  0.000  0.000  0.000  0.006
    2  0.000  0.000  0.006  0.000  0.000  0.000  0.000  0.000  0.000  0.006
    3  0.028  0.000  0.002  0.000  0.000  0.000  0.000  0.000  0.000  0.030
    4  0.039  0.000  0.002  0.000  0.000  0.000  0.001  0.000  0.000  0.042
    5  0.092  0.000  0.000  0.000  0.000  0.000  0.000  0.000  0.000  0.092
    6  0.092  0.000  0.000  0.000  0.000  0.000  0.000  0.000  0.000  0.092
    7  0.092  0.000  0.000  0.000  0.000  0.000  0.000  0.000  0.000  0.092
    8  0.097  0.000  0.000  0.001  0.000  0.000  0.000  0.000  0.000  0.098
    9  0.097  0.000  0.000  0.000  0.000  0.000  0.000  0.000  0.000  0.098
   10  0.097  0.000  0.000  0.000  0.000  0.000  0.000  0.000  0.000  0.098
tot    0.633  0.002  0.017  0.002  0.000  0.000  0.001  0.000  0.000  0.655

band     3 # energy  -12.71950846 # occ.  1.00000000

ion      s     py     pz     px    dxy    dyz    dz2    dxz  x2-y2    tot
    1  0.000  0.005  0.000  0.000  0.001  0.002  0.000  0.000  0.001  0.009
    2  0.000  0.003  0.000  0.001  0.000  0.001  0.000  0.002  0.001  0.009
    3  0.000  0.001  0.000  0.012  0.000  0.000  0.000  0.000  0.000  0.013
    4  0.000  0.000  0.000  0.000  0.000  0.000  0.000  0.000  0.000  0.000
    5  0.013  0.000  0.000  0.000  0.000  0.000  0.000  0.000  0.000  0.013
    6  0.006  0.000  0.000  0.000  0.000  0.000  0.000  0.000  0.000  0.006
    7  0.001  0.000  0.000  0.000  0.000  0.000  0.000  0.000  0.000  0.001
    8  0.415  0.000  0.001  0.001  0.000  0.000  0.000  0.000  0.000  0.418
    9  0.202  0.000  0.001  0.000  0.000  0.000  0.000  0.000  0.000  0.204
   10  0.038  0.000  0.000  0.000  0.000  0.000  0.000  0.000  0.000  0.038
tot    0.675  0.009  0.002  0.016  0.002  0.004  0.000  0.002  0.002  0.712

band     4 # energy  -12.71948062 # occ.  1.00000000

ion      s     py     pz     px    dxy    dyz    dz2    dxz  x2-y2    tot
    1  0.000  0.000  0.000  0.005  0.001  0.000  0.000  0.002  0.001  0.009
    2  0.000  0.001  0.000  0.003  0.001  0.002  0.000  0.001  0.000  0.009
    3  0.000  0.012  0.000  0.001  0.000  0.000  0.000  0.000  0.000  0.013
    4  0.000  0.000  0.000  0.000  0.000  0.000  0.000  0.000  0.000  0.000
    5  0.001  0.000  0.000  0.000  0.000  0.000  0.000  0.000  0.000  0.001
    6  0.007  0.000  0.000  0.000  0.000  0.000  0.000  0.000  0.000  0.007
    7  0.012  0.000  0.000  0.000  0.000  0.000  0.000  0.000  0.000  0.012
    8  0.022  0.000  0.000  0.000  0.000  0.000  0.000  0.000  0.000  0.022
    9  0.234  0.001  0.001  0.000  0.000  0.000  0.000  0.000  0.000  0.236
   10  0.399  0.001  0.001  0.000  0.000  0.000  0.000  0.000  0.000  0.402
tot    0.675  0.016  0.002  0.009  0.002  0.002  0.000  0.004  0.002  0.712

band     5 # energy  -12.62402554 # occ.  1.00000000

ion      s     py     pz     px    dxy    dyz    dz2    dxz  x2-y2    tot
    1  0.000  0.002  0.000  0.002  0.001  0.004  0.000  0.001  0.001  0.011
    2  0.000  0.003  0.000  0.000  0.002  0.005  0.000  0.000  0.000  0.011
    3  0.000  0.000  0.000  0.001  0.000  0.000  0.000  0.000  0.000  0.001
    4  0.000  0.001  0.000  0.016  0.000  0.000  0.000  0.000  0.002  0.018
    5  0.423  0.000  0.001  0.001  0.000  0.000  0.000  0.000  0.000  0.425
    6  0.191  0.000  0.001  0.000  0.000  0.000  0.000  0.000  0.000  0.192
    7  0.046  0.000  0.000  0.000  0.000  0.000  0.000  0.000  0.000  0.046
    8  0.012  0.000  0.000  0.000  0.000  0.000  0.000  0.000  0.000  0.012
    9  0.005  0.000  0.000  0.000  0.000  0.000  0.000  0.000  0.000  0.005
   10  0.001  0.000  0.000  0.000  0.000  0.000  0.000  0.000  0.000  0.001
tot    0.678  0.006  0.002  0.021  0.003  0.009  0.000  0.002  0.003  0.723

band     6 # energy  -12.62399520 # occ.  1.00000000

ion      s     py     pz     px    dxy    dyz    dz2    dxz  x2-y2    tot
    1  0.000  0.002  0.000  0.002  0.001  0.001  0.000  0.004  0.001  0.011
    2  0.000  0.000  0.000  0.003  0.000  0.000  0.000  0.005  0.002  0.011
    3  0.000  0.001  0.000  0.000  0.000  0.000  0.000  0.000  0.000  0.001
    4  0.000  0.016  0.000  0.001  0.002  0.000  0.000  0.000  0.000  0.018
    5  0.017  0.000  0.000  0.000  0.000  0.000  0.000  0.000  0.000  0.017
    6  0.249  0.001  0.001  0.000  0.000  0.000  0.000  0.000  0.000  0.250
    7  0.394  0.001  0.001  0.000  0.000  0.000  0.000  0.000  0.000  0.396
    8  0.000  0.000  0.000  0.000  0.000  0.000  0.000  0.000  0.000  0.000
    9  0.007  0.000  0.000  0.000  0.000  0.000  0.000  0.000  0.000  0.007
   10  0.011  0.000  0.000  0.000  0.000  0.000  0.000  0.000  0.000  0.011
tot    0.678  0.021  0.002  0.006  0.003  0.002  0.000  0.009  0.003  0.723

band     7 # energy  -10.79202106 # occ.  1.00000000

ion      s     py     pz     px    dxy    dyz    dz2    dxz  x2-y2    tot
    1  0.012  0.000  0.000  0.000  0.000  0.000  0.001  0.000  0.000  0.012
    2  0.012  0.000  0.000  0.000  0.000  0.000  0.001  0.000  0.000  0.012
    3  0.106  0.000  0.010  0.000  0.000  0.000  0.000  0.000  0.000  0.116
    4  0.289  0.000  0.011  0.000  0.000  0.000  0.001  0.000  0.000  0.301
    5  0.029  0.000  0.000  0.010  0.000  0.000  0.000  0.000  0.001  0.041
    6  0.029  0.008  0.000  0.003  0.000  0.000  0.000  0.000  0.000  0.041
    7  0.029  0.008  0.000  0.003  0.000  0.000  0.000  0.000  0.000  0.041
    8  0.017  0.000  0.000  0.007  0.000  0.000  0.000  0.000  0.000  0.025
    9  0.017  0.005  0.000  0.002  0.000  0.000  0.000  0.000  0.000  0.025
   10  0.017  0.005  0.000  0.002  0.000  0.000  0.000  0.000  0.000  0.025
tot    0.558  0.026  0.021  0.026  0.002  0.001  0.003  0.001  0.002  0.638

band     8 # energy   -8.55971730 # occ.  1.00000000

ion      s     py     pz     px    dxy    dyz    dz2    dxz  x2-y2    tot
    1  0.001  0.000  0.006  0.000  0.000  0.000  0.000  0.000  0.000  0.007
    2  0.001  0.000  0.006  0.000  0.000  0.000  0.000  0.000  0.000  0.007
    3  0.192  0.000  0.007  0.000  0.000  0.000  0.000  0.000  0.000  0.199
    4  0.152  0.000  0.014  0.000  0.000  0.000  0.001  0.000  0.000  0.166
    5  0.010  0.000  0.000  0.013  0.000  0.000  0.000  0.000  0.001  0.024
    6  0.010  0.010  0.000  0.003  0.001  0.000  0.000  0.000  0.000  0.024
    7  0.010  0.010  0.000  0.003  0.001  0.000  0.000  0.000  0.000  0.024
    8  0.016  0.000  0.000  0.030  0.000  0.000  0.000  0.000  0.001  0.048
    9  0.016  0.022  0.000  0.008  0.001  0.000  0.000  0.000  0.000  0.048
   10  0.016  0.022  0.000  0.007  0.001  0.000  0.000  0.000  0.000  0.048
tot    0.423  0.064  0.034  0.064  0.003  0.000  0.002  0.000  0.003  0.594

band     9 # energy   -6.61414439 # occ.  1.00000000

ion      s     py     pz     px    dxy    dyz    dz2    dxz  x2-y2    tot
    1  0.000  0.001  0.000  0.003  0.002  0.020  0.000  0.017  0.002  0.045
    2  0.000  0.002  0.000  0.001  0.003  0.019  0.000  0.018  0.002  0.045
    3  0.000  0.021  0.000  0.023  0.000  0.000  0.000  0.000  0.000  0.044
    4  0.000  0.024  0.000  0.027  0.000  0.000  0.000  0.000  0.000  0.051
    5  0.003  0.008  0.002  0.029  0.000  0.000  0.000  0.000  0.000  0.043
    6  0.006  0.045  0.003  0.006  0.000  0.000  0.000  0.000  0.000  0.061
    7  0.000  0.000  0.000  0.019  0.000  0.000  0.000  0.000  0.000  0.020
    8  0.004  0.011  0.002  0.037  0.000  0.000  0.000  0.000  0.000  0.054
    9  0.008  0.058  0.003  0.008  0.000  0.001  0.000  0.000  0.000  0.077
   10  0.000  0.000  0.000  0.025  0.000  0.000  0.000  0.000  0.000  0.027
tot    0.022  0.171  0.010  0.177  0.005  0.040  0.000  0.036  0.005  0.468

band    10 # energy   -6.61412657 # occ.  1.00000000

ion      s     py     pz     px    dxy    dyz    dz2    dxz  x2-y2    tot
    1  0.000  0.003  0.000  0.001  0.002  0.017  0.000  0.020  0.002  0.045
    2  0.000  0.001  0.000  0.002  0.002  0.018  0.000  0.019  0.003  0.045
    3  0.000  0.023  0.000  0.021  0.000  0.000  0.000  0.000  0.000  0.044
    4  0.000  0.027  0.000  0.024  0.000  0.000  0.000  0.000  0.000  0.051
    5  0.003  0.009  0.002  0.026  0.000  0.000  0.000  0.000  0.000  0.040
    6  0.001  0.000  0.000  0.020  0.000  0.000  0.000  0.000  0.000  0.021
    7  0.006  0.045  0.003  0.008  0.000  0.000  0.000  0.000  0.000  0.063
    8  0.004  0.012  0.002  0.033  0.000  0.000  0.000  0.000  0.000  0.051
    9  0.001  0.000  0.000  0.026  0.000  0.000  0.000  0.000  0.000  0.028
   10  0.008  0.057  0.003  0.010  0.000  0.001  0.000  0.000  0.000  0.079
tot    0.022  0.177  0.010  0.171  0.005  0.036  0.000  0.040  0.005  0.468

band    11 # energy   -6.59296996 # occ.  1.00000000

ion      s     py     pz     px    dxy    dyz    dz2    dxz  x2-y2    tot
    1  0.081  0.000  0.000  0.000  0.000  0.000  0.022  0.000  0.000  0.103
    2  0.080  0.000  0.000  0.000  0.000  0.000  0.022  0.000  0.000  0.103
    3  0.000  0.000  0.000  0.000  0.000  0.000  0.000  0.000  0.000  0.000
    4  0.000  0.000  0.000  0.000  0.000  0.000  0.000  0.000  0.000  0.000
    5  0.000  0.059  0.000  0.000  0.000  0.000  0.000  0.000  0.000  0.060
    6  0.000  0.015  0.000  0.044  0.000  0.000  0.000  0.000  0.000  0.060
    7  0.000  0.015  0.000  0.044  0.000  0.000  0.000  0.000  0.000  0.060
    8  0.000  0.039  0.000  0.000  0.000  0.000  0.000  0.000  0.000  0.040
    9  0.000  0.010  0.000  0.029  0.000  0.000  0.000  0.000  0.000  0.040
   10  0.000  0.010  0.000  0.030  0.000  0.000  0.000  0.000  0.000  0.040
tot    0.161  0.148  0.001  0.148  0.001  0.001  0.044  0.001  0.001  0.507

band    12 # energy   -6.51609896 # occ.  1.00000000

ion      s     py     pz     px    dxy    dyz    dz2    dxz  x2-y2    tot
    1  0.044  0.000  0.000  0.000  0.000  0.000  0.015  0.000  0.000  0.059
    2  0.045  0.000  0.000  0.000  0.000  0.000  0.014  0.000  0.000  0.059
    3  0.000  0.000  0.032  0.000  0.000  0.000  0.000  0.000  0.000  0.032
    4  0.003  0.000  0.048  0.000  0.000  0.000  0.000  0.000  0.000  0.051
    5  0.003  0.000  0.032  0.007  0.000  0.000  0.000  0.000  0.000  0.043
    6  0.003  0.005  0.032  0.002  0.000  0.000  0.000  0.000  0.000  0.043
    7  0.003  0.005  0.032  0.002  0.000  0.000  0.000  0.000  0.000  0.043
    8  0.004  0.000  0.034  0.005  0.000  0.000  0.000  0.000  0.000  0.044
    9  0.004  0.004  0.034  0.001  0.000  0.000  0.000  0.000  0.000  0.044
   10  0.004  0.004  0.034  0.001  0.000  0.000  0.000  0.000  0.000  0.044
tot    0.114  0.018  0.277  0.018  0.001  0.000  0.032  0.000  0.001  0.460

band    13 # energy   -6.16312288 # occ.  1.00000000

ion      s     py     pz     px    dxy    dyz    dz2    dxz  x2-y2    tot
    1  0.000  0.015  0.000  0.002  0.003  0.003  0.000  0.014  0.009  0.045
    2  0.000  0.013  0.000  0.003  0.001  0.002  0.000  0.015  0.011  0.045
    3  0.000  0.004  0.000  0.022  0.000  0.000  0.000  0.000  0.000  0.026
    4  0.000  0.006  0.000  0.036  0.000  0.000  0.000  0.001  0.000  0.043
    5  0.000  0.003  0.004  0.068  0.000  0.000  0.000  0.000  0.000  0.077
    6  0.000  0.058  0.003  0.001  0.000  0.000  0.000  0.000  0.000  0.063
    7  0.000  0.012  0.000  0.013  0.000  0.000  0.000  0.000  0.000  0.026
    8  0.000  0.003  0.006  0.058  0.000  0.000  0.000  0.000  0.000  0.067
    9  0.000  0.049  0.004  0.001  0.000  0.000  0.000  0.000  0.000  0.055
   10  0.000  0.010  0.000  0.011  0.000  0.000  0.000  0.000  0.000  0.022
tot    0.000  0.174  0.017  0.215  0.004  0.006  0.001  0.031  0.021  0.469

band    14 # energy   -6.16310384 # occ.  1.00000000

ion      s     py     pz     px    dxy    dyz    dz2    dxz  x2-y2    tot
    1  0.000  0.002  0.000  0.015  0.009  0.014  0.000  0.003  0.003  0.045
    2  0.000  0.003  0.000  0.013  0.011  0.015  0.000  0.002  0.001  0.045
    3  0.000  0.022  0.000  0.004  0.000  0.000  0.000  0.000  0.000  0.026
    4  0.000  0.036  0.000  0.006  0.000  0.001  0.000  0.000  0.000  0.043
    5  0.000  0.021  0.001  0.011  0.000  0.000  0.000  0.000  0.000  0.034
    6  0.000  0.008  0.002  0.037  0.000  0.000  0.000  0.000  0.000  0.048
    7  0.000  0.054  0.005  0.025  0.000  0.000  0.000  0.000  0.000  0.084
    8  0.000  0.018  0.001  0.010  0.000  0.000  0.000  0.000  0.000  0.029
    9  0.000  0.007  0.003  0.032  0.000  0.000  0.000  0.000  0.000  0.041
   10  0.000  0.045  0.007  0.021  0.000  0.000  0.001  0.000  0.000  0.074
tot    0.000  0.215  0.017  0.174  0.021  0.031  0.001  0.006  0.004  0.469

band    15 # energy   -5.31525131 # occ.  1.00000000

ion      s     py     pz     px    dxy    dyz    dz2    dxz  x2-y2    tot
    1  0.001  0.000  0.042  0.000  0.000  0.000  0.000  0.000  0.000  0.043
    2  0.001  0.000  0.042  0.000  0.000  0.000  0.000  0.000  0.000  0.043
    3  0.000  0.000  0.000  0.000  0.000  0.000  0.000  0.000  0.000  0.000
    4  0.000  0.000  0.000  0.000  0.000  0.000  0.000  0.000  0.000  0.000
    5  0.000  0.054  0.000  0.000  0.000  0.000  0.000  0.000  0.000  0.054
    6  0.000  0.013  0.000  0.040  0.000  0.000  0.000  0.000  0.000  0.054
    7  0.000  0.013  0.000  0.040  0.000  0.000  0.000  0.000  0.000  0.054
    8  0.000  0.073  0.000  0.000  0.000  0.000  0.000  0.000  0.000  0.073
    9  0.000  0.018  0.000  0.055  0.000  0.000  0.000  0.000  0.000  0.073
   10  0.000  0.018  0.000  0.054  0.000  0.000  0.000  0.000  0.000  0.073
tot    0.001  0.190  0.084  0.190  0.001  0.000  0.000  0.000  0.001  0.467

band    16 # energy   -4.48954857 # occ.  1.00000000

ion      s     py     pz     px    dxy    dyz    dz2    dxz  x2-y2    tot
    1  0.000  0.002  0.000  0.000  0.009  0.005  0.000  0.100  0.134  0.250
    2  0.000  0.002  0.000  0.000  0.004  0.004  0.000  0.100  0.137  0.247
    3  0.000  0.000  0.000  0.000  0.000  0.000  0.000  0.000  0.000  0.000
    4  0.000  0.000  0.000  0.000  0.000  0.000  0.000  0.000  0.000  0.000
    5  0.002  0.002  0.036  0.001  0.000  0.000  0.000  0.000  0.000  0.042
    6  0.001  0.002  0.017  0.018  0.000  0.000  0.000  0.001  0.000  0.039
    7  0.000  0.006  0.003  0.026  0.000  0.000  0.000  0.001  0.000  0.036
    8  0.002  0.002  0.039  0.003  0.000  0.000  0.000  0.000  0.000  0.046
    9  0.001  0.002  0.018  0.019  0.000  0.000  0.000  0.001  0.000  0.040
   10  0.000  0.006  0.004  0.026  0.000  0.000  0.000  0.001  0.000  0.037
tot    0.007  0.022  0.117  0.093  0.013  0.009  0.001  0.203  0.272  0.737

band    17 # energy   -4.48953735 # occ.  1.00000000

ion      s     py     pz     px    dxy    dyz    dz2    dxz  x2-y2    tot
    1  0.000  0.000  0.000  0.002  0.134  0.100  0.000  0.005  0.009  0.250
    2  0.000  0.000  0.000  0.002  0.137  0.100  0.000  0.004  0.004  0.247
    3  0.000  0.000  0.000  0.000  0.000  0.000  0.000  0.000  0.000  0.000
    4  0.000  0.000  0.000  0.000  0.000  0.000  0.000  0.000  0.000  0.000
    5  0.000  0.033  0.002  0.000  0.000  0.001  0.000  0.000  0.000  0.036
    6  0.001  0.008  0.021  0.009  0.000  0.000  0.000  0.000  0.000  0.039
    7  0.002  0.004  0.035  0.001  0.000  0.000  0.000  0.000  0.000  0.042
    8  0.000  0.033  0.002  0.000  0.000  0.001  0.000  0.000  0.000  0.036
    9  0.001  0.009  0.022  0.008  0.000  0.000  0.000  0.000  0.000  0.042
   10  0.002  0.005  0.036  0.001  0.000  0.000  0.000  0.000  0.000  0.045
tot    0.007  0.093  0.117  0.022  0.272  0.203  0.001  0.009  0.013  0.737

band    18 # energy   -4.24401590 # occ.  1.00000000

ion      s     py     pz     px    dxy    dyz    dz2    dxz  x2-y2    tot
    1  0.000  0.000  0.000  0.001  0.082  0.091  0.000  0.013  0.023  0.210
    2  0.000  0.000  0.000  0.001  0.096  0.085  0.000  0.020  0.011  0.213
    3  0.000  0.000  0.000  0.000  0.000  0.000  0.000  0.000  0.000  0.000
    4  0.000  0.000  0.000  0.001  0.000  0.000  0.000  0.001  0.000  0.003
    5  0.005  0.001  0.070  0.002  0.000  0.000  0.000  0.000  0.000  0.078
    6  0.004  0.003  0.054  0.000  0.000  0.000  0.000  0.000  0.000  0.061
    7  0.000  0.002  0.001  0.003  0.000  0.000  0.000  0.000  0.000  0.006
    8  0.004  0.001  0.061  0.001  0.000  0.000  0.000  0.000  0.000  0.068
    9  0.003  0.002  0.046  0.000  0.000  0.000  0.000  0.000  0.000  0.052
   10  0.000  0.001  0.001  0.003  0.000  0.000  0.000  0.000  0.000  0.005
tot    0.017  0.010  0.233  0.013  0.178  0.177  0.000  0.035  0.034  0.697

band    19 # energy   -4.24400381 # occ.  1.00000000

ion      s     py     pz     px    dxy    dyz    dz2    dxz  x2-y2    tot
    1  0.000  0.001  0.000  0.000  0.023  0.013  0.000  0.091  0.082  0.210
    2  0.000  0.001  0.000  0.000  0.011  0.020  0.000  0.085  0.096  0.213
    3  0.000  0.000  0.000  0.000  0.000  0.000  0.000  0.000  0.000  0.000
    4  0.000  0.001  0.000  0.000  0.000  0.001  0.000  0.000  0.000  0.003
    5  0.001  0.004  0.013  0.000  0.000  0.000  0.000  0.000  0.000  0.019
    6  0.002  0.000  0.030  0.004  0.000  0.000  0.000  0.000  0.000  0.036
    7  0.006  0.001  0.082  0.001  0.000  0.000  0.000  0.000  0.000  0.091
    8  0.001  0.003  0.011  0.000  0.000  0.000  0.000  0.000  0.000  0.016
    9  0.002  0.000  0.026  0.003  0.000  0.000  0.000  0.000  0.000  0.031
   10  0.005  0.001  0.071  0.001  0.000  0.000  0.000  0.000  0.000  0.078
tot    0.017  0.013  0.233  0.010  0.034  0.035  0.000  0.177  0.178  0.697

band    20 # energy   -4.16821819 # occ.  1.00000000

ion      s     py     pz     px    dxy    dyz    dz2    dxz  x2-y2    tot
    1  0.001  0.000  0.000  0.000  0.000  0.000  0.191  0.000  0.000  0.192
    2  0.001  0.000  0.000  0.000  0.000  0.000  0.190  0.000  0.000  0.191
    3  0.004  0.000  0.064  0.000  0.000  0.000  0.000  0.000  0.000  0.068
    4  0.003  0.000  0.087  0.000  0.000  0.000  0.005  0.000  0.000  0.095
    5  0.000  0.000  0.009  0.014  0.000  0.000  0.000  0.000  0.001  0.024
    6  0.000  0.011  0.009  0.003  0.000  0.000  0.000  0.000  0.000  0.024
    7  0.000  0.011  0.009  0.004  0.000  0.000  0.000  0.000  0.000  0.024
    8  0.000  0.000  0.002  0.012  0.000  0.000  0.000  0.000  0.000  0.015
    9  0.000  0.009  0.002  0.003  0.000  0.000  0.000  0.000  0.000  0.015
   10  0.000  0.009  0.002  0.003  0.000  0.000  0.000  0.000  0.000  0.015
tot    0.008  0.039  0.185  0.039  0.002  0.001  0.387  0.001  0.002  0.662

band    21 # energy   -3.57788902 # occ.  1.00000000

ion      s     py     pz     px    dxy    dyz    dz2    dxz  x2-y2    tot
    1  0.000  0.000  0.015  0.000  0.000  0.000  0.007  0.000  0.000  0.022
    2  0.000  0.000  0.015  0.000  0.000  0.000  0.005  0.000  0.000  0.020
    3  0.001  0.000  0.004  0.000  0.000  0.000  0.000  0.000  0.000  0.005
    4  0.004  0.000  0.006  0.000  0.000  0.000  0.002  0.000  0.000  0.012
    5  0.000  0.000  0.068  0.001  0.000  0.000  0.000  0.000  0.000  0.069
    6  0.000  0.001  0.068  0.000  0.000  0.000  0.000  0.000  0.000  0.069
    7  0.000  0.001  0.068  0.000  0.000  0.000  0.000  0.000  0.000  0.069
    8  0.000  0.000  0.063  0.000  0.000  0.000  0.000  0.000  0.000  0.064
    9  0.000  0.000  0.063  0.000  0.000  0.000  0.000  0.000  0.000  0.064
   10  0.000  0.000  0.063  0.000  0.000  0.000  0.000  0.000  0.000  0.064
tot    0.006  0.002  0.432  0.002  0.000  0.000  0.014  0.000  0.000  0.457

band    22 # energy   -3.53389622 # occ.  1.00000000

ion      s     py     pz     px    dxy    dyz    dz2    dxz  x2-y2    tot
    1  0.000  0.010  0.000  0.000  0.001  0.001  0.000  0.093  0.001  0.106
    2  0.000  0.010  0.000  0.000  0.001  0.002  0.000  0.092  0.001  0.106
    3  0.000  0.000  0.000  0.024  0.000  0.000  0.000  0.000  0.000  0.024
    4  0.000  0.000  0.000  0.020  0.000  0.000  0.000  0.000  0.002  0.022
    5  0.003  0.000  0.061  0.027  0.000  0.000  0.000  0.000  0.001  0.092
    6  0.001  0.001  0.015  0.013  0.000  0.000  0.000  0.000  0.000  0.030
    7  0.001  0.001  0.015  0.013  0.000  0.000  0.000  0.000  0.000  0.031
    8  0.006  0.000  0.075  0.035  0.000  0.000  0.000  0.000  0.001  0.117
    9  0.001  0.001  0.019  0.021  0.000  0.000  0.000  0.001  0.000  0.043
   10  0.001  0.001  0.019  0.021  0.000  0.000  0.000  0.001  0.000  0.043
tot    0.014  0.023  0.204  0.173  0.002  0.004  0.000  0.187  0.008  0.615

band    23 # energy   -3.53388449 # occ.  1.00000000

ion      s     py     pz     px    dxy    dyz    dz2    dxz  x2-y2    tot
    1  0.000  0.000  0.000  0.010  0.001  0.093  0.000  0.001  0.001  0.106
    2  0.000  0.000  0.000  0.010  0.001  0.092  0.000  0.002  0.001  0.106
    3  0.000  0.024  0.000  0.000  0.000  0.000  0.000  0.000  0.000  0.024
    4  0.000  0.020  0.000  0.000  0.002  0.000  0.000  0.000  0.000  0.022
    5  0.000  0.009  0.000  0.000  0.000  0.001  0.000  0.000  0.000  0.010
    6  0.003  0.022  0.046  0.001  0.001  0.000  0.000  0.000  0.000  0.072
    7  0.003  0.022  0.045  0.001  0.001  0.000  0.000  0.000  0.000  0.071
    8  0.000  0.018  0.000  0.000  0.000  0.001  0.000  0.000  0.000  0.019
    9  0.004  0.030  0.057  0.001  0.001  0.000  0.000  0.000  0.000  0.092
   10  0.004  0.030  0.056  0.001  0.001  0.000  0.000  0.000  0.000  0.092
tot    0.014  0.173  0.204  0.023  0.008  0.187  0.000  0.004  0.002  0.615

band    24 # energy   -3.26972789 # occ.  1.00000000

ion      s     py     pz     px    dxy    dyz    dz2    dxz  x2-y2    tot
    1  0.000  0.002  0.000  0.006  0.145  0.089  0.000  0.062  0.074  0.378
    2  0.000  0.002  0.000  0.006  0.167  0.125  0.000  0.019  0.039  0.358
    3  0.000  0.001  0.000  0.000  0.000  0.000  0.000  0.000  0.000  0.001
    4  0.000  0.000  0.000  0.000  0.000  0.000  0.000  0.000  0.000  0.001
    5  0.000  0.002  0.007  0.000  0.001  0.000  0.000  0.000  0.000  0.010
    6  0.001  0.000  0.025  0.000  0.000  0.000  0.000  0.000  0.000  0.026
    7  0.000  0.000  0.006  0.001  0.000  0.000  0.000  0.000  0.000  0.009
    8  0.000  0.004  0.005  0.000  0.001  0.000  0.000  0.000  0.000  0.010
    9  0.000  0.000  0.019  0.000  0.000  0.000  0.000  0.000  0.000  0.020
   10  0.000  0.001  0.004  0.003  0.000  0.000  0.000  0.000  0.000  0.009
tot    0.002  0.012  0.065  0.016  0.316  0.215  0.000  0.081  0.114  0.822

band    25 # energy   -3.26972242 # occ.  1.00000000

ion      s     py     pz     px    dxy    dyz    dz2    dxz  x2-y2    tot
    1  0.000  0.006  0.000  0.002  0.074  0.062  0.000  0.089  0.145  0.378
    2  0.000  0.006  0.000  0.002  0.039  0.019  0.000  0.125  0.167  0.358
    3  0.000  0.000  0.000  0.001  0.000  0.000  0.000  0.000  0.000  0.001
    4  0.000  0.000  0.000  0.000  0.000  0.000  0.000  0.000  0.000  0.001
    5  0.001  0.001  0.018  0.000  0.000  0.000  0.000  0.000  0.000  0.020
    6  0.000  0.001  0.000  0.002  0.000  0.000  0.000  0.000  0.001  0.004
    7  0.001  0.000  0.019  0.000  0.000  0.000  0.000  0.000  0.000  0.021
    8  0.000  0.001  0.014  0.000  0.000  0.000  0.000  0.000  0.000  0.016
    9  0.000  0.001  0.000  0.004  0.000  0.000  0.000  0.000  0.001  0.006
   10  0.000  0.000  0.015  0.001  0.000  0.000  0.000  0.000  0.000  0.017
tot    0.002  0.016  0.065  0.012  0.114  0.081  0.000  0.215  0.316  0.822

band    26 # energy   -3.22829783 # occ.  1.00000000

ion      s     py     pz     px    dxy    dyz    dz2    dxz  x2-y2    tot
    1  0.013  0.000  0.000  0.000  0.000  0.000  0.432  0.000  0.000  0.445
    2  0.013  0.000  0.000  0.000  0.000  0.000  0.431  0.000  0.000  0.444
    3  0.000  0.000  0.000  0.000  0.000  0.000  0.000  0.000  0.000  0.000
    4  0.000  0.000  0.000  0.000  0.000  0.000  0.000  0.000  0.000  0.000
    5  0.000  0.002  0.000  0.000  0.000  0.000  0.000  0.000  0.000  0.002
    6  0.000  0.000  0.000  0.001  0.000  0.000  0.000  0.000  0.000  0.002
    7  0.000  0.000  0.000  0.001  0.000  0.000  0.000  0.000  0.000  0.002
    8  0.000  0.002  0.000  0.000  0.000  0.000  0.000  0.000  0.000  0.002
    9  0.000  0.000  0.000  0.001  0.000  0.000  0.000  0.000  0.000  0.002
   10  0.000  0.000  0.000  0.001  0.000  0.000  0.000  0.000  0.000  0.002
tot    0.027  0.005  0.000  0.005  0.000  0.001  0.862  0.001  0.000  0.903

band    27 # energy   -3.16892259 # occ.  1.00000000

ion      s     py     pz     px    dxy    dyz    dz2    dxz  x2-y2    tot
    1  0.000  0.000  0.000  0.000  0.228  0.094  0.000  0.035  0.043  0.401
    2  0.000  0.000  0.000  0.000  0.265  0.135  0.000  0.002  0.019  0.422
    3  0.000  0.001  0.000  0.007  0.000  0.000  0.000  0.000  0.000  0.008
    4  0.000  0.002  0.000  0.018  0.000  0.000  0.000  0.000  0.000  0.020
    5  0.002  0.000  0.005  0.006  0.000  0.000  0.000  0.000  0.000  0.014
    6  0.000  0.000  0.000  0.000  0.000  0.000  0.000  0.000  0.000  0.001
    7  0.001  0.003  0.003  0.001  0.000  0.000  0.000  0.000  0.000  0.009
    8  0.002  0.000  0.003  0.002  0.000  0.000  0.000  0.000  0.000  0.008
    9  0.000  0.000  0.000  0.000  0.000  0.000  0.000  0.000  0.000  0.000
   10  0.001  0.001  0.002  0.000  0.000  0.000  0.000  0.000  0.000  0.005
tot    0.006  0.008  0.014  0.035  0.494  0.230  0.001  0.037  0.064  0.889

band    28 # energy   -3.16891724 # occ.  1.00000000

ion      s     py     pz     px    dxy    dyz    dz2    dxz  x2-y2    tot
    1  0.000  0.000  0.000  0.000  0.043  0.035  0.000  0.094  0.228  0.401
    2  0.000  0.000  0.000  0.000  0.019  0.002  0.000  0.135  0.265  0.422
    3  0.000  0.007  0.000  0.001  0.000  0.000  0.000  0.000  0.000  0.008
    4  0.000  0.018  0.000  0.002  0.000  0.000  0.000  0.000  0.000  0.020
    5  0.000  0.000  0.000  0.001  0.000  0.000  0.000  0.000  0.000  0.002
    6  0.002  0.005  0.005  0.002  0.000  0.000  0.000  0.000  0.000  0.015
    7  0.001  0.002  0.002  0.001  0.000  0.000  0.000  0.000  0.000  0.007
    8  0.000  0.000  0.001  0.000  0.000  0.000  0.000  0.000  0.000  0.001
    9  0.002  0.002  0.004  0.001  0.000  0.000  0.000  0.000  0.000  0.009
   10  0.001  0.001  0.002  0.000  0.000  0.000  0.000  0.000  0.000  0.004
tot    0.006  0.035  0.014  0.008  0.064  0.037  0.001  0.230  0.494  0.889

band    29 # energy   -2.91821962 # occ.  1.00000000

ion      s     py     pz     px    dxy    dyz    dz2    dxz  x2-y2    tot
    1  0.013  0.000  0.000  0.000  0.000  0.000  0.221  0.000  0.000  0.235
    2  0.013  0.000  0.000  0.000  0.000  0.000  0.224  0.000  0.000  0.237
    3  0.000  0.000  0.044  0.000  0.000  0.000  0.000  0.000  0.000  0.044
    4  0.000  0.000  0.070  0.000  0.000  0.000  0.002  0.000  0.000  0.072
    5  0.002  0.000  0.010  0.004  0.000  0.000  0.001  0.000  0.000  0.017
    6  0.002  0.003  0.010  0.001  0.000  0.000  0.001  0.000  0.000  0.017
    7  0.002  0.003  0.010  0.001  0.000  0.000  0.001  0.000  0.000  0.017
    8  0.001  0.000  0.020  0.004  0.000  0.000  0.001  0.000  0.000  0.026
    9  0.001  0.003  0.020  0.001  0.000  0.000  0.001  0.000  0.000  0.026
   10  0.001  0.003  0.020  0.001  0.000  0.000  0.001  0.000  0.000  0.026
tot    0.037  0.012  0.204  0.012  0.000  0.001  0.451  0.001  0.000  0.717

band    30 # energy   -2.19526338 # occ.  1.00000000

ion      s     py     pz     px    dxy    dyz    dz2    dxz  x2-y2    tot
    1  0.000  0.002  0.000  0.024  0.007  0.000  0.000  0.001  0.004  0.038
    2  0.000  0.003  0.000  0.023  0.011  0.001  0.000  0.000  0.000  0.038
    3  0.000  0.001  0.000  0.010  0.000  0.000  0.000  0.000  0.000  0.012
    4  0.000  0.002  0.000  0.017  0.000  0.000  0.000  0.000  0.003  0.022
    5  0.002  0.012  0.005  0.035  0.000  0.000  0.000  0.000  0.001  0.055
    6  0.000  0.017  0.000  0.091  0.000  0.000  0.000  0.001  0.000  0.109
    7  0.001  0.000  0.003  0.070  0.001  0.000  0.000  0.000  0.000  0.076
    8  0.002  0.012  0.012  0.037  0.000  0.000  0.000  0.000  0.002  0.065
    9  0.000  0.018  0.001  0.097  0.000  0.000  0.000  0.000  0.000  0.116
   10  0.001  0.000  0.008  0.074  0.001  0.000  0.000  0.000  0.000  0.084
tot    0.006  0.069  0.030  0.478  0.019  0.002  0.001  0.003  0.010  0.617

band    31 # energy   -2.19523597 # occ.  1.00000000

ion      s     py     pz     px    dxy    dyz    dz2    dxz  x2-y2    tot
    1  0.000  0.024  0.000  0.002  0.004  0.001  0.000  0.000  0.007  0.038
    2  0.000  0.023  0.000  0.003  0.000  0.000  0.000  0.001  0.011  0.038
    3  0.000  0.010  0.000  0.001  0.000  0.000  0.000  0.000  0.000  0.012
    4  0.000  0.017  0.000  0.002  0.003  0.000  0.000  0.000  0.000  0.022
    5  0.000  0.099  0.001  0.004  0.000  0.001  0.000  0.000  0.000  0.105
    6  0.002  0.040  0.006  0.002  0.001  0.000  0.000  0.000  0.000  0.051
    7  0.001  0.057  0.003  0.023  0.001  0.000  0.000  0.000  0.000  0.085
    8  0.000  0.106  0.001  0.004  0.000  0.000  0.000  0.000  0.000  0.112
    9  0.002  0.042  0.013  0.002  0.001  0.000  0.000  0.000  0.000  0.061