<?xml version="1.0" encoding="ISO-8859-1"?>
<modeling>
 <generator>
  <i name="program" type="string">vasp </i>
  <i name="version" type="string">5.4.4.18Apr17-6-g9f103f2a35  </i>
  <i name="subversion" type="string">(build May  1 2020 15:48:39) complex            parallel </i>
  <i name="platform" type="string">LinuxGNU </i>
  <i name="date" type="string">2020 06 18 </i>
  <i name="time" type="string">05:17:05 </i>
 </generator>
 <incar>
  <i type="int" name="ISTART">     1</i>
  <i type="string" name="PREC">accurate</i>
  <i type="string" name="ALGO"> Normal</i>
  <i type="int" name="ISPIN">     2</i>
  <i name="AMIN">      0.01000000</i>
  <i type="int" name="NELM">   400</i>
  <i type="int" name="IBRION">     2</i>
  <i name="EDIFF">      0.00010000</i>
  <i type="int" name="NSW">    99</i>
  <i type="int" name="ISIF">     3</i>
  <i name="ENCUT">    520.00000000</i>
  <v name="MAGMOM">      5.00000000      5.00000000      0.60000000      0.60000000      0.60000000      0.60000000      0.60000000      0.60000000      0.60000000      0.60000000</v>
  <i type="string" name="LREAL"> Auto</i>
  <i type="int" name="ISMEAR">    -5</i>
  <i name="SIGMA">      0.05000000</i>
  <i type="logical" name="LWAVE"> F  </i>
  <i type="int" name="LORBIT">    11</i>
  <v type="int" name="KPOINT_BSE">    -1     0     0     0</v>
  <i type="int" name="NELM">   400</i>
  <i type="string" name="GGA"> Bo</i>
  <i name="PARAM1">      0.18333333</i>
  <i name="PARAM2">      0.22000000</i>
  <i type="logical" name="LUSE_VDW"> T  </i>
  <i name="AGGAC">      0.00000000</i>
 </incar>
 <structure name="primitive_cell" >
  <crystal>
   <varray name="basis" >
    <v>       6.90777700      -0.00000000       0.00000000 </v>
    <v>       3.45388800       5.98231000       0.00000000 </v>
    <v>       0.00000000       0.00000000      23.44458800 </v>
   </varray>
   <i name="volume">    968.83501932 </i>
   <varray name="rec_basis" >
    <v>       0.14476437      -0.08357974       0.00000000 </v>
    <v>       0.00000000       0.16715951      -0.00000000 </v>
    <v>      -0.00000000       0.00000000       0.04265377 </v>
   </varray>
  </crystal>
  <varray name="positions" >
   <v>       0.33333300       0.33333300       0.49992500 </v>
   <v>       0.00042000       0.37322400      -0.42624800 </v>
   <v>      -0.37364300       0.00042000      -0.42624800 </v>
   <v>       0.37322400      -0.37364300      -0.42624800 </v>
   <v>       0.37364300      -0.00042000       0.42624800 </v>
   <v>      -0.37322400       0.37364300       0.42624800 </v>
   <v>      -0.00042000      -0.37322400       0.42624800 </v>
   <v>      -0.33333300      -0.33333300      -0.49992500 </v>
   <v>       0.00000000       0.00000000       0.44821600 </v>
   <v>       0.00000000       0.00000000      -0.44821600 </v>
  </varray>
 </structure>
 <varray name="primitive_index" >
  <v type="int" >        1 </v>
  <v type="int" >        6 </v>
  <v type="int" >        5 </v>
  <v type="int" >        7 </v>
  <v type="int" >        8 </v>
  <v type="int" >       10 </v>
  <v type="int" >        9 </v>
  <v type="int" >        2 </v>
  <v type="int" >        3 </v>
  <v type="int" >        4 </v>
 </varray>
 <kpoints>
  <generation param="Gamma">
   <v type="int" name="divisions">       5        5        1 </v>
   <v name="usershift">      0.00000000       0.00000000       0.00000000 </v>
   <v name="genvec1">      0.20000000       0.00000000       0.00000000 </v>
   <v name="genvec2">      0.00000000       0.20000000       0.00000000 </v>
   <v name="genvec3">      0.00000000       0.00000000       1.00000000 </v>
   <v name="shift">      0.00000000       0.00000000       0.00000000 </v>
  </generation>
  <varray name="kpointlist" >
   <v>       0.00000000       0.00000000       0.00000000 </v>
   <v>       0.20000000       0.00000000       0.00000000 </v>
   <v>       0.40000000       0.00000000       0.00000000 </v>
   <v>       0.40000000       0.20000000       0.00000000 </v>
   <v>      -0.40000000       0.20000000       0.00000000 </v>
  </varray>
  <varray name="weights" >
   <v>       0.04000000 </v>
   <v>       0.24000000 </v>
   <v>       0.24000000 </v>
   <v>       0.24000000 </v>
   <v>       0.24000000 </v>
  </varray>
  <varray name="tetrahedronlist"  type="int" >
   <v type="int" >        6        1        1        2        2 </v>
   <v type="int" >       12        1        2        2        2 </v>
   <v type="int" >       12        2        2        3        4 </v>
   <v type="int" >       12        2        2        2        4 </v>
   <v type="int" >       12        2        3        3        4 </v>
   <v type="int" >       12        2        3        4        4 </v>
   <v type="int" >        6        2        2        4        4 </v>
   <v type="int" >       12        3        3        3        5 </v>
   <v type="int" >       12        3        3        4        5 </v>
   <v type="int" >       12        3        4        4        5 </v>
   <v type="int" >        6        3        3        5        5 </v>
   <v type="int" >       12        3        4        5        5 </v>
   <v type="int" >        6        4        4        5        5 </v>
   <v type="int" >       12        4        5        5        5 </v>
   <v type="int" >        6        5        5        5        5 </v>
  </varray>
  <i name="volumeweight">      0.00666667 </i>
 </kpoints>
 <parameters>
  <separator name="general" >
   <i type="string" name="SYSTEM">unknown system</i>
   <i type="logical" name="LCOMPAT"> F  </i>
  </separator>
  <separator name="electronic" >
   <i type="string" name="PREC">accura</i>
   <i name="ENMAX">    520.00000000</i>
   <i name="ENAUG">    402.10800000</i>
   <i name="EDIFF">      0.00010000</i>
   <i type="int" name="IALGO">    38</i>
   <i type="int" name="IWAVPR">    11</i>
   <i type="int" name="NBANDS">    48</i>
   <i name="NELECT">     56.00000000</i>
   <i type="int" name="TURBO">     0</i>
   <i type="int" name="IRESTART">     0</i>
   <i type="int" name="NREBOOT">     0</i>
   <i type="int" name="NMIN">     0</i>
   <i name="EREF">      0.00000000</i>
   <separator name="electronic smearing" >
    <i type="int" name="ISMEAR">    -5</i>
    <i name="SIGMA">      0.05000000</i>
    <i name="KSPACING">      0.50000000</i>
    <i type="logical" name="KGAMMA"> T  </i>
   </separator>
   <separator name="electronic projectors" >
    <i type="logical" name="LREAL"> T  </i>
    <v name="ROPT">     -0.00025000     -0.00025000     -0.00025000     -0.00025000</v>
    <i type="int" name="LMAXPAW">  -100</i>
    <i type="int" name="LMAXMIX">     2</i>
    <i type="logical" name="NLSPLINE"> F  </i>
   </separator>
   <separator name="electronic startup" >
    <i type="int" name="ISTART">     0</i>
    <i type="int" name="ICHARG">     2</i>
    <i type="int" name="INIWAV">     1</i>
   </separator>
   <separator name="electronic spin" >
    <i type="int" name="ISPIN">     2</i>
    <i type="logical" name="LNONCOLLINEAR"> F  </i>
    <v name="MAGMOM">      5.00000000      5.00000000      0.60000000      0.60000000      0.60000000      0.60000000      0.60000000      0.60000000      0.60000000      0.60000000</v>
    <i name="NUPDOWN">     -1.00000000</i>
    <i type="logical" name="LSORBIT"> F  </i>
    <v name="SAXIS">      0.00000000      0.00000000      1.00000000</v>
    <i type="logical" name="LSPIRAL"> F  </i>
    <v name="QSPIRAL">      0.00000000      0.00000000      0.00000000</v>
    <i type="logical" name="LZEROZ"> F  </i>
   </separator>
   <separator name="electronic exchange-correlation" >
    <i type="logical" name="LASPH"> F  </i>
    <i type="logical" name="LMETAGGA"> F  </i>
   </separator>
   <separator name="electronic convergence" >
    <i type="int" name="NELM">   400</i>
    <i type="int" name="NELMDL">     0</i>
    <i type="int" name="NELMIN">     2</i>
    <i name="ENINI">    520.00000000</i>
    <separator name="electronic convergence detail" >
     <i type="logical" name="LDIAG"> T  </i>
     <i type="logical" name="LSUBROT"> F  </i>
     <i name="WEIMIN">      0.00100000</i>
     <i name="EBREAK">      0.00000052</i>
     <i name="DEPER">      0.30000000</i>
     <i type="int" name="NRMM">     4</i>
     <i name="TIME">      0.40000000</i>
    </separator>
   </separator>
   <separator name="electronic mixer" >
    <i name="AMIX">      0.40000000</i>
    <i name="BMIX">      1.00000000</i>
    <i name="AMIN">      0.01000000</i>
    <i name="AMIX_MAG">      1.60000000</i>
    <i name="BMIX_MAG">      1.00000000</i>
    <separator name="electronic mixer details" >
     <i type="int" name="IMIX">     4</i>
     <i type="logical" name="MIXFIRST"> F  </i>
     <i type="int" name="MAXMIX">   -45</i>
     <i name="WC">    100.00000000</i>
     <i type="int" name="INIMIX">     1</i>
     <i type="int" name="MIXPRE">     1</i>
     <i type="int" name="MREMOVE">     5</i>
    </separator>
   </separator>
   <separator name="electronic dipolcorrection" >
    <i type="logical" name="LDIPOL"> F  </i>
    <i type="logical" name="LMONO"> F  </i>
    <i type="int" name="IDIPOL">     0</i>
    <i name="EPSILON">      1.00000000</i>
    <v name="DIPOL">   -100.00000000   -100.00000000   -100.00000000</v>
    <i name="EFIELD">      0.00000000</i>
   </separator>
  </separator>
  <separator name="grids" >
   <i type="int" name="NGX">    54</i>
   <i type="int" name="NGY">    54</i>
   <i type="int" name="NGZ">   180</i>
   <i type="int" name="NGXF">   108</i>
   <i type="int" name="NGYF">   108</i>
   <i type="int" name="NGZF">   360</i>
   <i type="logical" name="ADDGRID"> F  </i>
  </separator>
  <separator name="ionic" >
   <i type="int" name="NSW">    99</i>
   <i type="int" name="IBRION">     2</i>
   <i type="int" name="MDALGO">     0</i>
   <i type="int" name="ISIF">     3</i>
   <i name="PSTRESS">      0.00000000</i>
   <i name="EDIFFG">      0.00100000</i>
   <i type="int" name="NFREE">     1</i>
   <i name="POTIM">      0.50000000</i>
   <i name="SMASS">     -3.00000000</i>
   <i name="SCALEE">      1.00000000</i>
  </separator>
  <separator name="ionic md" >
   <i name="TEBEG">      0.00010000</i>
   <i name="TEEND">      0.00010000</i>
   <i type="int" name="NBLOCK">     1</i>
   <i type="int" name="KBLOCK">    99</i>
   <i type="int" name="NPACO">   256</i>
   <i name="APACO">     16.00000000</i>
  </separator>
  <separator name="symmetry" >
   <i type="int" name="ISYM">     2</i>
   <i name="SYMPREC">      0.00001000</i>
  </separator>
  <separator name="dos" >
   <i type="int" name="LORBIT">    11</i>
   <v name="RWIGS">     -1.00000000     -1.00000000     -1.00000000     -1.00000000</v>
   <i type="int" name="NEDOS">   301</i>
   <i name="EMIN">     10.00000000</i>
   <i name="EMAX">    -10.00000000</i>
   <i name="EFERMI">      0.00000000</i>
  </separator>
  <separator name="writing" >
   <i type="int" name="NWRITE">     2</i>
   <i type="logical" name="LWAVE"> F  </i>
   <i type="logical" name="LDOWNSAMPLE"> F  </i>
   <i type="logical" name="LCHARG"> T  </i>
   <i type="logical" name="LPARD"> F  </i>
   <i type="logical" name="LVTOT"> F  </i>
   <i type="logical" name="LVHAR"> F  </i>
   <i type="logical" name="LELF"> F  </i>
   <i type="logical" name="LOPTICS"> F  </i>
   <v name="STM">      0.00000000      0.00000000      0.00000000      0.00000000      0.00000000      0.00000000      0.00000000</v>
  </separator>
  <separator name="performance" >
   <i type="int" name="NPAR">    16</i>
   <i type="int" name="NSIM">     4</i>
   <i type="int" name="NBLK">    -1</i>
   <i type="logical" name="LPLANE"> T  </i>
   <i type="logical" name="LSCALAPACK"> T  </i>
   <i type="logical" name="LSCAAWARE"> F  </i>
   <i type="logical" name="LSCALU"> F  </i>
   <i type="logical" name="LASYNC"> F  </i>
   <i type="logical" name="LORBITALREAL"> F  </i>
  </separator>
  <separator name="miscellaneous" >
   <i type="int" name="IDIOT">     3</i>
   <i type="int" name="ISPECIAL">     0</i>
   <i type="logical" name="LMUSIC"> F  </i>
   <v name="POMASS">     51.99600000     28.08500000     72.61000000    127.60000000</v>
   <v name="DARWINR">      0.00000000      0.00000000      0.00000000      0.00000000</v>
   <v name="DARWINV">      1.00000000      1.00000000      1.00000000      1.00000000</v>
   <i type="logical" name="LCORR"> T  </i>
  </separator>
  <i type="logical" name="GGA_COMPAT"> T  </i>
  <i type="logical" name="LBERRY"> F  </i>
  <i type="int" name="ICORELEVEL">     0</i>
  <i type="logical" name="LDAU"> F  </i>
  <i type="int" name="I_CONSTRAINED_M">     0</i>
  <separator name="electronic exchange-correlation" >
   <i type="string" name="GGA">BO</i>
   <i type="int" name="VOSKOWN">     0</i>
   <i type="logical" name="LHFCALC"> F  </i>
   <i type="string" name="PRECFOCK"></i>
   <i type="logical" name="LSYMGRAD"> F  </i>
   <i type="logical" name="LHFONE"> F  </i>
   <i type="logical" name="LRHFCALC"> F  </i>
   <i type="logical" name="LTHOMAS"> F  </i>
   <i type="logical" name="LMODELHF"> F  </i>
   <i name="ENCUT4O">     -1.00000000</i>
   <i type="int" name="EXXOEP">     0</i>
   <i type="int" name="FOURORBIT">     0</i>
   <i name="AEXX">      0.00000000</i>
   <i name="HFALPHA">      0.00000000</i>
   <i name="MCALPHA">      0.00000000</i>
   <i name="ALDAX">      1.00000000</i>
   <i name="AGGAX">      1.00000000</i>
   <i name="ALDAC">      1.00000000</i>
   <i name="AGGAC">      0.00000000</i>
   <i type="int" name="NKREDX">     1</i>
   <i type="int" name="NKREDY">     1</i>
   <i type="int" name="NKREDZ">     1</i>
   <i type="logical" name="SHIFTRED"> F  </i>
   <i type="logical" name="ODDONLY"> F  </i>
   <i type="logical" name="EVENONLY"> F  </i>
   <i type="int" name="LMAXFOCK">     0</i>
   <i type="int" name="NMAXFOCKAE">     0</i>
   <i type="logical" name="LFOCKAEDFT"> F  </i>
   <i name="HFSCREEN">      0.00000000</i>
   <i name="HFSCREENC">      0.00000000</i>
   <i type="int" name="NBANDSGWLOW">     0</i>
  </separator>
  <separator name="vdW DFT" >
   <i type="logical" name="LUSE_VDW"> T  </i>
   <i name="Zab_VDW">     -0.84910000</i>
   <i name="PARAM1">      0.18333333</i>
   <i name="PARAM2">      0.22000000</i>
   <i name="PARAM3">      0.00000000</i>
  </separator>
  <separator name="model GW" >
   <i type="int" name="MODEL_GW">     0</i>
   <i name="MODEL_EPS0">     58.13010116</i>
   <i name="MODEL_ALPHA">      1.00000000</i>
  </separator>
  <separator name="linear response parameters" >
   <i type="logical" name="LEPSILON"> F  </i>
   <i type="logical" name="LRPA"> F  </i>
   <i type="logical" name="LNABLA"> F  </i>
   <i type="logical" name="LVEL"> F  </i>
   <i type="int" name="KINTER">     0</i>
   <i name="CSHIFT">      0.10000000</i>
   <i name="OMEGAMAX">     -1.00000000</i>
   <i name="DEG_THRESHOLD">      0.00200000</i>
   <i name="RTIME">     -0.10000000</i>
   <i name="WPLASMAI">      0.00000000</i>
   <v name="DFIELD">      0.00000000      0.00000000      0.00000000</v>
   <v name="WPLASMA">      0.00000000      0.00000000      0.00000000      0.00000000      0.00000000      0.00000000      0.00000000      0.00000000      0.00000000</v>
  </separator>
  <separator name="orbital magnetization" >
   <i type="logical" name="NUCIND"> F  </i>
   <v name="MAGPOS">      0.00000000      0.00000000      0.00000000</v>
   <i type="logical" name="LNICSALL"> T  </i>
   <i type="logical" name="ORBITALMAG"> F  </i>
   <i type="logical" name="LMAGBLOCH"> F  </i>
   <i type="logical" name="LCHIMAG"> F  </i>
   <i type="logical" name="LGAUGE"> T  </i>
   <i type="int" name="MAGATOM">     0</i>
   <v name="MAGDIPOL">      0.00000000      0.00000000      0.00000000</v>
   <v name="AVECCONST">      0.00000000      0.00000000      0.00000000</v>
  </separator>
  <separator name="response functions" >
   <i type="logical" name="LADDER"> F  </i>
   <i type="logical" name="LRPAFORCE"> F  </i>
   <i type="logical" name="LFXC"> F  </i>
   <i type="logical" name="LHARTREE"> T  </i>
   <i type="int" name="IBSE">     0</i>
   <v type="int" name="KPOINT">    -1     0     0     0</v>
   <i type="logical" name="LTCTE"> F  </i>
   <i type="logical" name="LTETE"> F  </i>
   <i type="logical" name="LTRIPLET"> F  </i>
   <i type="logical" name="LFXCEPS"> F  </i>
   <i type="logical" name="LFXHEG"> F  </i>
   <i type="int" name="NATURALO">     2</i>
   <i type="logical" name="L2ORDER"> F  </i>
   <i type="logical" name="LMP2LT"> F  </i>
   <i type="logical" name="LUSEW"> F  </i>
   <i name="ENCUTGW">     -2.00000000</i>
   <i name="ENCUTGWSOFT">     -2.00000000</i>
   <i name="ENCUTLF">     -1.00000000</i>
   <i type="int" name="LMAXMP2">    -1</i>
   <i name="SCISSOR">      0.00000000</i>
   <i type="int" name="NOMEGA">     0</i>
   <i type="int" name="NOMEGAR">     0</i>
   <i type="int" name="NBANDSGW">    -1</i>
   <i type="int" name="NBANDSO">    -1</i>
   <i type="int" name="NBANDSV">    -1</i>
   <i type="int" name="NELM">   400</i>
   <i type="int" name="NELMHF">     1</i>
   <i type="int" name="DIM">     3</i>
   <i type="int" name="ANTIRES">     0</i>
   <i name="OMEGAMAX">    -30.00000000</i>
   <i name="OMEGAMIN">    -30.00000000</i>
   <i name="OMEGATL">   -200.00000000</i>
   <i type="int" name="OMEGAGRID">   140</i>
   <i name="CSHIFT">     -0.10000000</i>
   <i type="logical" name="SELFENERGY"> F  </i>
   <i type="logical" name="LSPECTRAL"> F  </i>
   <i type="logical" name="LSPECTRALGW"> F  </i>
   <i type="logical" name="LSINGLES"> F  </i>
   <i type="logical" name="LFERMIGW"> F  </i>
   <i type="logical" name="ODDONLYGW"> F  </i>
   <i type="logical" name="EVENONLYGW"> F  </i>
   <i type="int" name="NKREDLFX">     1</i>
   <i type="int" name="NKREDLFY">     1</i>
   <i type="int" name="NKREDLFZ">     1</i>
   <i type="int" name="MAXMEM">  2800</i>
   <i type="int" name="TELESCOPE">     0</i>
   <i type="int" name="TAUPAR">     1</i>
   <i type="int" name="OMEGAPAR">    -1</i>
   <i name="LAMBDA">      1.00000000</i>
  </separator>
  <separator name="External order field" >
   <i name="OFIELD_KAPPA">      0.00000000</i>
   <v name="OFIELD_K">      0.00000000      0.00000000      0.00000000</v>
   <i name="OFIELD_Q6_NEAR">      0.00000000</i>
   <i name="OFIELD_Q6_FAR">      0.00000000</i>
   <i name="OFIELD_A">      0.00000000</i>
  </separator>
 </parameters>
 <atominfo>
  <atoms>      10 </atoms>
  <types>       4 </types>
  <array name="atoms" >
   <dimension dim="1">ion</dimension>
   <field type="string">element</field>
   <field type="int">atomtype</field>
   <set>
    <rc><c>Cr</c><c>   1</c></rc>
    <rc><c>Cr</c><c>   1</c></rc>
    <rc><c>Si</c><c>   2</c></rc>
    <rc><c>Ge</c><c>   3</c></rc>
    <rc><c>Te</c><c>   4</c></rc>
    <rc><c>Te</c><c>   4</c></rc>
    <rc><c>Te</c><c>   4</c></rc>
    <rc><c>Te</c><c>   4</c></rc>
    <rc><c>Te</c><c>   4</c></rc>
    <rc><c>Te</c><c>   4</c></rc>
   </set>
  </array>
  <array name="atomtypes" >
   <dimension dim="1">type</dimension>
   <field type="int">atomspertype</field>
   <field type="string">element</field>
   <field>mass</field>
   <field>valence</field>
   <field type="string">pseudopotential</field>
   <set>
    <rc><c>   2</c><c>Cr</c><c>     51.99600000</c><c>      6.00000000</c><c> PAW_PBE Cr 06Sep2000                   </c></rc>
    <rc><c>   1</c><c>Si</c><c>     28.08500000</c><c>      4.00000000</c><c> PAW_PBE Si 05Jan2001                   </c></rc>
    <rc><c>   1</c><c>Ge</c><c>     72.61000000</c><c>      4.00000000</c><c> PAW_PBE Ge 05Jan2001                   </c></rc>
    <rc><c>   6</c><c>Te</c><c>    127.60000000</c><c>      6.00000000</c><c> PAW_PBE Te 08Apr2002                   </c></rc>
   </set>
  </array>
 </atominfo>
 <structure name="initialpos" >
  <crystal>
   <varray name="basis" >
    <v>       6.90777700      -0.00000000       0.00000000 </v>
    <v>       3.45388800       5.98231000       0.00000000 </v>
    <v>       0.00000000       0.00000000      23.44458800 </v>
   </varray>
   <i name="volume">    968.83501932 </i>
   <varray name="rec_basis" >
    <v>       0.14476437      -0.08357974       0.00000000 </v>
    <v>       0.00000000       0.16715951      -0.00000000 </v>
    <v>      -0.00000000       0.00000000       0.04265377 </v>
   </varray>
  </crystal>
  <varray name="positions" >
   <v>       0.33333300       0.33333300       0.49992500 </v>
   <v>       0.66666700       0.66666700       0.50007500 </v>
   <v>       0.00000000       0.00000000       0.44821600 </v>
   <v>       0.00000000       0.00000000       0.55178400 </v>
   <v>       0.62635700       0.00042000       0.57375200 </v>
   <v>       0.00042000       0.37322400       0.57375200 </v>
   <v>       0.37322400       0.62635700       0.57375200 </v>
   <v>       0.37364300       0.99958000       0.42624800 </v>
   <v>       0.99958000       0.62677600       0.42624800 </v>
   <v>       0.62677600       0.37364300       0.42624800 </v>
  </varray>
 </structure>
 <calculation>
  <scstep>
   <time name="dav">   22.44   23.06</time>
   <time name="total">   74.98   75.86</time>
   <energy>
    <i name="alphaZ">     12.70886290 </i>
    <i name="ewald">   5985.89955237 </i>
    <i name="hartreedc">  -7849.97450105 </i>
    <i name="XCdc">   -228.37069198 </i>
    <i name="pawpsdc">   1151.72699308 </i>
    <i name="pawaedc">   -836.68224472 </i>
    <i name="eentropy">      0.00000000 </i>
    <i name="bandstr">     23.69902539 </i>
    <i name="atom">   2112.17225906 </i>
    <i name="e_fr_energy">    371.17925504 </i>
    <i name="e_wo_entrp">    371.17925504 </i>
    <i name="e_0_energy">    371.17925504 </i>
   </energy>
  </scstep>
  <scstep>
   <time name="dav">   27.55   27.77</time>
   <time name="total">   27.55   27.78</time>
   <energy>
    <i name="e_fr_energy">      4.54845180 </i>
    <i name="e_wo_entrp">      4.54845180 </i>
    <i name="e_0_energy">      4.54845180 </i>
   </energy>
  </scstep>
  <scstep>
   <time name="dav">   29.21   30.23</time>
   <time name="total">   29.21   30.23</time>
   <energy>
    <i name="e_fr_energy">    -41.22373842 </i>
    <i name="e_wo_entrp">    -41.22373842 </i>
    <i name="e_0_energy">    -41.22373842 </i>
   </energy>
  </scstep>
  <scstep>
   <time name="dav">   30.25   31.07</time>
   <time name="total">   30.25   31.07</time>
   <energy>
    <i name="e_fr_energy">    -43.46995478 </i>
    <i name="e_wo_entrp">    -43.46995478 </i>
    <i name="e_0_energy">    -43.46995478 </i>
   </energy>
  </scstep>
  <scstep>
   <time name="dav">   32.83   33.91</time>
   <time name="total">   34.77   35.85</time>
   <energy>
    <i name="e_fr_energy">    -43.52678214 </i>
    <i name="e_wo_entrp">    -43.52678214 </i>
    <i name="e_0_energy">    -43.52678214 </i>
   </energy>
  </scstep>
  <scstep>
   <time name="dav">   33.52   33.85</time>
   <time name="total">   86.91   87.73</time>
   <energy>
    <i name="e_fr_energy">    -46.25884602 </i>
    <i name="e_wo_entrp">    -46.25884602 </i>
    <i name="e_0_energy">    -46.25884602 </i>
   </energy>
  </scstep>
  <scstep>
   <time name="dav">   30.42   30.46</time>
   <time name="total">   84.03   84.10</time>
   <energy>
    <i name="e_fr_energy">    -41.59342607 </i>
    <i name="e_wo_entrp">    -41.59342607 </i>
    <i name="e_0_energy">    -41.59342607 </i>
   </energy>
  </scstep>
  <scstep>
   <time name="dav">   31.42   31.52</time>
   <time name="total">   85.16   85.29</time>
   <energy>
    <i name="e_fr_energy">    -41.48276711 </i>
    <i name="e_wo_entrp">    -41.48276711 </i>
    <i name="e_0_energy">    -41.48276711 </i>
   </energy>
  </scstep>
  <scstep>
   <time name="dav">   33.31   33.49</time>
   <time name="total">   86.18   86.56</time>
   <energy>
    <i name="e_fr_energy">    -41.86946759 </i>
    <i name="e_wo_entrp">    -41.86946759 </i>
    <i name="e_0_energy">    -41.86946759 </i>
   </energy>
  </scstep>
  <scstep>
   <time name="dav">   35.16   35.40</time>
   <time name="total">   88.00   88.50</time>
   <energy>
    <i name="e_fr_energy">   -252.98551280 </i>
    <i name="e_wo_entrp">   -252.98551280 </i>
    <i name="e_0_energy">   -252.98551280 </i>
   </energy>
  </scstep>
  <scstep>
   <time name="dav">   24.99   25.02</time>
   <time name="total">   77.56   77.87</time>
   <energy>
    <i name="e_fr_energy">    -44.02566679 </i>
    <i name="e_wo_entrp">    -44.02566679 </i>
    <i name="e_0_energy">    -44.02566679 </i>
   </energy>
  </scstep>
  <scstep>
   <time name="dav">   23.89   24.00</time>
   <time name="total">   76.59   76.85</time>
   <energy>
    <i name="e_fr_energy">    -41.82218591 </i>
    <i name="e_wo_entrp">    -41.82218591 </i>
    <i name="e_0_energy">    -41.82218591 </i>
   </energy>
  </scstep>
  <scstep>
   <time name="dav">   27.23   27.32</time>
   <time name="total">   79.80   80.38</time>
   <energy>
    <i name="e_fr_energy">    -42.34501525 </i>
    <i name="e_wo_entrp">    -42.34501525 </i>
    <i name="e_0_energy">    -42.34501525 </i>
   </energy>
  </scstep>
  <scstep>
   <time name="dav">   32.44   32.57</time>
   <time name="total">   85.22   85.52</time>
   <energy>
    <i name="e_fr_energy">    -42.60123786 </i>
    <i name="e_wo_entrp">    -42.60123786 </i>
    <i name="e_0_energy">    -42.60123786 </i>
   </energy>
  </scstep>
  <scstep>
   <time name="dav">   30.14   30.25</time>
   <time name="total">   82.98   83.18</time>
   <energy>
    <i name="e_fr_energy">    -42.71013106 </i>
    <i name="e_wo_entrp">    -42.71013106 </i>
    <i name="e_0_energy">    -42.71013106 </i>
   </energy>
  </scstep>
  <scstep>
   <time name="dav">   24.53   24.63</time>
   <time name="total">   77.34   77.60</time>
   <energy>
    <i name="e_fr_energy">    -42.75626403 </i>
    <i name="e_wo_entrp">    -42.75626403 </i>
    <i name="e_0_energy">    -42.75626403 </i>
   </energy>
  </scstep>
  <scstep>
   <time name="dav">   26.02   26.23</time>
   <time name="total">   78.93   79.24</time>
   <energy>
    <i name="e_fr_energy">    -42.76965073 </i>
    <i name="e_wo_entrp">    -42.76965073 </i>
    <i name="e_0_energy">    -42.76965073 </i>
   </energy>
  </scstep>
  <scstep>
   <time name="dav">   24.01   24.30</time>
   <time name="total">   76.62   77.24</time>
   <energy>
    <i name="e_fr_energy">    -42.77343001 </i>
    <i name="e_wo_entrp">    -42.77343001 </i>
    <i name="e_0_energy">    -42.77343001 </i>
   </energy>
  </scstep>
  <scstep>
   <time name="dav">   23.29   23.39</time>
   <time name="total">   76.14   76.31</time>
   <energy>
    <i name="e_fr_energy">    -42.77508623 </i>
    <i name="e_wo_entrp">    -42.77508623 </i>
    <i name="e_0_energy">    -42.77508623 </i>
   </energy>
  </scstep>
  <scstep>
   <time name="dav">   22.27   22.67</time>
   <time name="total">   75.07   75.65</time>
   <energy>
    <i name="e_fr_energy">    -42.77459947 </i>
    <i name="e_wo_entrp">    -42.77459947 </i>
    <i name="e_0_energy">    -42.77459947 </i>
   </energy>
  </scstep>
  <scstep>
   <time name="dav">   22.27   22.60</time>
   <time name="total">   74.94   75.67</time>
   <energy>
    <i name="e_fr_energy">    -42.77658956 </i>
    <i name="e_wo_entrp">    -42.77658956 </i>
    <i name="e_0_energy">    -42.77658956 </i>
   </energy>
  </scstep>
  <scstep>
   <time name="dav">   22.58   22.69</time>
   <time name="total">   75.18   75.71</time>
   <energy>
    <i name="e_fr_energy">    -42.77714478 </i>
    <i name="e_wo_entrp">    -42.77714478 </i>
    <i name="e_0_energy">    -42.77714478 </i>
   </energy>
  </scstep>
  <scstep>
   <time name="dav">   24.52   24.64</time>
   <time name="total">   77.40   77.70</time>
   <energy>
    <i name="e_fr_energy">    -42.77887011 </i>
    <i name="e_wo_entrp">    -42.77887011 </i>
    <i name="e_0_energy">    -42.77887011 </i>
   </energy>
  </scstep>
  <scstep>
   <time name="dav">   22.54   22.56</time>
   <time name="total">   75.46   75.73</time>
   <energy>
    <i name="e_fr_energy">    -42.78074337 </i>
    <i name="e_wo_entrp">    -42.78074337 </i>
    <i name="e_0_energy">    -42.78074337 </i>
   </energy>
  </scstep>
  <scstep>
   <time name="dav">   21.76   21.93</time>
   <time name="total">   74.54   75.00</time>
   <energy>
    <i name="e_fr_energy">    -42.78124233 </i>
    <i name="e_wo_entrp">    -42.78124233 </i>
    <i name="e_0_energy">    -42.78124233 </i>
   </energy>
  </scstep>
  <scstep>
   <time name="dav">   22.59   22.68</time>
   <time name="total">   75.48   75.92</time>
   <energy>
    <i name="e_fr_energy">    -42.78314374 </i>
    <i name="e_wo_entrp">    -42.78314374 </i>
    <i name="e_0_energy">    -42.78314374 </i>
   </energy>
  </scstep>
  <scstep>
   <time name="dav">   20.79   20.88</time>
   <time name="total">   73.68   73.87</time>
   <energy>
    <i name="e_fr_energy">    -42.78375705 </i>
    <i name="e_wo_entrp">    -42.78375705 </i>
    <i name="e_0_energy">    -42.78375705 </i>
   </energy>
  </scstep>
  <scstep>
   <time name="dav">   20.42   20.85</time>
   <time name="total">   73.12   73.90</time>
   <energy>
    <i name="e_fr_energy">    -42.78317998 </i>
    <i name="e_wo_entrp">    -42.78317998 </i>
    <i name="e_0_energy">    -42.78317998 </i>
   </energy>
  </scstep>
  <scstep>
   <time name="dav">   20.62   20.82</time>
   <time name="total">   73.25   73.78</time>
   <energy>
    <i name="e_fr_energy">    -42.78457900 </i>
    <i name="e_wo_entrp">    -42.78457900 </i>
    <i name="e_0_energy">    -42.78457900 </i>
   </energy>
  </scstep>
  <scstep>
   <time name="dav">   23.22   23.27</time>
   <time name="total">   76.00   76.30</time>
   <energy>
    <i name="e_fr_energy">    -42.78419430 </i>
    <i name="e_wo_entrp">    -42.78419430 </i>
    <i name="e_0_energy">    -42.78419430 </i>
   </energy>
  </scstep>
  <scstep>
   <time name="dav">   22.55   22.65</time>
   <time name="total">   75.35   75.73</time>
   <energy>
    <i name="e_fr_energy">    -42.78651384 </i>
    <i name="e_wo_entrp">    -42.78651384 </i>
    <i name="e_0_energy">    -42.78651384 </i>
   </energy>
  </scstep>
  <scstep>
   <time name="dav">   19.90   20.16</time>
   <time name="total">   72.76   73.16</time>
   <energy>
    <i name="e_fr_energy">    -42.78801333 </i>
    <i name="e_wo_entrp">    -42.78801333 </i>
    <i name="e_0_energy">    -42.78801333 </i>
   </energy>
  </scstep>
  <scstep>
   <time name="dav">   19.91   20.10</time>
   <time name="total">   72.74   73.07</time>
   <energy>
    <i name="e_fr_energy">    -42.78577238 </i>
    <i name="e_wo_entrp">    -42.78577238 </i>
    <i name="e_0_energy">    -42.78577238 </i>
   </energy>
  </scstep>
  <scstep>
   <time name="dav">   20.78   20.80</time>
   <time name="total">   73.46   73.87</time>
   <energy>
    <i name="e_fr_energy">    -42.78368463 </i>
    <i name="e_wo_entrp">    -42.78368463 </i>
    <i name="e_0_energy">    -42.78368463 </i>
   </energy>
  </scstep>
  <scstep>
   <time name="dav">   20.49   20.51</time>
   <time name="total">   73.57   73.63</time>
   <energy>
    <i name="e_fr_energy">    -42.78485805 </i>
    <i name="e_wo_entrp">    -42.78485805 </i>
    <i name="e_0_energy">    -42.78485805 </i>
   </energy>
  </scstep>
  <scstep>
   <time name="dav">   20.87   20.88</time>
   <time name="total">   71.60   71.81</time>
   <energy>
    <i name="alphaZ">     12.70886290 </i>
    <i name="ewald">   5985.89955237 </i>
    <i name="hartreedc">  -7865.49320227 </i>
    <i name="XCdc">   -228.93738737 </i>
    <i name="pawpsdc">   1224.04080189 </i>
    <i name="pawaedc">   -910.38048054 </i>
    <i name="eentropy">      0.00000000 </i>
    <i name="bandstr">   -372.79532785 </i>
    <i name="atom">   2112.17225906 </i>
    <i name="e_fr_energy">    -42.78492181 </i>
    <i name="e_wo_entrp">    -42.78492181 </i>
    <i name="e_0_energy">    -42.78492181 </i>
   </energy>
  </scstep>
  <structure>
   <crystal>
    <varray name="basis" >
     <v>       6.90777700      -0.00000000       0.00000000 </v>
     <v>       3.45388800       5.98231000       0.00000000 </v>
     <v>       0.00000000       0.00000000      23.44458800 </v>
    </varray>
    <i name="volume">    968.83501932 </i>
    <varray name="rec_basis" >
     <v>       0.14476437      -0.08357974       0.00000000 </v>
     <v>       0.00000000       0.16715951      -0.00000000 </v>
     <v>      -0.00000000       0.00000000       0.04265377 </v>
    </varray>
   </crystal>
   <varray name="positions" >
    <v>       0.33333300       0.33333300       0.49992500 </v>
    <v>       0.66666700       0.66666700       0.50007500 </v>
    <v>       0.00000000       0.00000000       0.44821600 </v>
    <v>       0.00000000       0.00000000       0.55178400 </v>
    <v>       0.62635700       0.00042000       0.57375200 </v>
    <v>       0.00042000       0.37322400       0.57375200 </v>
    <v>       0.37322400       0.62635700       0.57375200 </v>
    <v>       0.37364300       0.99958000       0.42624800 </v>
    <v>       0.99958000       0.62677600       0.42624800 </v>
    <v>       0.62677600       0.37364300       0.42624800 </v>
   </varray>
  </structure>
  <varray name="forces" >
   <v>       0.00000000      -0.00000000       0.03923365 </v>
   <v>       0.00000000      -0.00000000       0.04637777 </v>
   <v>       0.00000000      -0.00000000       0.30160253 </v>
   <v>       0.00000000      -0.00000000      -0.65933496 </v>
   <v>      -0.12074479      -0.01140642       0.02364447 </v>
   <v>       0.05049413       0.11027126       0.02364447 </v>
   <v>       0.07025065      -0.09886483       0.02364447 </v>
   <v>      -0.51355139       0.00938559       0.06706254 </v>
   <v>       0.26490382       0.44005573       0.06706254 </v>
   <v>       0.24864757      -0.44944131       0.06706254 </v>
  </varray>
  <varray name="stress" >
   <v>      -3.13684913      -0.00000059       0.00000000 </v>
   <v>       0.00000112      -3.13684874       0.00000000 </v>
   <v>       0.00000000      -0.00000000      -2.70050158 </v>
  </varray>
  <energy>
   <i name="e_fr_energy">    -42.78492181 </i>
   <i name="e_wo_entrp">    -42.78492181 </i>
   <i name="e_0_energy">      0.00000000 </i>
  </energy>
  <time name="totalsc"> 2750.99 2767.23</time>
 </calculation>
 <calculation>
  <scstep>
   <time name="dav">   28.34   28.51</time>
   <time name="total">   80.98   81.39</time>
   <energy>
    <i name="alphaZ">     13.04747795 </i>
    <i name="ewald">   6062.00581248 </i>
    <i name="hartreedc">  -7956.86833109 </i>
    <i name="XCdc">   -228.28482950 </i>
    <i name="pawpsdc">   1224.04040189 </i>
    <i name="pawaedc">   -910.37995215 </i>
    <i name="eentropy">      0.00000000 </i>
    <i name="bandstr">   -358.67668728 </i>
    <i name="atom">   2112.17225906 </i>
    <i name="e_fr_energy">    -42.94384864 </i>
    <i name="e_wo_entrp">    -42.94384864 </i>
    <i name="e_0_energy">    -42.94384864 </i>
   </energy>
  </scstep>
  <scstep>
   <time name="dav">   27.49   27.64</time>
   <time name="total">   80.39   80.71</time>
   <energy>
    <i name="e_fr_energy">    -42.92871961 </i>
    <i name="e_wo_entrp">    -42.92871961 </i>
    <i name="e_0_energy">    -42.92871961 </i>
   </energy>
  </scstep>
  <scstep>
   <time name="dav">   29.79   29.93</time>
   <time name="total">   82.66   82.95</time>
   <energy>
    <i name="e_fr_energy">    -42.87037677 </i>
    <i name="e_wo_entrp">    -42.87037677 </i>
    <i name="e_0_energy">    -42.87037677 </i>
   </energy>
  </scstep>
  <scstep>
   <time name="dav">   32.00   32.25</time>
   <time name="total">   84.83   85.38</time>
   <energy>
    <i name="e_fr_energy">    -42.85329469 </i>
    <i name="e_wo_entrp">    -42.85329469 </i>
    <i name="e_0_energy">    -42.85329469 </i>
   </energy>
  </scstep>
  <scstep>
   <time name="dav">   27.54   27.74</time>
   <time name="total">   80.56   80.80</time>
   <energy>
    <i name="e_fr_energy">    -42.85126067 </i>
    <i name="e_wo_entrp">    -42.85126067 </i>
    <i name="e_0_energy">    -42.85126067 </i>
   </energy>
  </scstep>
  <scstep>
   <time name="dav">   25.66   25.71</time>
   <time name="total">   78.79   78.91</time>
   <energy>
    <i name="e_fr_energy">    -42.85188427 </i>
    <i name="e_wo_entrp">    -42.85188427 </i>
    <i name="e_0_energy">    -42.85188427 </i>
   </energy>
  </scstep>
  <scstep>
   <time name="dav">   25.18   25.28</time>
   <time name="total">   78.15   78.32</time>
   <energy>
    <i name="e_fr_energy">    -42.85234364 </i>
    <i name="e_wo_entrp">    -42.85234364 </i>
    <i name="e_0_energy">    -42.85234364 </i>
   </energy>
  </scstep>
  <scstep>
   <time name="dav">   22.05   22.34</time>
   <time name="total">   74.95   75.38</time>
   <energy>
    <i name="e_fr_energy">    -42.85262941 </i>
    <i name="e_wo_entrp">    -42.85262941 </i>
    <i name="e_0_energy">    -42.85262941 </i>
   </energy>
  </scstep>
  <scstep>
   <time name="dav">   21.54   21.63</time>
   <time name="total">   74.76   74.89</time>
   <energy>
    <i name="e_fr_energy">    -42.85300770 </i>
    <i name="e_wo_entrp">    -42.85300770 </i>
    <i name="e_0_energy">    -42.85300770 </i>
   </energy>
  </scstep>
  <scstep>
   <time name="dav">   24.39   24.79</time>
   <time name="total">   77.42   78.07</time>
   <energy>
    <i name="e_fr_energy">    -42.85351557 </i>
    <i name="e_wo_entrp">    -42.85351557 </i>
    <i name="e_0_energy">    -42.85351557 </i>
   </energy>
  </scstep>
  <scstep>
   <time name="dav">   24.59   25.10</time>
   <time name="total">   77.20   78.17</time>
   <energy>
    <i name="e_fr_energy">    -42.85413055 </i>
    <i name="e_wo_entrp">    -42.85413055 </i>
    <i name="e_0_energy">    -42.85413055 </i>
   </energy>
  </scstep>
  <scstep>
   <time name="dav">   24.22   24.31</time>
   <time name="total">   76.94   77.32</time>
   <energy>
    <i name="e_fr_energy">    -42.85427898 </i>
    <i name="e_wo_entrp">    -42.85427898 </i>
    <i name="e_0_energy">    -42.85427898 </i>
   </energy>
  </scstep>
  <scstep>
   <time name="dav">   21.48   21.61</time>
   <time name="total">   72.37   72.56</time>
   <energy>
    <i name="alphaZ">     13.04747795 </i>
    <i name="ewald">   6062.00581248 </i>
    <i name="hartreedc">  -7944.54138845 </i>
    <i name="XCdc">   -228.48261840 </i>
    <i name="pawpsdc">   1234.18975147 </i>
    <i name="pawaedc">   -920.70099524 </i>
    <i name="eentropy">      0.00000000 </i>
    <i name="bandstr">   -370.54455728 </i>
    <i name="atom">   2112.17225906 </i>
    <i name="e_fr_energy">    -42.85425840 </i>
    <i name="e_wo_entrp">    -42.85425840 </i>
    <i name="e_0_energy">    -42.85425840 </i>
   </energy>
  </scstep>
  <structure>
   <crystal>
    <varray name="basis" >
     <v>       6.84456459      -0.00000001       0.00000000 </v>
     <v>       3.42228182       5.92756645       0.00000000 </v>
     <v>       0.00000000      -0.00000000      23.25989200 </v>
    </varray>
    <i name="volume">    943.69130019 </i>
    <varray name="rec_basis" >
     <v>       0.14610133      -0.08435164      -0.00000000 </v>
     <v>       0.00000000       0.16870330       0.00000000 </v>
     <v>      -0.00000000       0.00000000       0.04299246 </v>
    </varray>
   </crystal>
   <varray name="positions" >
    <v>       0.33333300       0.33333300       0.50000573 </v>
    <v>       0.66666700       0.66666700       0.50017043 </v>
    <v>       0.00000000      -0.00000000       0.44883662 </v>
    <v>       0.00000000      -0.00000000       0.55042727 </v>
    <v>       0.62555973       0.00032802       0.57380065 </v>
    <v>       0.00032802       0.37411325       0.57380065 </v>
    <v>       0.37411325       0.62555973       0.57380065 </v>
    <v>       0.37001861       0.99965569       0.42638600 </v>
    <v>       0.99965569       0.63032471       0.42638600 </v>
    <v>       0.63032471       0.37001861       0.42638600 </v>
   </varray>
  </structure>
  <varray name="forces" >
   <v>       0.00000000      -0.00000000       0.02420365 </v>
   <v>       0.00000000      -0.00000000       0.02380316 </v>
   <v>       0.00000000      -0.00000000      -0.10005526 </v>
   <v>       0.00000000      -0.00000000      -0.12848964 </v>
   <v>      -0.11283775      -0.00450609       0.16553553 </v>
   <v>       0.05251648       0.09997339       0.16553553 </v>
   <v>       0.06032127      -0.09546730       0.16553553 </v>
   <v>      -0.32628451       0.00781780      -0.10535617 </v>
   <v>       0.16991264       0.27866176      -0.10535617 </v>
   <v>       0.15637187      -0.28647956      -0.10535617 </v>
  </varray>
  <varray name="stress" >
   <v>       1.62975176      -0.00000069      -0.00000000 </v>
   <v>       0.00000042       1.62975157      -0.00000000 </v>
   <v>      -0.00000000      -0.00000000       2.07516351 </v>
  </varray>
  <energy>
   <i name="e_fr_energy">    -42.85425840 </i>
   <i name="e_wo_entrp">    -42.85425840 </i>
   <i name="e_0_energy">      0.00000000 </i>
  </energy>
  <time name="totalsc"> 1152.83 1158.08</time>
 </calculation>
 <calculation>
  <scstep>
   <time name="dav">   23.81   23.90</time>
   <time name="total">   76.82   77.00</time>
   <energy>
    <i name="alphaZ">     13.04996045 </i>
    <i name="ewald">   6062.56074255 </i>
    <i name="hartreedc">  -7944.94259307 </i>
    <i name="XCdc">   -228.47817078 </i>
    <i name="pawpsdc">   1234.20857365 </i>
    <i name="pawaedc">   -920.72165032 </i>
    <i name="eentropy">      0.00000000 </i>
    <i name="bandstr">   -370.70326803 </i>
    <i name="atom">   2112.17225906 </i>
    <i name="e_fr_energy">    -42.85414648 </i>
    <i name="e_wo_entrp">    -42.85414648 </i>
    <i name="e_0_energy">    -42.85414648 </i>
   </energy>
  </scstep>
  <scstep>
   <time name="dav">   20.61   20.80</time>
   <time name="total">   71.62   72.04</time>
   <energy>
    <i name="alphaZ">     13.04996045 </i>
    <i name="ewald">   6062.56074255 </i>
    <i name="hartreedc">  -7944.88263640 </i>
    <i name="XCdc">   -228.48097694 </i>
    <i name="pawpsdc">   1234.20532224 </i>
    <i name="pawaedc">   -920.71352315 </i>
    <i name="eentropy">      0.00000000 </i>
    <i name="bandstr">   -370.76531223 </i>
    <i name="atom">   2112.17225906 </i>
    <i name="e_fr_energy">    -42.85416442 </i>
    <i name="e_wo_entrp">    -42.85416442 </i>
    <i name="e_0_energy">    -42.85416442 </i>
   </energy>
  </scstep>
  <structure>
   <crystal>
    <varray name="basis" >
     <v>       6.84410926      -0.00000001       0.00000000 </v>
     <v>       3.42205416       5.92717213       0.00000000 </v>
     <v>       0.00000000      -0.00000000      23.25856163 </v>
    </varray>
    <i name="volume">    943.51178178 </i>
    <varray name="rec_basis" >
     <v>       0.14611105      -0.08435725      -0.00000000 </v>
     <v>       0.00000000       0.16871452       0.00000000 </v>
     <v>      -0.00000000       0.00000000       0.04299492 </v>
    </varray>
   </crystal>
   <varray name="positions" >
    <v>       0.33333300       0.33333300       0.50000632 </v>
    <v>       0.66666700       0.66666700       0.50017113 </v>
    <v>       0.00000000      -0.00000000       0.44884112 </v>
    <v>       0.00000000      -0.00000000       0.55041742 </v>
    <v>       0.62555394       0.00032735       0.57380101 </v>
    <v>       0.00032735       0.37411972       0.57380101 </v>
    <v>       0.37411972       0.62555394       0.57380101 </v>
    <v>       0.36999226       0.99965624       0.42638700 </v>
    <v>       0.99965624       0.63035050       0.42638700 </v>
    <v>       0.63035050       0.36999226       0.42638700 </v>
   </varray>
  </structure>
  <varray name="forces" >
   <v>      -0.00000000      -0.00000000       0.02380360 </v>
   <v>      -0.00000000       0.00000000       0.02312949 </v>
   <v>      -0.00000000       0.00000000      -0.10371653 </v>
   <v>      -0.00000000       0.00000000      -0.12363922 </v>
   <v>      -0.11377331      -0.00466031       0.16527289 </v>
   <v>       0.05285070       0.10086072       0.16527289 </v>
   <v>       0.06092261      -0.09620042       0.16527289 </v>
   <v>      -0.32209303       0.00778399      -0.10513200 </v>
   <v>       0.16778762       0.27504873      -0.10513200 </v>
   <v>       0.15430540      -0.28283272      -0.10513200 </v>
  </varray>
  <varray name="stress" >
   <v>       1.77583152      -0.00000056       0.00000000 </v>
   <v>       0.00000027       1.77583131       0.00000000 </v>
   <v>       0.00000000       0.00000000       2.23985593 </v>
  </varray>
  <energy>
   <i name="e_fr_energy">    -42.85416442 </i>
   <i name="e_wo_entrp">    -42.85416442 </i>
   <i name="e_0_energy">      0.00000000 </i>
  </energy>
  <time name="totalsc">  281.13  282.31</time>
 </calculation>
 <calculation>
  <scstep>
   <time name="dav">   24.27   24.41</time>
   <time name="total">   77.10   77.47</time>
   <energy>
    <i name="alphaZ">     12.96783947 </i>
    <i name="ewald">   6059.77434050 </i>
    <i name="hartreedc">  -7936.97745934 </i>
    <i name="XCdc">   -228.63022443 </i>
    <i name="pawpsdc">   1234.25371046 </i>
    <i name="pawaedc">   -920.76632027 </i>
    <i name="eentropy">      0.00000000 </i>
    <i name="bandstr">   -375.67831391 </i>
    <i name="atom">   2112.17225906 </i>
    <i name="e_fr_energy">    -42.88416847 </i>
    <i name="e_wo_entrp">    -42.88416847 </i>
    <i name="e_0_energy">    -42.88416847 </i>
   </energy>
  </scstep>
  <scstep>
   <time name="dav">   27.21   27.31</time>
   <time name="total">   79.95   80.40</time>
   <energy>
    <i name="e_fr_energy">    -42.88693117 </i>
    <i name="e_wo_entrp">    -42.88693117 </i>
    <i name="e_0_energy">    -42.88693117 </i>
   </energy>
  </scstep>
  <scstep>
   <time name="dav">   33.07   33.39</time>
   <time name="total">   85.78   86.30</time>
   <energy>
    <i name="e_fr_energy">    -42.88545885 </i>
    <i name="e_wo_entrp">    -42.88545885 </i>
    <i name="e_0_energy">    -42.88545885 </i>
   </energy>
  </scstep>
  <scstep>
   <time name="dav">   30.82   30.89</time>
   <time name="total">   83.73   83.99</time>
   <energy>
    <i name="e_fr_energy">    -42.88385326 </i>
    <i name="e_wo_entrp">    -42.88385326 </i>
    <i name="e_0_energy">    -42.88385326 </i>
   </energy>
  </scstep>
  <scstep>
   <time name="dav">   31.40   31.64</time>
   <time name="total">   84.34   84.75</time>
   <energy>
    <i name="e_fr_energy">    -42.88353680 </i>
    <i name="e_wo_entrp">    -42.88353680 </i>
    <i name="e_0_energy">    -42.88353680 </i>
   </energy>
  </scstep>
  <scstep>
   <time name="dav">   20.73   20.77</time>
   <time name="total">   71.76   71.84</time>
   <energy>
    <i name="alphaZ">     12.96783947 </i>
    <i name="ewald">   6059.77434050 </i>
    <i name="hartreedc">  -7939.64049622 </i>
    <i name="XCdc">   -228.54704102 </i>
    <i name="pawpsdc">   1231.19472517 </i>
    <i name="pawaedc">   -917.67617520 </i>
    <i name="eentropy">      0.00000000 </i>
    <i name="bandstr">   -373.12894699 </i>
    <i name="atom">   2112.17225906 </i>
    <i name="e_fr_energy">    -42.88349524 </i>
    <i name="e_wo_entrp">    -42.88349524 </i>
    <i name="e_0_energy">    -42.88349524 </i>
   </energy>
  </scstep>
  <structure>
   <crystal>
    <varray name="basis" >
     <v>       6.85439004      -0.00000003      -0.00000000 </v>
     <v>       3.42719456       5.93607553       0.00000000 </v>
     <v>       0.00000000      -0.00000000      23.33569093 </v>
    </varray>
    <i name="volume">    949.48672554 </i>
    <varray name="rec_basis" >
     <v>       0.14589190      -0.08423072      -0.00000000 </v>
     <v>       0.00000000       0.16846147       0.00000000 </v>
     <v>      -0.00000000      -0.00000000       0.04285281 </v>
    </varray>
   </crystal>
   <varray name="positions" >
    <v>       0.33333300       0.33333300       0.50008733 </v>
    <v>       0.66666700       0.66666700       0.50025649 </v>
    <v>       0.00000000      -0.00000000       0.44886839 </v>
    <v>       0.00000000      -0.00000000       0.54963002 </v>
    <v>       0.62445762       0.00025334       0.57416334 </v>
    <v>       0.00025334       0.37529004       0.57416334 </v>
    <v>       0.37529004       0.62445762       0.57416334 </v>
    <v>       0.36626768       0.99974932       0.42622259 </v>
    <v>       0.99974932       0.63398200       0.42622259 </v>
    <v>       0.63398200       0.36626768       0.42622259 </v>
   </varray>
  </structure>
  <varray name="forces" >
   <v>      -0.00000000       0.00000000       0.01471310 </v>
   <v>       0.00000000       0.00000000       0.00580476 </v>
   <v>      -0.00000000       0.00000000      -0.14325049 </v>
   <v>       0.00000000       0.00000000       0.10032398 </v>
   <v>      -0.02487933      -0.00381964       0.05773657 </v>
   <v>       0.00913176       0.02345595       0.05773657 </v>
   <v>       0.01574757      -0.01963631       0.05773657 </v>
   <v>      -0.16054594       0.00151017      -0.05026702 </v>
   <v>       0.08158081       0.13828177      -0.05026702 </v>
   <v>       0.07896513      -0.13979194      -0.05026702 </v>
  </varray>
  <varray name="stress" >
   <v>       0.67298251      -0.00000022       0.00000000 </v>
   <v>       0.00000011       0.67298243       0.00000000 </v>
   <v>       0.00000000       0.00000000       1.58793703 </v>
  </varray>
  <energy>
   <i name="e_fr_energy">    -42.88349524 </i>
   <i name="e_wo_entrp">    -42.88349524 </i>
   <i name="e_0_energy">      0.00000000 </i>
  </energy>
  <time name="totalsc">  615.34  617.92</time>
 </calculation>
 <calculation>
  <scstep>
   <time name="dav">   22.91   23.02</time>
   <time name="total">   75.77   76.05</time>
   <energy>
    <i name="alphaZ">     12.91183833 </i>
    <i name="ewald">   6057.90105844 </i>
    <i name="hartreedc">  -7934.40808393 </i>
    <i name="XCdc">   -228.64755325 </i>
    <i name="pawpsdc">   1230.81192969 </i>
    <i name="pawaedc">   -917.27776826 </i>
    <i name="eentropy">      0.00000000 </i>
    <i name="bandstr">   -376.35304958 </i>
    <i name="atom">   2112.17225906 </i>
    <i name="e_fr_energy">    -42.88936950 </i>
    <i name="e_wo_entrp">    -42.88936950 </i>
    <i name="e_0_energy">    -42.88936950 </i>
   </energy>
  </scstep>
  <scstep>
   <time name="dav">   27.23   27.38</time>
   <time name="total">   79.99   80.38</time>
   <energy>
    <i name="e_fr_energy">    -42.89062333 </i>
    <i name="e_wo_entrp">    -42.89062333 </i>
    <i name="e_0_energy">    -42.89062333 </i>
   </energy>
  </scstep>
  <scstep>
   <time name="dav">   29.97   30.30</time>
   <time name="total">   82.99   83.43</time>
   <energy>
    <i name="e_fr_energy">    -42.88985333 </i>
    <i name="e_wo_entrp">    -42.88985333 </i>
    <i name="e_0_energy">    -42.88985333 </i>
   </energy>
  </scstep>
  <scstep>
   <time name="dav">   30.60   30.65</time>
   <time name="total">   83.43   83.65</time>
   <energy>
    <i name="e_fr_energy">    -42.88903391 </i>
    <i name="e_wo_entrp">    -42.88903391 </i>
    <i name="e_0_energy">    -42.88903391 </i>
   </energy>
  </scstep>
  <scstep>
   <time name="dav">   24.32   24.38</time>
   <time name="total">   77.23   77.36</time>
   <energy>
    <i name="e_fr_energy">    -42.88888256 </i>
    <i name="e_wo_entrp">    -42.88888256 </i>
    <i name="e_0_energy">    -42.88888256 </i>
   </energy>
  </scstep>
  <scstep>
   <time name="dav">   18.13   18.39</time>
   <time name="total">   69.26   69.65</time>
   <energy>
    <i name="alphaZ">     12.91183833 </i>
    <i name="ewald">   6057.90105844 </i>
    <i name="hartreedc">  -7936.56050041 </i>
    <i name="XCdc">   -228.58532398 </i>
    <i name="pawpsdc">   1228.65852267 </i>
    <i name="pawaedc">   -915.10214449 </i>
    <i name="eentropy">      0.00000000 </i>
    <i name="bandstr">   -374.28458181 </i>
    <i name="atom">   2112.17225906 </i>
    <i name="e_fr_energy">    -42.88887220 </i>
    <i name="e_wo_entrp">    -42.88887220 </i>
    <i name="e_0_energy">    -42.88887220 </i>
   </energy>
  </scstep>
  <structure>
   <crystal>
    <varray name="basis" >
     <v>       6.86145283      -0.00000004      -0.00000000 </v>
     <v>       3.43072596       5.94219208       0.00000000 </v>
     <v>       0.00000000       0.00000000      23.38867797 </v>
    </varray>
    <i name="volume">    953.60483329 </i>
    <varray name="rec_basis" >
     <v>       0.14574173      -0.08414402      -0.00000000 </v>
     <v>       0.00000000       0.16828806      -0.00000000 </v>
     <v>      -0.00000000      -0.00000000       0.04275573 </v>
    </varray>
   </crystal>
   <varray name="positions" >
    <v>       0.33333300       0.33333300       0.50014281 </v>
    <v>       0.66666700       0.66666700       0.50031494 </v>
    <v>       0.00000000      -0.00000000       0.44888706 </v>
    <v>       0.00000000      -0.00000000       0.54909087 </v>
    <v>       0.62370559       0.00020258       0.57441143 </v>
    <v>       0.00020258       0.37609283       0.57441143 </v>
    <v>       0.37609283       0.62370559       0.57441143 </v>
    <v>       0.36371277       0.99981317       0.42611001 </v>
    <v>       0.99981317       0.63647305       0.42611001 </v>
    <v>       0.63647305       0.36371277       0.42611001 </v>
   </varray>
  </structure>
  <varray name="forces" >
   <v>      -0.00000000       0.00000000       0.01262689 </v>
   <v>      -0.00000000       0.00000000      -0.00415362 </v>
   <v>      -0.00000000       0.00000000      -0.17102513 </v>
   <v>      -0.00000000       0.00000000       0.25388084 </v>
   <v>       0.03713902      -0.00228175      -0.01695934 </v>
   <v>      -0.02054557      -0.03102246      -0.01695934 </v>
   <v>      -0.01659346       0.03330421      -0.01695934 </v>
   <v>      -0.03525108       0.00063859      -0.01348366 </v>
   <v>       0.01817857       0.03020903      -0.01348366 </v>
   <v>       0.01707250      -0.03084762      -0.01348366 </v>
  </varray>
  <varray name="stress" >
   <v>       0.10191914      -0.00000056      -0.00000000 </v>
   <v>       0.00000055       0.10191913      -0.00000000 </v>
   <v>      -0.00000000       0.00000000       1.12986193 </v>
  </varray>
  <energy>
   <i name="e_fr_energy">    -42.88887220 </i>
   <i name="e_wo_entrp">    -42.88887220 </i>
   <i name="e_0_energy">      0.00000000 </i>
  </energy>
  <time name="totalsc">  601.18  603.47</time>
 </calculation>
 <calculation>
  <scstep>
   <time name="dav">   24.36   24.58</time>
   <time name="total">   77.18   77.61</time>
   <energy>
    <i name="alphaZ">     12.85115521 </i>
    <i name="ewald">   6082.26311340 </i>
    <i name="hartreedc">  -7955.87477120 </i>
    <i name="XCdc">   -228.69602080 </i>
    <i name="pawpsdc">   1228.50332035 </i>
    <i name="pawaedc">   -914.94111434 </i>
    <i name="eentropy">      0.00000000 </i>
    <i name="bandstr">   -379.17351087 </i>
    <i name="atom">   2112.17225906 </i>
    <i name="e_fr_energy">    -42.89556919 </i>
    <i name="e_wo_entrp">    -42.89556919 </i>
    <i name="e_0_energy">    -42.89556919 </i>
   </energy>
  </scstep>
  <scstep>
   <time name="dav">   27.38   27.62</time>
   <time name="total">   80.18   80.66</time>
   <energy>
    <i name="e_fr_energy">    -42.89409446 </i>
    <i name="e_wo_entrp">    -42.89409446 </i>
    <i name="e_0_energy">    -42.89409446 </i>
   </energy>
  </scstep>
  <scstep>
   <time name="dav">   28.62   28.74</time>
   <time name="total">   81.44   81.84</time>
   <energy>
    <i name="e_fr_energy">    -42.89195359 </i>
    <i name="e_wo_entrp">    -42.89195359 </i>
    <i name="e_0_energy">    -42.89195359 </i>
   </energy>
  </scstep>
  <scstep>
   <time name="dav">   29.76   29.89</time>
   <time name="total">   82.79   83.05</time>
   <energy>
    <i name="e_fr_energy">    -42.89044499 </i>
    <i name="e_wo_entrp">    -42.89044499 </i>
    <i name="e_0_energy">    -42.89044499 </i>
   </energy>
  </scstep>
  <scstep>
   <time name="dav">   23.00   23.11</time>
   <time name="total">   75.82   76.26</time>
   <energy>
    <i name="e_fr_energy">    -42.89028202 </i>
    <i name="e_wo_entrp">    -42.89028202 </i>
    <i name="e_0_energy">    -42.89028202 </i>
   </energy>
  </scstep>
  <scstep>
   <time name="dav">   20.08   20.35</time>
   <time name="total">   70.92   71.45</time>
   <energy>
    <i name="alphaZ">     12.85115521 </i>
    <i name="ewald">   6082.26311340 </i>
    <i name="hartreedc">  -7958.95748797 </i>
    <i name="XCdc">   -228.65040073 </i>
    <i name="pawpsdc">   1226.86897911 </i>
    <i name="pawaedc">   -913.28700983 </i>
    <i name="eentropy">      0.00000000 </i>
    <i name="bandstr">   -376.15082816 </i>
    <i name="atom">   2112.17225906 </i>
    <i name="e_fr_energy">    -42.89021991 </i>
    <i name="e_wo_entrp">    -42.89021991 </i>
    <i name="e_0_energy">    -42.89021991 </i>
   </energy>
  </scstep>
  <structure>
   <crystal>
    <varray name="basis" >
     <v>       6.86432148      -0.00000005      -0.00000000 </v>
     <v>       3.43216030       5.94467640      -0.00000000 </v>
     <v>       0.00000000       0.00000000      23.47948239 </v>
    </varray>
    <i name="volume">    958.10775213 </i>
    <varray name="rec_basis" >
     <v>       0.14568082      -0.08410886      -0.00000000 </v>
     <v>       0.00000000       0.16821773      -0.00000000 </v>
     <v>       0.00000000      -0.00000000       0.04259038 </v>
    </varray>
   </crystal>
   <varray name="positions" >
    <v>       0.33333300       0.33333300       0.50017702 </v>
    <v>       0.66666700       0.66666700       0.50030997 </v>
    <v>       0.00000000      -0.00000000       0.44848678 </v>
    <v>       0.00000000      -0.00000000       0.54964318 </v>
    <v>       0.62395188       0.00017731       0.57439191 </v>
    <v>       0.00017731       0.37587181       0.57439191 </v>
    <v>       0.37587181       0.62395188       0.57439191 </v>
    <v>       0.36321791       0.99982432       0.42606911 </v>
    <v>       0.99982432       0.63695677       0.42606911 </v>
    <v>       0.63695677       0.36321791       0.42606911 </v>
   </varray>
  </structure>
  <varray name="forces" >
   <v>      -0.00000000      -0.00000000      -0.00077825 </v>
   <v>      -0.00000000       0.00000000      -0.00927932 </v>
   <v>      -0.00000000      -0.00000000       0.16676156 </v>
   <v>      -0.00000000      -0.00000000      -0.09135448 </v>
   <v>      -0.00736186      -0.00412675      -0.03642153 </v>
   <v>       0.00010706       0.00843893      -0.03642153 </v>
   <v>       0.00725480      -0.00431218      -0.03642153 </v>
   <v>       0.01273988       0.00176887       0.01463836 </v>
   <v>      -0.00483805      -0.01191749       0.01463836 </v>
   <v>      -0.00790183       0.01014862       0.01463836 </v>
  </varray>
  <varray name="stress" >
   <v>      -0.01953431      -0.00000080      -0.00000000 </v>
   <v>       0.00000080      -0.01953431      -0.00000000 </v>
   <v>      -0.00000000      -0.00000000      -0.43372224 </v>
  </varray>
  <energy>
   <i name="e_fr_energy">    -42.89021991 </i>
   <i name="e_wo_entrp">    -42.89021991 </i>
   <i name="e_0_energy">      0.00000000 </i>
  </energy>
  <time name="totalsc">  605.85  610.69</time>
 </calculation>
 <calculation>
  <scstep>
   <time name="dav">   26.27   26.40</time>
   <time name="total">   79.11   79.63</time>
   <energy>
    <i name="alphaZ">     12.87643980 </i>
    <i name="ewald">   6072.09133868 </i>
    <i name="hartreedc">  -7951.19441313 </i>
    <i name="XCdc">   -228.60191521 </i>
    <i name="pawpsdc">   1226.60144360 </i>
    <i name="pawaedc">   -913.00913658 </i>
    <i name="eentropy">      0.00000000 </i>
    <i name="bandstr">   -373.82769888 </i>
    <i name="atom">   2112.17225906 </i>
    <i name="e_fr_energy">    -42.89168266 </i>
    <i name="e_wo_entrp">    -42.89168266 </i>
    <i name="e_0_energy">    -42.89168266 </i>
   </energy>
  </scstep>
  <scstep>
   <time name="dav">   27.49   27.61</time>
   <time name="total">   80.53   80.72</time>
   <energy>
    <i name="e_fr_energy">    -42.89153263 </i>
    <i name="e_wo_entrp">    -42.89153263 </i>
    <i name="e_0_energy">    -42.89153263 </i>
   </energy>
  </scstep>
  <scstep>
   <time name="dav">   26.72   26.96</time>
   <time name="total">   79.56   80.10</time>
   <energy>
    <i name="e_fr_energy">    -42.89120584 </i>
    <i name="e_wo_entrp">    -42.89120584 </i>
    <i name="e_0_energy">    -42.89120584 </i>
   </energy>
  </scstep>
  <scstep>
   <time name="dav">   26.11   26.27</time>
   <time name="total">   79.02   79.40</time>
   <energy>
    <i name="e_fr_energy">    -42.89103899 </i>
    <i name="e_wo_entrp">    -42.89103899 </i>
    <i name="e_0_energy">    -42.89103899 </i>
   </energy>
  </scstep>
  <scstep>
   <time name="dav">   17.52   17.65</time>
   <time name="total">   68.38   68.82</time>
   <energy>
    <i name="alphaZ">     12.87643980 </i>
    <i name="ewald">   6072.09133868 </i>
    <i name="hartreedc">  -7950.68733123 </i>
    <i name="XCdc">   -228.61080150 </i>
    <i name="pawpsdc">   1226.92944484 </i>
    <i name="pawaedc">   -913.33412683 </i>
    <i name="eentropy">      0.00000000 </i>
    <i name="bandstr">   -374.32831064 </i>
    <i name="atom">   2112.17225906 </i>
    <i name="e_fr_energy">    -42.89108783 </i>
    <i name="e_wo_entrp">    -42.89108783 </i>
    <i name="e_0_energy">    -42.89108783 </i>
   </energy>
  </scstep>
  <structure>
   <crystal>
    <varray name="basis" >
     <v>       6.86312343      -0.00000005      -0.00000000 </v>
     <v>       3.43156127       5.94363886       0.00000000 </v>
     <v>       0.00000000       0.00000000      23.44155928 </v>
    </varray>
    <i name="volume">    956.22638164 </i>
    <varray name="rec_basis" >
     <v>       0.14570625      -0.08412354      -0.00000000 </v>
     <v>       0.00000000       0.16824710      -0.00000000 </v>
     <v>       0.00000000      -0.00000000       0.04265928 </v>
    </varray>
   </crystal>
   <varray name="positions" >
    <v>       0.33333300       0.33333300       0.50016279 </v>
    <v>       0.66666700       0.66666700       0.50031204 </v>
    <v>       0.00000000      -0.00000000       0.44865330 </v>
    <v>       0.00000000      -0.00000000       0.54941341 </v>
    <v>       0.62384906       0.00018786       0.57440003 </v>
    <v>       0.00018786       0.37596408       0.57440003 </v>
    <v>       0.37596408       0.62384906       0.57440003 </v>
    <v>       0.36342450       0.99981967       0.42608612 </v>
    <v>       0.99981967       0.63675484       0.42608612 </v>
    <v>       0.63675484       0.36342450       0.42608612 </v>
   </varray>
  </structure>
  <varray name="forces" >
   <v>       0.00000000      -0.00000000       0.00306554 </v>
   <v>       0.00000000      -0.00000000      -0.00683069 </v>
   <v>       0.00000000      -0.00000000       0.02877571 </v>
   <v>       0.00000000      -0.00000000       0.05199480 </v>
   <v>       0.01180580      -0.00147100      -0.02499554 </v>
   <v>      -0.00717682      -0.00948863      -0.02499554 </v>
   <v>      -0.00462898       0.01095962      -0.02499554 </v>
   <v>      -0.00897021       0.00299316      -0.00067292 </v>
   <v>       0.00707726       0.00627185      -0.00067292 </v>
   <v>       0.00189295      -0.00926501      -0.00067292 </v>
  </varray>
  <varray name="stress" >
   <v>       0.05521360      -0.00000115       0.00000000 </v>
   <v>       0.00000115       0.05521360       0.00000000 </v>
   <v>       0.00000000      -0.00000000      -0.15405586 </v>
  </varray>
  <energy>
   <i name="e_fr_energy">    -42.89108783 </i>
   <i name="e_wo_entrp">    -42.89108783 </i>
   <i name="e_0_energy">      0.00000000 </i>
  </energy>
  <time name="totalsc">  516.48  519.06</time>
  <eigenvalues>
   <array>
    <dimension dim="1">band</dimension>
    <dimension dim="2">kpoint</dimension>
    <dimension dim="3">spin</dimension>
    <field>eigene</field>
    <field>occ</field>
    <set>
     <set comment="spin 1">
      <set comment="kpoint 1">
       <r>  -14.6622    1.0000 </r>
       <r>  -13.7529    1.0000 </r>
       <r>  -12.7195    1.0000 </r>
       <r>  -12.7195    1.0000 </r>
       <r>  -12.6240    1.0000 </r>
       <r>  -12.6240    1.0000 </r>
       <r>  -10.7920    1.0000 </r>
       <r>   -8.5597    1.0000 </r>
       <r>   -6.6141    1.0000 </r>
       <r>   -6.6141    1.0000 </r>
       <r>   -6.5930    1.0000 </r>
       <r>   -6.5161    1.0000 </r>
       <r>   -6.1631    1.0000 </r>
       <r>   -6.1631    1.0000 </r>
       <r>   -5.3153    1.0000 </r>
       <r>   -4.4895    1.0000 </r>
       <r>   -4.4895    1.0000 </r>
       <r>   -4.2440    1.0000 </r>
       <r>   -4.2440    1.0000 </r>
       <r>   -4.1682    1.0000 </r>
       <r>   -3.5779    1.0000 </r>
       <r>   -3.5339    1.0000 </r>
       <r>   -3.5339    1.0000 </r>
       <r>   -3.2697    1.0000 </r>
       <r>   -3.2697    1.0000 </r>
       <r>   -3.2283    1.0000 </r>
       <r>   -3.1689    1.0000 </r>
       <r>   -3.1689    1.0000 </r>
       <r>   -2.9182    1.0000 </r>
       <r>   -2.1953    1.0000 </r>
       <r>   -2.1952    1.0000 </r>
       <r>   -1.2213    0.0000 </r>
       <r>   -1.2213    0.0000 </r>
       <r>   -0.4854    0.0000 </r>
       <r>   -0.4844    0.0000 </r>
       <r>   -0.4844    0.0000 </r>
       <r>    0.0181    0.0000 </r>
       <r>    1.0358    0.0000 </r>
       <r>    1.0358    0.0000 </r>
       <r>    1.6193    0.0000 </r>
       <r>    1.7252    0.0000 </r>
       <r>    1.9484    0.0000 </r>
       <r>    2.2415    0.0000 </r>
       <r>    2.2529    0.0000 </r>
       <r>    2.2530    0.0000 </r>
       <r>    2.5808    0.0000 </r>
       <r>    3.1467    0.0000 </r>
       <r>    3.1468    0.0000 </r>
      </set>
      <set comment="kpoint 2">
       <r>  -14.5384    1.0000 </r>
       <r>  -13.6570    1.0000 </r>
       <r>  -12.9594    1.0000 </r>
       <r>  -12.8127    1.0000 </r>
       <r>  -12.7241    1.0000 </r>
       <r>  -12.6892    1.0000 </r>
       <r>  -10.6197    1.0000 </r>
       <r>   -8.6026    1.0000 </r>
       <r>   -6.7831    1.0000 </r>
       <r>   -6.6122    1.0000 </r>
       <r>   -6.4435    1.0000 </r>
       <r>   -6.1701    1.0000 </r>
       <r>   -5.7610    1.0000 </r>
       <r>   -5.5892    1.0000 </r>
       <r>   -5.0979    1.0000 </r>
       <r>   -4.7298    1.0000 </r>
       <r>   -4.6334    1.0000 </r>
       <r>   -4.4998    1.0000 </r>
       <r>   -4.1164    1.0000 </r>
       <r>   -3.9989    1.0000 </r>
       <r>   -3.8660    1.0000 </r>
       <r>   -3.8464    1.0000 </r>
       <r>   -3.4627    1.0000 </r>
       <r>   -3.4220    1.0000 </r>
       <r>   -3.3640    1.0000 </r>
       <r>   -3.2347    1.0000 </r>
       <r>   -3.1404    1.0000 </r>
       <r>   -3.0978    1.0000 </r>
       <r>   -3.0404    1.0000 </r>
       <r>   -2.6699    1.0000 </r>
       <r>   -2.4297    1.0000 </r>
       <r>   -1.3513    0.0000 </r>
       <r>   -1.1001    0.0000 </r>
       <r>   -1.0582    0.0000 </r>
       <r>   -0.7387    0.0000 </r>
       <r>    0.0805    0.0000 </r>
       <r>    0.4375    0.0000 </r>
       <r>    1.0326    0.0000 </r>
       <r>    1.1038    0.0000 </r>
       <r>    1.7651    0.0000 </r>
       <r>    1.8784    0.0000 </r>
       <r>    1.9222    0.0000 </r>
       <r>    2.0928    0.0000 </r>
       <r>    2.2956    0.0000 </r>
       <r>    2.3523    0.0000 </r>
       <r>    2.7437    0.0000 </r>
       <r>    3.0255    0.0000 </r>
       <r>    3.1757    0.0000 </r>
      </set>
      <set comment="kpoint 3">
       <r>  -14.2144    1.0000 </r>
       <r>  -13.4814    1.0000 </r>
       <r>  -13.4100    1.0000 </r>
       <r>  -12.9689    1.0000 </r>
       <r>  -12.8917    1.0000 </r>
       <r>  -12.8231    1.0000 </r>
       <r>  -10.3786    1.0000 </r>
       <r>   -8.6150    1.0000 </r>
       <r>   -6.6588    1.0000 </r>
       <r>   -6.4422    1.0000 </r>
       <r>   -6.0039    1.0000 </r>
       <r>   -5.6204    1.0000 </r>
       <r>   -5.2194    1.0000 </r>
       <r>   -5.1318    1.0000 </r>
       <r>   -5.0550    1.0000 </r>
       <r>   -4.9423    1.0000 </r>
       <r>   -4.7596    1.0000 </r>
       <r>   -4.7473    1.0000 </r>
       <r>   -4.3652    1.0000 </r>
       <r>   -4.2507    1.0000 </r>
       <r>   -4.2475    1.0000 </r>
       <r>   -3.7683    1.0000 </r>
       <r>   -3.6401    1.0000 </r>
       <r>   -3.5586    1.0000 </r>
       <r>   -3.3793    1.0000 </r>
       <r>   -3.3025    1.0000 </r>
       <r>   -3.2821    1.0000 </r>
       <r>   -2.9842    1.0000 </r>
       <r>   -2.9185    1.0000 </r>
       <r>   -2.8459    1.0000 </r>
       <r>   -2.8226    1.0000 </r>
       <r>   -1.3580    0.0000 </r>
       <r>   -1.3173    0.0000 </r>
       <r>   -1.0399    0.0000 </r>
       <r>   -0.8733    0.0000 </r>
       <r>   -0.2905    0.0000 </r>
       <r>    0.1699    0.0000 </r>
       <r>    0.8688    0.0000 </r>
       <r>    1.4791    0.0000 </r>
       <r>    1.6824    0.0000 </r>
       <r>    1.8026    0.0000 </r>
       <r>    2.0342    0.0000 </r>
       <r>    2.1646    0.0000 </r>
       <r>    2.3041    0.0000 </r>
       <r>    2.5520    0.0000 </r>
       <r>    2.8943    0.0000 </r>
       <r>    3.0074    0.0000 </r>
       <r>    3.2487    0.0000 </r>
      </set>
      <set comment="kpoint 4">
       <r>  -14.3093    1.0000 </r>
       <r>  -13.4848    1.0000 </r>
       <r>  -13.2332    1.0000 </r>
       <r>  -13.0768    1.0000 </r>
       <r>  -12.8553    1.0000 </r>
       <r>  -12.7686    1.0000 </r>
       <r>  -10.3971    1.0000 </r>
       <r>   -8.5941    1.0000 </r>
       <r>   -6.8260    1.0000 </r>
       <r>   -6.3479    1.0000 </r>
       <r>   -6.2335    1.0000 </r>
       <r>   -5.7966    1.0000 </r>
       <r>   -5.1652    1.0000 </r>
       <r>   -5.0616    1.0000 </r>
       <r>   -5.0569    1.0000 </r>
       <r>   -4.9242    1.0000 </r>
       <r>   -4.8211    1.0000 </r>
       <r>   -4.6313    1.0000 </r>
       <r>   -4.5455    1.0000 </r>
       <r>   -4.2325    1.0000 </r>
       <r>   -4.1892    1.0000 </r>
       <r>   -3.7054    1.0000 </r>
       <r>   -3.4930    1.0000 </r>
       <r>   -3.4722    1.0000 </r>
       <r>   -3.3753    1.0000 </r>
       <r>   -3.2937    1.0000 </r>
       <r>   -3.2249    1.0000 </r>
       <r>   -3.0916    1.0000 </r>
       <r>   -2.9486    1.0000 </r>
       <r>   -2.8049    1.0000 </r>
       <r>   -2.6519    1.0000 </r>
       <r>   -1.6292    0.0000 </r>
       <r>   -1.0356    0.0000 </r>
       <r>   -1.0071    0.0000 </r>
       <r>   -0.7477    0.0000 </r>
       <r>   -0.2876    0.0000 </r>
       <r>    0.1703    0.0000 </r>
       <r>    0.9158    0.0000 </r>
       <r>    1.0426    0.0000 </r>
       <r>    1.7100    0.0000 </r>
       <r>    1.8020    0.0000 </r>
       <r>    1.9869    0.0000 </r>
       <r>    2.1970    0.0000 </r>
       <r>    2.3308    0.0000 </r>
       <r>    2.4367    0.0000 </r>
       <r>    3.0295    0.0000 </r>
       <r>    3.0610    0.0000 </r>
       <r>    3.2019    0.0000 </r>
      </set>
      <set comment="kpoint 5">
       <r>  -14.0433    1.0000 </r>
       <r>  -13.5495    1.0000 </r>
       <r>  -13.2911    1.0000 </r>
       <r>  -13.1997    1.0000 </r>
       <r>  -13.0068    1.0000 </r>
       <r>  -12.8484    1.0000 </r>
       <r>  -10.2524    1.0000 </r>
       <r>   -8.5543    1.0000 </r>
       <r>   -6.6157    1.0000 </r>
       <r>   -6.1504    1.0000 </r>
       <r>   -6.1265    1.0000 </r>
       <r>   -5.6988    1.0000 </r>
       <r>   -5.5115    1.0000 </r>
       <r>   -5.2660    1.0000 </r>
       <r>   -5.0016    1.0000 </r>
       <r>   -4.6487    1.0000 </r>
       <r>   -4.6149    1.0000 </r>
       <r>   -4.5833    1.0000 </r>
       <r>   -4.5438    1.0000 </r>
       <r>   -4.3992    1.0000 </r>
       <r>   -4.1569    1.0000 </r>
       <r>   -3.8469    1.0000 </r>
       <r>   -3.5649    1.0000 </r>
       <r>   -3.4421    1.0000 </r>
       <r>   -3.3890    1.0000 </r>
       <r>   -3.2086    1.0000 </r>
       <r>   -3.1635    1.0000 </r>
       <r>   -3.0300    1.0000 </r>
       <r>   -2.9679    1.0000 </r>
       <r>   -2.9283    1.0000 </r>
       <r>   -2.7649    1.0000 </r>
       <r>   -1.2919    0.0000 </r>
       <r>   -1.2436    0.0000 </r>
       <r>   -1.1646    0.0000 </r>
       <r>   -0.7136    0.0000 </r>
       <r>   -0.6762    0.0000 </r>
       <r>    0.0189    0.0000 </r>
       <r>    0.5200    0.0000 </r>
       <r>    0.9042    0.0000 </r>
       <r>    1.4207    0.0000 </r>
       <r>    1.6443    0.0000 </r>
       <r>    1.7631    0.0000 </r>
       <r>    2.5388    0.0000 </r>
       <r>    2.7141    0.0000 </r>
       <r>    2.7525    0.0000 </r>
       <r>    2.8589    0.0000 </r>
       <r>    2.9126    0.0000 </r>
       <r>    3.4231    0.0000 </r>
      </set>
     </set>
     <set comment="spin 2">
      <set comment="kpoint 1">
       <r>  -14.6716    1.0000 </r>
       <r>  -13.8095    1.0000 </r>
       <r>  -12.7821    1.0000 </r>
       <r>  -12.7820    1.0000 </r>
       <r>  -12.6984    1.0000 </r>
       <r>  -12.6984    1.0000 </r>
       <r>  -10.7483    1.0000 </r>
       <r>   -8.5127    1.0000 </r>
       <r>   -6.4999    1.0000 </r>
       <r>   -6.4999    1.0000 </r>
       <r>   -6.3271    1.0000 </r>
       <r>   -6.2927    1.0000 </r>
       <r>   -6.0644    1.0000 </r>
       <r>   -6.0643    1.0000 </r>
       <r>   -5.2748    1.0000 </r>
       <r>   -3.9102    1.0000 </r>
       <r>   -3.9102    1.0000 </r>
       <r>   -3.7445    1.0000 </r>
       <r>   -3.7170    1.0000 </r>
       <r>   -3.7170    1.0000 </r>
       <r>   -3.5789    1.0000 </r>
       <r>   -3.2132    1.0000 </r>
       <r>   -3.2132    1.0000 </r>
       <r>   -2.2144    1.0000 </r>
       <r>   -2.2144    1.0000 </r>
       <r>   -0.8790    0.0000 </r>
       <r>   -0.6768    0.0000 </r>
       <r>   -0.6768    0.0000 </r>
       <r>   -0.4272    0.0000 </r>
       <r>   -0.4272    0.0000 </r>
       <r>   -0.3700    0.0000 </r>
       <r>   -0.3628    0.0000 </r>
       <r>    0.0303    0.0000 </r>
       <r>    0.0304    0.0000 </r>
       <r>    0.2498    0.0000 </r>
       <r>    0.5999    0.0000 </r>
       <r>    0.5999    0.0000 </r>
       <r>    1.1655    0.0000 </r>
       <r>    1.1655    0.0000 </r>
       <r>    1.7229    0.0000 </r>
       <r>    1.9350    0.0000 </r>
       <r>    2.2999    0.0000 </r>
       <r>    2.3275    0.0000 </r>
       <r>    2.3305    0.0000 </r>
       <r>    2.3305    0.0000 </r>
       <r>    2.5717    0.0000 </r>
       <r>    3.4913    0.0000 </r>
       <r>    3.4914    0.0000 </r>
      </set>
      <set comment="kpoint 2">
       <r>  -14.5504    1.0000 </r>
       <r>  -13.7135    1.0000 </r>
       <r>  -13.0123    1.0000 </r>
       <r>  -12.8762    1.0000 </r>
       <r>  -12.7888    1.0000 </r>
       <r>  -12.7594    1.0000 </r>
       <r>  -10.5908    1.0000 </r>
       <r>   -8.5536    1.0000 </r>
       <r>   -6.5780    1.0000 </r>
       <r>   -6.5307    1.0000 </r>
       <r>   -6.2692    1.0000 </r>
       <r>   -6.0376    1.0000 </r>
       <r>   -5.6368    1.0000 </r>
       <r>   -5.3821    1.0000 </r>
       <r>   -4.9053    1.0000 </r>
       <r>   -4.4005    1.0000 </r>
       <r>   -4.0759    1.0000 </r>
       <r>   -3.9683    1.0000 </r>
       <r>   -3.9225    1.0000 </r>
       <r>   -3.5707    1.0000 </r>
       <r>   -3.4422    1.0000 </r>
       <r>   -3.3870    1.0000 </r>
       <r>   -3.3552    1.0000 </r>
       <r>   -3.0171    1.0000 </r>
       <r>   -2.5626    1.0000 </r>
       <r>   -0.8866    0.0000 </r>
       <r>   -0.6804    0.0000 </r>
       <r>   -0.6356    0.0000 </r>
       <r>   -0.4806    0.0000 </r>
       <r>   -0.4177    0.0000 </r>
       <r>   -0.3996    0.0000 </r>
       <r>   -0.3340    0.0000 </r>
       <r>    0.1653    0.0000 </r>
       <r>    0.1952    0.0000 </r>
       <r>    0.2446    0.0000 </r>
       <r>    0.4945    0.0000 </r>
       <r>    0.7340    0.0000 </r>
       <r>    1.1006    0.0000 </r>
       <r>    1.2850    0.0000 </r>
       <r>    1.8704    0.0000 </r>
       <r>    2.0274    0.0000 </r>
       <r>    2.0950    0.0000 </r>
       <r>    2.2947    0.0000 </r>
       <r>    2.4384    0.0000 </r>
       <r>    2.5972    0.0000 </r>
       <r>    2.7437    0.0000 </r>
       <r>    3.3170    0.0000 </r>
       <r>    3.4915    0.0000 </r>
      </set>
      <set comment="kpoint 3">
       <r>  -14.2350    1.0000 </r>
       <r>  -13.5148    1.0000 </r>
       <r>  -13.4628    1.0000 </r>
       <r>  -13.0362    1.0000 </r>
       <r>  -12.9530    1.0000 </r>
       <r>  -12.8841    1.0000 </r>
       <r>  -10.3645    1.0000 </r>
       <r>   -8.5621    1.0000 </r>
       <r>   -6.4794    1.0000 </r>
       <r>   -6.3617    1.0000 </r>
       <r>   -5.8012    1.0000 </r>
       <r>   -5.5261    1.0000 </r>
       <r>   -5.0699    1.0000 </r>
       <r>   -4.9109    1.0000 </r>
       <r>   -4.7814    1.0000 </r>
       <r>   -4.6388    1.0000 </r>
       <r>   -4.3341    1.0000 </r>
       <r>   -4.2951    1.0000 </r>
       <r>   -4.1053    1.0000 </r>
       <r>   -3.9952    1.0000 </r>
       <r>   -3.6699    1.0000 </r>
       <r>   -3.5300    1.0000 </r>
       <r>   -3.2649    1.0000 </r>
       <r>   -3.1765    1.0000 </r>
       <r>   -3.0339    1.0000 </r>
       <r>   -1.5306    0.0000 </r>
       <r>   -0.6805    0.0000 </r>
       <r>   -0.6622    0.0000 </r>
       <r>   -0.5941    0.0000 </r>
       <r>   -0.4171    0.0000 </r>
       <r>   -0.3847    0.0000 </r>
       <r>   -0.3120    0.0000 </r>
       <r>   -0.1253    0.0000 </r>
       <r>    0.1522    0.0000 </r>
       <r>    0.3756    0.0000 </r>
       <r>    0.4221    0.0000 </r>
       <r>    0.8334    0.0000 </r>
       <r>    0.9179    0.0000 </r>
       <r>    1.6769    0.0000 </r>
       <r>    1.8485    0.0000 </r>
       <r>    2.0551    0.0000 </r>
       <r>    2.3128    0.0000 </r>
       <r>    2.3921    0.0000 </r>
       <r>    2.4157    0.0000 </r>
       <r>    2.5802    0.0000 </r>
       <r>    3.0529    0.0000 </r>
       <r>    3.0632    0.0000 </r>
       <r>    3.2534    0.0000 </r>
      </set>
      <set comment="kpoint 4">
       <r>  -14.3268    1.0000 </r>
       <r>  -13.5404    1.0000 </r>
       <r>  -13.2747    1.0000 </r>
       <r>  -13.1269    1.0000 </r>
       <r>  -12.9211    1.0000 </r>
       <r>  -12.8369    1.0000 </r>
       <r>  -10.3841    1.0000 </r>
       <r>   -8.5404    1.0000 </r>
       <r>   -6.6606    1.0000 </r>
       <r>   -6.2646    1.0000 </r>
       <r>   -6.0660    1.0000 </r>
       <r>   -5.6703    1.0000 </r>
       <r>   -4.9947    1.0000 </r>
       <r>   -4.8119    1.0000 </r>
       <r>   -4.7329    1.0000 </r>
       <r>   -4.5259    1.0000 </r>
       <r>   -4.5241    1.0000 </r>
       <r>   -4.3394    1.0000 </r>
       <r>   -4.2920    1.0000 </r>
       <r>   -3.8703    1.0000 </r>
       <r>   -3.5755    1.0000 </r>
       <r>   -3.3889    1.0000 </r>
       <r>   -3.3117    1.0000 </r>
       <r>   -3.0047    1.0000 </r>
       <r>   -2.8687    1.0000 </r>
       <r>   -1.3918    0.0000 </r>
       <r>   -0.8498    0.0000 </r>
       <r>   -0.6970    0.0000 </r>
       <r>   -0.6674    0.0000 </r>
       <r>   -0.3618    0.0000 </r>
       <r>   -0.3040    0.0000 </r>
       <r>   -0.2687    0.0000 </r>
       <r>    0.0356    0.0000 </r>
       <r>    0.2182    0.0000 </r>
       <r>    0.2809    0.0000 </r>
       <r>    0.3610    0.0000 </r>
       <r>    0.7424    0.0000 </r>
       <r>    1.0979    0.0000 </r>
       <r>    1.2210    0.0000 </r>
       <r>    1.9183    0.0000 </r>
       <r>    2.0136    0.0000 </r>
       <r>    2.2022    0.0000 </r>
       <r>    2.3071    0.0000 </r>
       <r>    2.4669    0.0000 </r>
       <r>    2.7281    0.0000 </r>
       <r>    3.0614    0.0000 </r>
[...]
        <r>  0.0014  0.0013  0.0002  0.0004  0.0276  0.0363  0.0527  0.0285  0.0248 </r>
        <r>  0.0431  0.0035  0.0044  0.0011  0.0000  0.0000  0.0000  0.0000  0.0000 </r>
        <r>  0.0346  0.0064  0.0050  0.0022  0.0005  0.0000  0.0001  0.0000  0.0002 </r>
        <r>  0.0024  0.0004  0.0018  0.0267  0.0012  0.0000  0.0003  0.0004  0.0002 </r>
        <r>  0.0005  0.0134  0.0053  0.0044  0.0034  0.0001  0.0012  0.0000  0.0012 </r>
        <r>  0.0025  0.0175  0.0018  0.0098  0.0001  0.0004  0.0004  0.0000  0.0012 </r>
        <r>  0.0031  0.0006  0.0011  0.0237  0.0013  0.0001  0.0007  0.0001  0.0010 </r>
        <r>  0.0016  0.0156  0.0069  0.0052  0.0051  0.0001  0.0009  0.0000  0.0016 </r>
        <r>  0.0031  0.0144  0.0010  0.0099  0.0003  0.0001  0.0007  0.0001  0.0020 </r>
       </set>
       <set comment="band 30">
        <r>  0.0001  0.0003  0.0000  0.0002  0.1464  0.0074  0.0277  0.0143  0.2275 </r>
        <r>  0.0001  0.0004  0.0000  0.0001  0.1004  0.0145  0.0283  0.0077  0.2723 </r>
        <r>  0.0000  0.0000  0.0000  0.0000  0.0000  0.0000  0.0000  0.0000  0.0000 </r>
        <r>  0.0000  0.0004  0.0000  0.0011  0.0000  0.0000  0.0000  0.0000  0.0000 </r>
        <r>  0.0001  0.0014  0.0006  0.0004  0.0008  0.0002  0.0002  0.0000  0.0002 </r>
        <r>  0.0000  0.0008  0.0000  0.0024  0.0002  0.0001  0.0000  0.0004  0.0005 </r>
        <r>  0.0001  0.0008  0.0006  0.0009  0.0001  0.0001  0.0002  0.0001  0.0009 </r>
        <r>  0.0005  0.0027  0.0012  0.0000  0.0004  0.0001  0.0002  0.0000  0.0001 </r>
        <r>  0.0000  0.0009  0.0000  0.0026  0.0002  0.0003  0.0000  0.0009  0.0005 </r>
        <r>  0.0005  0.0007  0.0012  0.0019  0.0000  0.0000  0.0002  0.0000  0.0004 </r>
       </set>
       <set comment="band 31">
        <r>  0.0023  0.0001  0.0000  0.0004  0.0596  0.0016  0.2256  0.0004  0.1124 </r>
        <r>  0.0022  0.0002  0.0000  0.0004  0.0846  0.0014  0.2217  0.0007  0.0921 </r>
        <r>  0.0021  0.0037  0.0013  0.0013  0.0000  0.0000  0.0000  0.0000  0.0000 </r>
        <r>  0.0013  0.0055  0.0016  0.0020  0.0002  0.0000  0.0002  0.0000  0.0001 </r>
        <r>  0.0001  0.0009  0.0008  0.0010  0.0001  0.0006  0.0001  0.0003  0.0000 </r>
        <r>  0.0008  0.0006  0.0031  0.0002  0.0005  0.0000  0.0012  0.0000  0.0002 </r>
        <r>  0.0001  0.0005  0.0007  0.0014  0.0000  0.0000  0.0001  0.0008  0.0001 </r>
        <r>  0.0001  0.0011  0.0008  0.0009  0.0001  0.0005  0.0001  0.0002  0.0000 </r>
        <r>  0.0008  0.0009  0.0032  0.0003  0.0006  0.0000  0.0013  0.0000  0.0002 </r>
        <r>  0.0001  0.0002  0.0007  0.0018  0.0000  0.0001  0.0001  0.0007  0.0002 </r>
       </set>
       <set comment="band 32">
        <r>  0.0037  0.0003  0.0004  0.0005  0.1485  0.0083  0.1414  0.0044  0.0889 </r>
        <r>  0.0038  0.0001  0.0004  0.0007  0.1946  0.0041  0.1454  0.0083  0.0397 </r>
        <r>  0.0000  0.0025  0.0000  0.0073  0.0000  0.0000  0.0000  0.0000  0.0000 </r>
        <r>  0.0000  0.0039  0.0000  0.0112  0.0001  0.0000  0.0000  0.0001  0.0002 </r>
        <r>  0.0013  0.0032  0.0011  0.0012  0.0001  0.0005  0.0006  0.0000  0.0001 </r>
        <r>  0.0000  0.0002  0.0000  0.0005  0.0003  0.0004  0.0000  0.0011  0.0007 </r>
        <r>  0.0013  0.0007  0.0011  0.0037  0.0001  0.0001  0.0006  0.0005  0.0001 </r>
        <r>  0.0010  0.0024  0.0010  0.0015  0.0003  0.0006  0.0006  0.0000  0.0002 </r>
        <r>  0.0000  0.0004  0.0000  0.0013  0.0002  0.0002  0.0000  0.0007  0.0007 </r>
        <r>  0.0010  0.0004  0.0010  0.0034  0.0001  0.0001  0.0006  0.0006  0.0004 </r>
       </set>
       <set comment="band 33">
        <r>  0.0007  0.0001  0.0013  0.0001  0.0017  0.1631  0.0722  0.0671  0.0009 </r>
        <r>  0.0007  0.0000  0.0013  0.0002  0.0007  0.1589  0.0730  0.0702  0.0021 </r>
        <r>  0.0000  0.0016  0.0000  0.0049  0.0000  0.0000  0.0000  0.0000  0.0000 </r>
        <r>  0.0000  0.0029  0.0000  0.0090  0.0008  0.0001  0.0000  0.0004  0.0023 </r>
        <r>  0.0041  0.0037  0.0045  0.0093  0.0015  0.0007  0.0001  0.0004  0.0003 </r>
        <r>  0.0000  0.0012  0.0000  0.0037  0.0006  0.0003  0.0000  0.0010  0.0017 </r>
        <r>  0.0042  0.0036  0.0046  0.0093  0.0002  0.0000  0.0001  0.0010  0.0016 </r>
        <r>  0.0034  0.0024  0.0039  0.0082  0.0018  0.0006  0.0001  0.0003  0.0002 </r>
        <r>  0.0000  0.0010  0.0000  0.0031  0.0007  0.0003  0.0000  0.0008  0.0020 </r>
        <r>  0.0034  0.0038  0.0039  0.0069  0.0003  0.0001  0.0001  0.0008  0.0016 </r>
       </set>
       <set comment="band 34">
        <r>  0.0009  0.0001  0.0000  0.0002  0.0853  0.0383  0.0119  0.0991  0.0668 </r>
        <r>  0.0009  0.0002  0.0000  0.0001  0.0844  0.0438  0.0123  0.0923  0.0687 </r>
        <r>  0.0024  0.0017  0.0130  0.0006  0.0000  0.0000  0.0000  0.0000  0.0000 </r>
        <r>  0.0023  0.0022  0.0134  0.0007  0.0000  0.0000  0.0036  0.0000  0.0000 </r>
        <r>  0.0025  0.0014  0.0051  0.0004  0.0001  0.0003  0.0002  0.0019  0.0003 </r>
        <r>  0.0083  0.0015  0.0061  0.0005  0.0000  0.0012  0.0000  0.0004  0.0000 </r>
        <r>  0.0025  0.0005  0.0050  0.0013  0.0002  0.0010  0.0002  0.0012  0.0001 </r>
        <r>  0.0037  0.0007  0.0052  0.0013  0.0000  0.0002  0.0002  0.0021  0.0004 </r>
        <r>  0.0088  0.0009  0.0043  0.0003  0.0001  0.0011  0.0001  0.0004  0.0000 </r>
        <r>  0.0037  0.0013  0.0052  0.0007  0.0003  0.0012  0.0002  0.0012  0.0001 </r>
       </set>
       <set comment="band 35">
        <r>  0.0004  0.0002  0.0001  0.0001  0.0539  0.1394  0.0257  0.0967  0.0101 </r>
        <r>  0.0004  0.0002  0.0001  0.0001  0.0404  0.1082  0.0262  0.1266  0.0237 </r>
        <r>  0.0020  0.0005  0.0003  0.0001  0.0000  0.0000  0.0000  0.0000  0.0000 </r>
        <r>  0.0018  0.0005  0.0013  0.0002  0.0003  0.0003  0.0004  0.0001  0.0001 </r>
        <r>  0.0023  0.0079  0.0069  0.0003  0.0002  0.0016  0.0000  0.0003  0.0002 </r>
        <r>  0.0036  0.0184  0.0073  0.0062  0.0005  0.0002  0.0002  0.0001  0.0002 </r>
        <r>  0.0022  0.0022  0.0068  0.0058  0.0002  0.0012  0.0000  0.0007  0.0001 </r>
        <r>  0.0021  0.0077  0.0049  0.0003  0.0003  0.0015  0.0000  0.0004  0.0000 </r>
        <r>  0.0038  0.0193  0.0091  0.0063  0.0005  0.0002  0.0002  0.0001  0.0002 </r>
        <r>  0.0021  0.0030  0.0049  0.0053  0.0001  0.0013  0.0000  0.0006  0.0002 </r>
       </set>
       <set comment="band 36">
        <r>  0.0013  0.0006  0.0001  0.0003  0.0036  0.0836  0.0078  0.1936  0.0121 </r>
        <r>  0.0013  0.0004  0.0001  0.0004  0.0048  0.0758  0.0076  0.2045  0.0113 </r>
        <r>  0.0000  0.0008  0.0000  0.0025  0.0000  0.0000  0.0000  0.0000  0.0000 </r>
        <r>  0.0000  0.0015  0.0000  0.0043  0.0001  0.0001  0.0000  0.0003  0.0002 </r>
        <r>  0.0038  0.0218  0.0018  0.0019  0.0005  0.0005  0.0001  0.0001  0.0003 </r>
        <r>  0.0000  0.0062  0.0000  0.0186  0.0002  0.0009  0.0000  0.0028  0.0008 </r>
        <r>  0.0039  0.0026  0.0019  0.0215  0.0000  0.0000  0.0001  0.0006  0.0008 </r>
        <r>  0.0033  0.0219  0.0015  0.0018  0.0005  0.0005  0.0001  0.0002  0.0002 </r>
        <r>  0.0000  0.0056  0.0000  0.0172  0.0003  0.0008  0.0000  0.0025  0.0008 </r>
        <r>  0.0033  0.0021  0.0016  0.0214  0.0000  0.0000  0.0001  0.0006  0.0007 </r>
       </set>
       <set comment="band 37">
        <r>  0.0124  0.0005  0.0016  0.0009  0.0019  0.0137  0.0028  0.0123  0.0083 </r>
        <r>  0.0125  0.0003  0.0016  0.0011  0.0041  0.0153  0.0028  0.0111  0.0061 </r>
        <r>  0.0015  0.0296  0.0017  0.0100  0.0000  0.0000  0.0000  0.0000  0.0000 </r>
        <r>  0.0007  0.0542  0.0020  0.0182  0.0034  0.0052  0.0001  0.0018  0.0011 </r>
        <r>  0.0023  0.0013  0.0035  0.0097  0.0032  0.0013  0.0000  0.0008  0.0017 </r>
        <r>  0.0124  0.0315  0.0015  0.0104  0.0017  0.0030  0.0003  0.0010  0.0006 </r>
        <r>  0.0023  0.0049  0.0035  0.0059  0.0027  0.0004  0.0000  0.0017  0.0022 </r>
        <r>  0.0018  0.0011  0.0037  0.0088  0.0036  0.0014  0.0000  0.0008  0.0016 </r>
        <r>  0.0118  0.0242  0.0021  0.0080  0.0009  0.0032  0.0002  0.0011  0.0003 </r>
        <r>  0.0018  0.0046  0.0036  0.0052  0.0026  0.0004  0.0000  0.0018  0.0026 </r>
       </set>
       <set comment="band 38">
        <r>  0.0032  0.0001  0.0000  0.0011  0.0531  0.0758  0.0000  0.0549  0.0149 </r>
        <r>  0.0032  0.0006  0.0000  0.0007  0.0394  0.0932  0.0000  0.0381  0.0288 </r>
        <r>  0.0256  0.0016  0.0363  0.0005  0.0000  0.0000  0.0000  0.0000  0.0000 </r>
        <r>  0.0138  0.0047  0.0285  0.0015  0.0003  0.0003  0.0001  0.0001  0.0001 </r>
        <r>  0.0002  0.0001  0.0037  0.0173  0.0004  0.0007  0.0002  0.0004  0.0007 </r>
        <r>  0.0013  0.0132  0.0029  0.0045  0.0005  0.0003  0.0002  0.0001  0.0002 </r>
        <r>  0.0002  0.0118  0.0036  0.0056  0.0010  0.0009  0.0003  0.0002  0.0000 </r>
        <r>  0.0010  0.0007  0.0042  0.0265  0.0005  0.0004  0.0006  0.0002  0.0021 </r>
        <r>  0.0004  0.0218  0.0036  0.0073  0.0019  0.0002  0.0004  0.0001  0.0006 </r>
        <r>  0.0011  0.0162  0.0042  0.0108  0.0023  0.0005  0.0006  0.0001  0.0002 </r>
       </set>
       <set comment="band 39">
        <r>  0.0124  0.0020  0.0010  0.0015  0.0198  0.0292  0.0062  0.0208  0.0029 </r>
        <r>  0.0124  0.0024  0.0010  0.0011  0.0133  0.0406  0.0063  0.0099  0.0095 </r>
        <r>  0.0000  0.0060  0.0000  0.0181  0.0000  0.0000  0.0000  0.0000  0.0000 </r>
        <r>  0.0000  0.0147  0.0000  0.0439  0.0007  0.0019  0.0000  0.0057  0.0021 </r>
        <r>  0.0068  0.0226  0.0006  0.0322  0.0011  0.0014  0.0002  0.0022  0.0019 </r>
        <r>  0.0000  0.0040  0.0000  0.0120  0.0009  0.0001  0.0000  0.0003  0.0026 </r>
        <r>  0.0068  0.0525  0.0006  0.0023  0.0017  0.0029  0.0002  0.0007  0.0013 </r>
        <r>  0.0047  0.0174  0.0009  0.0187  0.0008  0.0016  0.0001  0.0025  0.0009 </r>
        <r>  0.0000  0.0026  0.0000  0.0078  0.0006  0.0002  0.0000  0.0005  0.0017 </r>
        <r>  0.0047  0.0333  0.0009  0.0029  0.0011  0.0032  0.0001  0.0009  0.0007 </r>
       </set>
       <set comment="band 40">
        <r>  0.0174  0.0002  0.0041  0.0003  0.0087  0.0043  0.0232  0.0085  0.0181 </r>
        <r>  0.0175  0.0001  0.0041  0.0004  0.0155  0.0022  0.0234  0.0106  0.0113 </r>
        <r>  0.0004  0.0408  0.0019  0.0136  0.0000  0.0000  0.0000  0.0000  0.0000 </r>
        <r>  0.0008  0.0506  0.0010  0.0168  0.0056  0.0006  0.0004  0.0002  0.0019 </r>
        <r>  0.0011  0.0018  0.0003  0.0003  0.0055  0.0000  0.0002  0.0000  0.0015 </r>
        <r>  0.0160  0.0157  0.0033  0.0053  0.0030  0.0004  0.0005  0.0001  0.0010 </r>
        <r>  0.0011  0.0003  0.0003  0.0018  0.0041  0.0000  0.0002  0.0000  0.0029 </r>
        <r>  0.0019  0.0024  0.0009  0.0002  0.0104  0.0001  0.0004  0.0001  0.0014 </r>
        <r>  0.0185  0.0170  0.0012  0.0057  0.0037  0.0009  0.0014  0.0003  0.0012 </r>
        <r>  0.0019  0.0004  0.0009  0.0022  0.0053  0.0001  0.0004  0.0000  0.0064 </r>
       </set>
       <set comment="band 41">
        <r>  0.0107  0.0010  0.0020  0.0000  0.0105  0.0170  0.0070  0.0139  0.0217 </r>
        <r>  0.0107  0.0004  0.0020  0.0006  0.0148  0.0119  0.0070  0.0191  0.0174 </r>
        <r>  0.0000  0.0129  0.0000  0.0389  0.0000  0.0000  0.0000  0.0000  0.0000 </r>
        <r>  0.0000  0.0115  0.0000  0.0347  0.0016  0.0003  0.0000  0.0008  0.0050 </r>
        <r>  0.0042  0.0048  0.0008  0.0124  0.0016  0.0002  0.0014  0.0002  0.0030 </r>
        <r>  0.0000  0.0026  0.0000  0.0079  0.0018  0.0001  0.0000  0.0004  0.0053 </r>
        <r>  0.0040  0.0164  0.0008  0.0007  0.0012  0.0000  0.0013  0.0004  0.0035 </r>
        <r>  0.0077  0.0091  0.0008  0.0201  0.0030  0.0000  0.0016  0.0001  0.0036 </r>
        <r>  0.0000  0.0043  0.0000  0.0130  0.0032  0.0001  0.0000  0.0002  0.0097 </r>
        <r>  0.0076  0.0284  0.0008  0.0008  0.0015  0.0001  0.0016  0.0001  0.0051 </r>
       </set>
       <set comment="band 42">
        <r>  0.0000  0.0059  0.0008  0.0036  0.0283  0.0031  0.0014  0.0049  0.0240 </r>
        <r>  0.0000  0.0067  0.0008  0.0028  0.0259  0.0031  0.0013  0.0049  0.0266 </r>
        <r>  0.0208  0.0001  0.0293  0.0000  0.0000  0.0000  0.0000  0.0000  0.0000 </r>
        <r>  0.0119  0.0017  0.0485  0.0006  0.0002  0.0000  0.0108  0.0000  0.0001 </r>
        <r>  0.0020  0.0003  0.0090  0.0004  0.0002  0.0008  0.0004  0.0048  0.0003 </r>
        <r>  0.0010  0.0011  0.0193  0.0003  0.0014  0.0022  0.0009  0.0007  0.0005 </r>
        <r>  0.0021  0.0001  0.0089  0.0006  0.0001  0.0055  0.0004  0.0002  0.0003 </r>
        <r>  0.0010  0.0002  0.0082  0.0008  0.0001  0.0009  0.0007  0.0059  0.0001 </r>
        <r>  0.0011  0.0001  0.0190  0.0000  0.0003  0.0036  0.0005  0.0012  0.0001 </r>
        <r>  0.0011  0.0005  0.0082  0.0006  0.0000  0.0066  0.0007  0.0003  0.0001 </r>
       </set>
       <set comment="band 43">
        <r>  0.0002  0.0008  0.0011  0.0024  0.0001  0.0028  0.0042  0.0022  0.0005 </r>
        <r>  0.0002  0.0008  0.0011  0.0023  0.0002  0.0031  0.0042  0.0018  0.0003 </r>
        <r>  0.0005  0.0009  0.0032  0.0003  0.0000  0.0000  0.0000  0.0000  0.0000 </r>
        <r>  0.0011  0.0030  0.0040  0.0010  0.0002  0.0000  0.0026  0.0000  0.0001 </r>
        <r>  0.0004  0.0002  0.0027  0.0029  0.0003  0.0002  0.0005  0.0005  0.0002 </r>
        <r>  0.0012  0.0027  0.0057  0.0009  0.0003  0.0009  0.0037  0.0003  0.0001 </r>
        <r>  0.0004  0.0017  0.0027  0.0013  0.0003  0.0002  0.0005  0.0005  0.0002 </r>
        <r>  0.0005  0.0001  0.0035  0.0024  0.0006  0.0006  0.0004  0.0003  0.0001 </r>
        <r>  0.0014  0.0021  0.0021  0.0007  0.0002  0.0009  0.0034  0.0003  0.0001 </r>
        <r>  0.0005  0.0013  0.0035  0.0012  0.0002  0.0003  0.0004  0.0006  0.0005 </r>
       </set>
       <set comment="band 44">
        <r>  0.0254  0.0020  0.0050  0.0025  0.0035  0.0035  0.0079  0.0009  0.0099 </r>
        <r>  0.0253  0.0020  0.0050  0.0025  0.0073  0.0031  0.0078  0.0014  0.0063 </r>
        <r>  0.0008  0.0056  0.0003  0.0019  0.0000  0.0000  0.0000  0.0000  0.0000 </r>
        <r>  0.0002  0.0113  0.0013  0.0038  0.0011  0.0003  0.0007  0.0001  0.0004 </r>
        <r>  0.0001  0.0044  0.0006  0.0011  0.0012  0.0075  0.0004  0.0007  0.0005 </r>
        <r>  0.0016  0.0041  0.0085  0.0013  0.0002  0.0003  0.0039  0.0001  0.0001 </r>
        <r>  0.0001  0.0001  0.0006  0.0054  0.0013  0.0043  0.0004  0.0040  0.0004 </r>
        <r>  0.0004  0.0037  0.0004  0.0013  0.0032  0.0126  0.0003  0.0006  0.0000 </r>
        <r>  0.0008  0.0047  0.0193  0.0015  0.0005  0.0029  0.0030  0.0010  0.0002 </r>
        <r>  0.0004  0.0002  0.0003  0.0048  0.0010  0.0047  0.0003  0.0086  0.0022 </r>
       </set>
       <set comment="band 45">
        <r>  0.0029  0.0027  0.0029  0.0014  0.0045  0.0015  0.0007  0.0009  0.0055 </r>
        <r>  0.0029  0.0028  0.0030  0.0013  0.0043  0.0014  0.0008  0.0009  0.0055 </r>
        <r>  0.0000  0.0009  0.0000  0.0025  0.0000  0.0000  0.0000  0.0000  0.0000 </r>
        <r>  0.0000  0.0015  0.0000  0.0042  0.0002  0.0000  0.0000  0.0000  0.0005 </r>
        <r>  0.0013  0.0015  0.0084  0.0025  0.0003  0.0012  0.0022  0.0012  0.0006 </r>
        <r>  0.0000  0.0007  0.0000  0.0023  0.0003  0.0010  0.0000  0.0029  0.0008 </r>
        <r>  0.0013  0.0036  0.0084  0.0003  0.0003  0.0002  0.0022  0.0020  0.0006 </r>
        <r>  0.0009  0.0011  0.0092  0.0022  0.0004  0.0013  0.0016  0.0014  0.0005 </r>
        <r>  0.0000  0.0007  0.0000  0.0022  0.0003  0.0012  0.0000  0.0036  0.0010 </r>
        <r>  0.0009  0.0029  0.0093  0.0004  0.0003  0.0003  0.0017  0.0023  0.0006 </r>
       </set>
       <set comment="band 46">
        <r>  0.0015  0.0005  0.0004  0.0008  0.0003  0.0001  0.0105  0.0000  0.0010 </r>
        <r>  0.0015  0.0005  0.0004  0.0009  0.0005  0.0001  0.0106  0.0000  0.0007 </r>
        <r>  0.0000  0.0008  0.0000  0.0024  0.0000  0.0000  0.0000  0.0000  0.0000 </r>
        <r>  0.0000  0.0010  0.0000  0.0029  0.0001  0.0001  0.0000  0.0004  0.0004 </r>
        <r>  0.0012  0.0007  0.0023  0.0024  0.0001  0.0000  0.0023  0.0000  0.0006 </r>
        <r>  0.0000  0.0004  0.0000  0.0011  0.0003  0.0000  0.0000  0.0001  0.0008 </r>
        <r>  0.0012  0.0028  0.0023  0.0004  0.0003  0.0000  0.0023  0.0000  0.0004 </r>
        <r>  0.0012  0.0013  0.0029  0.0026  0.0002  0.0000  0.0027  0.0000  0.0004 </r>
        <r>  0.0000  0.0005  0.0000  0.0015  0.0003  0.0001  0.0000  0.0002  0.0010 </r>
        <r>  0.0012  0.0034  0.0029  0.0006  0.0001  0.0000  0.0027  0.0000  0.0005 </r>
       </set>
       <set comment="band 47">
        <r>  0.0229  0.0011  0.0031  0.0021  0.0030  0.0007  0.0001  0.0012  0.0039 </r>
        <r>  0.0230  0.0015  0.0031  0.0017  0.0007  0.0017  0.0001  0.0003  0.0062 </r>
        <r>  0.0020  0.0075  0.0059  0.0025  0.0000  0.0000  0.0000  0.0000  0.0000 </r>
        <r>  0.0009  0.0020  0.0066  0.0007  0.0015  0.0018  0.0025  0.0006  0.0005 </r>
        <r>  0.0004  0.0013  0.0047  0.0003  0.0018  0.0084  0.0001  0.0003  0.0002 </r>
        <r>  0.0000  0.0017  0.0142  0.0006  0.0018  0.0047  0.0013  0.0016  0.0006 </r>
        <r>  0.0005  0.0002  0.0047  0.0014  0.0002  0.0034  0.0001  0.0052  0.0018 </r>
        <r>  0.0002  0.0028  0.0042  0.0009  0.0005  0.0033  0.0000  0.0000  0.0005 </r>
        <r>  0.0006  0.0028  0.0027  0.0009  0.0021  0.0036  0.0019  0.0012  0.0007 </r>
        <r>  0.0002  0.0001  0.0042  0.0036  0.0001  0.0007  0.0000  0.0027  0.0009 </r>
       </set>
       <set comment="band 48">
        <r>  0.0031  0.0009  0.0117  0.0003  0.0015  0.0004  0.0028  0.0001  0.0049 </r>
        <r>  0.0031  0.0008  0.0117  0.0003  0.0031  0.0002  0.0028  0.0002  0.0034 </r>
        <r>  0.0032  0.0042  0.0081  0.0014  0.0000  0.0000  0.0000  0.0000  0.0000 </r>
        <r>  0.0032  0.0006  0.0128  0.0002  0.0028  0.0056  0.0010  0.0019  0.0009 </r>
        <r>  0.0002  0.0001  0.0013  0.0013  0.0046  0.0028  0.0012  0.0012  0.0006 </r>
        <r>  0.0010  0.0008  0.0036  0.0003  0.0032  0.0024  0.0009  0.0008  0.0011 </r>
        <r>  0.0002  0.0009  0.0013  0.0005  0.0016  0.0002  0.0012  0.0038  0.0036 </r>
        <r>  0.0000  0.0002  0.0015  0.0012  0.0033  0.0018  0.0005  0.0030  0.0011 </r>
        <r>  0.0004  0.0006  0.0022  0.0002  0.0034  0.0030  0.0009  0.0010  0.0011 </r>
        <r>  0.0000  0.0007  0.0015  0.0007  0.0006  0.0009  0.0005  0.0039  0.0038 </r>
       </set>
      </set>
     </set>
    </set>
   </array>
  </projected>
 </calculation>
 <structure name="finalpos" >
  <crystal>
   <varray name="basis" >
    <v>       6.86312343      -0.00000005      -0.00000000 </v>
    <v>       3.43156127       5.94363886       0.00000000 </v>
    <v>       0.00000000       0.00000000      23.44155928 </v>
   </varray>
   <i name="volume">    956.22638164 </i>
   <varray name="rec_basis" >
    <v>       0.14570625      -0.08412354      -0.00000000 </v>
    <v>       0.00000000       0.16824710      -0.00000000 </v>
    <v>       0.00000000      -0.00000000       0.04265928 </v>
   </varray>
  </crystal>
  <varray name="positions" >
   <v>       0.33333300       0.33333300       0.50016279 </v>
   <v>       0.66666700       0.66666700       0.50031204 </v>
   <v>       0.00000000      -0.00000000       0.44865330 </v>
   <v>       0.00000000      -0.00000000       0.54941341 </v>
   <v>       0.62384906       0.00018786       0.57440003 </v>
   <v>       0.00018786       0.37596408       0.57440003 </v>
   <v>       0.37596408       0.62384906       0.57440003 </v>
   <v>       0.36342450       0.99981967       0.42608612 </v>
   <v>       0.99981967       0.63675484       0.42608612 </v>
   <v>       0.63675484       0.36342450       0.42608612 </v>
  </varray>
 </structure>
</modeling>
