unknown system                          
           1
     6.907777   -0.000000    0.000000
     3.453888    5.982310    0.000000
     0.000000    0.000000   23.444588
   Cr   Si   Ge   Te
   2   1   1   6
Direct configuration=     1
   0.33333300  0.33333300  0.49992500
   0.66666700  0.66666700  0.50007500
   0.00000000  0.00000000  0.44821600
   0.00000000  0.00000000  0.55178400
   0.62635700  0.00042000  0.57375200
   0.00042000  0.37322400  0.57375200
   0.37322400  0.62635700  0.57375200
   0.37364300  0.99958000  0.42624800
   0.99958000  0.62677600  0.42624800
   0.62677600  0.37364300  0.42624800
unknown system                          
           1
     6.844565   -0.000000    0.000000
     3.422282    5.927566    0.000000
     0.000000   -0.000000   23.259892
   Cr   Si   Ge   Te
   2   1   1   6
Direct configuration=     2
   0.33333300  0.33333300  0.50000573
   0.66666700  0.66666700  0.50017043
   0.00000000 -0.00000000  0.44883662
   0.00000000 -0.00000000  0.55042727
   0.62555973  0.00032802  0.57380065
   0.00032802  0.37411325  0.57380065
   0.37411325  0.62555973  0.57380065
   0.37001861  0.99965569  0.42638600
   0.99965569  0.63032471  0.42638600
   0.63032471  0.37001861  0.42638600
unknown system                          
           1
     6.844109   -0.000000    0.000000
     3.422054    5.927172    0.000000
     0.000000   -0.000000   23.258562
   Cr   Si   Ge   Te
   2   1   1   6
Direct configuration=     3
   0.33333300  0.33333300  0.50000632
   0.66666700  0.66666700  0.50017113
   0.00000000 -0.00000000  0.44884112
   0.00000000 -0.00000000  0.55041742
   0.62555394  0.00032735  0.57380101
   0.00032735  0.37411972  0.57380101
   0.37411972  0.62555394  0.57380101
   0.36999226  0.99965624  0.42638700
   0.99965624  0.63035050  0.42638700
   0.63035050  0.36999226  0.42638700
unknown system                          
           1
     6.854390   -0.000000   -0.000000
     3.427195    5.936076    0.000000
     0.000000   -0.000000   23.335691
   Cr   Si   Ge   Te
   2   1   1   6
Direct configuration=     4
   0.33333300  0.33333300  0.50008733
   0.66666700  0.66666700  0.50025649
   0.00000000 -0.00000000  0.44886839
   0.00000000 -0.00000000  0.54963002
   0.62445762  0.00025334  0.57416334
   0.00025334  0.37529004  0.57416334
   0.37529004  0.62445762  0.57416334
   0.36626768  0.99974932  0.42622259
   0.99974932  0.63398200  0.42622259
   0.63398200  0.36626768  0.42622259
unknown system                          
           1
     6.861453   -0.000000   -0.000000
     3.430726    5.942192    0.000000
     0.000000    0.000000   23.388678
   Cr   Si   Ge   Te
   2   1   1   6
Direct configuration=     5
   0.33333300  0.33333300  0.50014281
   0.66666700  0.66666700  0.50031494
   0.00000000 -0.00000000  0.44888706
   0.00000000 -0.00000000  0.54909087
   0.62370559  0.00020258  0.57441143
   0.00020258  0.37609283  0.57441143
   0.37609283  0.62370559  0.57441143
   0.36371277  0.99981317  0.42611001
   0.99981317  0.63647305  0.42611001
   0.63647305  0.36371277  0.42611001
unknown system                          
           1
     6.864321   -0.000000   -0.000000
     3.432160    5.944676   -0.000000
     0.000000    0.000000   23.479482
   Cr   Si   Ge   Te
   2   1   1   6
Direct configuration=     6
   0.33333300  0.33333300  0.50017702
   0.66666700  0.66666700  0.50030997
   0.00000000 -0.00000000  0.44848678
   0.00000000 -0.00000000  0.54964318
   0.62395188  0.00017731  0.57439191
   0.00017731  0.37587181  0.57439191
   0.37587181  0.62395188  0.57439191
   0.36321791  0.99982432  0.42606911
   0.99982432  0.63695677  0.42606911
   0.63695677  0.36321791  0.42606911
unknown system                          
           1
     6.863123   -0.000000   -0.000000
     3.431561    5.943639    0.000000
     0.000000    0.000000   23.441559
   Cr   Si   Ge   Te
   2   1   1   6
Direct configuration=     7
   0.33333300  0.33333300  0.50016279
   0.66666700  0.66666700  0.50031204
   0.00000000 -0.00000000  0.44865330
   0.00000000 -0.00000000  0.54941341
   0.62384906  0.00018786  0.57440003
   0.00018786  0.37596408  0.57440003
   0.37596408  0.62384906  0.57440003
   0.36342450  0.99981967  0.42608612
   0.99981967  0.63675484  0.42608612
   0.63675484  0.36342450  0.42608612
