       N       E                     dE             d eps       ncg     rms          rms(c)
DAV:   1     0.408526026821E+03    0.40853E+03   -0.16679E+04   960   0.832E+02
DAV:   2     0.371831748149E+02   -0.37134E+03   -0.33721E+03  1152   0.166E+02
DAV:   3    -0.501114098725E+02   -0.87295E+02   -0.82645E+02  1408   0.820E+01
DAV:   4    -0.553932507460E+02   -0.52818E+01   -0.51685E+01  1344   0.285E+01
DAV:   5    -0.555244812973E+02   -0.13123E+00   -0.13095E+00  1328   0.435E+00    0.311E+01
DAV:   6    -0.132144811774E+03   -0.76620E+02   -0.31026E+02  1312   0.816E+01    0.640E+01
DAV:   7    -0.424069967079E+02    0.89738E+02   -0.14650E+02  1152   0.111E+02    0.190E+01
DAV:   8    -0.131454853263E+03   -0.89048E+02   -0.85368E+02  1664   0.171E+01    0.246E+01
DAV:   9    -0.876172800080E+02    0.43838E+02   -0.14753E+03  1280   0.385E+01    0.184E+01
DAV:  10    -0.452371118936E+02    0.42380E+02   -0.60723E+02  1184   0.223E+01    0.108E+01
DAV:  11    -0.473974316134E+02   -0.21603E+01   -0.17565E+00  1488   0.940E+00    0.413E+00
DAV:  12    -0.478486472808E+02   -0.45122E+00   -0.85697E-01  1440   0.682E+00    0.330E+00
DAV:  13    -0.479707609965E+02   -0.12211E+00   -0.23996E-01  1504   0.641E+00    0.372E+00
DAV:  14    -0.480627915235E+02   -0.92031E-01   -0.11366E-01  1536   0.385E+00    0.320E+00
DAV:  15    -0.482286420759E+02   -0.16585E+00   -0.85025E-02  1344   0.192E+00    0.218E+00
DAV:  16    -0.483839397006E+02   -0.15530E+00   -0.67256E-02  1296   0.144E+00    0.978E-01
DAV:  17    -0.484306553596E+02   -0.46716E-01   -0.28500E-02  1008   0.807E-01    0.767E-01
DAV:  18    -0.484398326300E+02   -0.91773E-02   -0.61748E-03  1280   0.485E-01    0.632E-01
DAV:  19    -0.484445714954E+02   -0.47389E-02   -0.13176E-03  1344   0.287E-01    0.593E-01
DAV:  20    -0.484487811073E+02   -0.42096E-02   -0.58990E-04  1024   0.217E-01    0.557E-01
DAV:  21    -0.484530322198E+02   -0.42511E-02   -0.24851E-04   928   0.139E-01    0.517E-01
DAV:  22    -0.484565273058E+02   -0.34951E-02   -0.76764E-05   880   0.708E-02    0.486E-01
DAV:  23    -0.484619169323E+02   -0.53896E-02   -0.15400E-04   960   0.734E-02    0.439E-01
DAV:  24    -0.484656390943E+02   -0.37222E-02   -0.13388E-04   960   0.615E-02    0.406E-01
DAV:  25    -0.484673795103E+02   -0.17404E-02   -0.61494E-05   800   0.393E-02    0.391E-01
DAV:  26    -0.484683472784E+02   -0.96777E-03   -0.34424E-05   880   0.268E-02    0.382E-01
DAV:  27    -0.484691939465E+02   -0.84667E-03   -0.22119E-05   736   0.212E-02    0.374E-01
DAV:  28    -0.484712301966E+02   -0.20363E-02   -0.11500E-04  1008   0.356E-02    0.355E-01
DAV:  29    -0.484744967439E+02   -0.32665E-02   -0.24572E-04   944   0.580E-02    0.324E-01
DAV:  30    -0.484773283400E+02   -0.28316E-02   -0.82667E-05   992   0.384E-02    0.298E-01
DAV:  31    -0.484807502507E+02   -0.34219E-02   -0.92276E-05   912   0.436E-02    0.268E-01
DAV:  32    -0.484835303670E+02   -0.27801E-02   -0.72845E-05   880   0.390E-02    0.244E-01
DAV:  33    -0.484864607781E+02   -0.29304E-02   -0.12616E-04   944   0.464E-02    0.219E-01
DAV:  34    -0.484891599721E+02   -0.26992E-02   -0.14491E-04  1008   0.492E-02    0.195E-01
DAV:  35    -0.484915142816E+02   -0.23543E-02   -0.83075E-05   976   0.387E-02    0.175E-01
DAV:  36    -0.484936532331E+02   -0.21390E-02   -0.10057E-04   928   0.456E-02    0.156E-01
DAV:  37    -0.484956827331E+02   -0.20295E-02   -0.34073E-05   832   0.304E-02    0.140E-01
DAV:  38    -0.484983725132E+02   -0.26898E-02   -0.65632E-05   912   0.398E-02    0.119E-01
DAV:  39    -0.485015241827E+02   -0.31517E-02   -0.11641E-04   960   0.527E-02    0.962E-02
DAV:  40    -0.485039031997E+02   -0.23790E-02   -0.11053E-04   864   0.560E-02    0.779E-02
DAV:  41    -0.485057265076E+02   -0.18233E-02   -0.10881E-04  1056   0.553E-02    0.683E-02
DAV:  42    -0.485062026445E+02   -0.47614E-03   -0.22000E-05   768   0.245E-02    0.660E-02
DAV:  43    -0.485063973327E+02   -0.19469E-03   -0.79791E-06   816   0.140E-02    0.650E-02
DAV:  44    -0.485066197949E+02   -0.22246E-03   -0.59957E-06   800   0.131E-02    0.642E-02
DAV:  45    -0.485068832336E+02   -0.26344E-03   -0.68025E-06   864   0.141E-02    0.628E-02
DAV:  46    -0.485069678494E+02   -0.84616E-04   -0.31134E-06   704   0.875E-03
   1 F= -.48506968E+02 E0= -.48506968E+02  d E =-.485070E+02  mag=     7.0004
       N       E                     dE             d eps       ncg     rms          rms(c)
DAV:   1    -0.876459029308E+02   -0.39139E+02   -0.80999E+02  1232   0.150E+02    0.382E+01
DAV:   2    -0.745467876823E+02    0.13099E+02   -0.22833E+02  1360   0.779E+01    0.426E+01
DAV:   3    -0.701926433469E+02    0.43541E+01   -0.43411E+02  1552   0.193E+02    0.319E+01
DAV:   4    -0.552402393859E+02    0.14952E+02   -0.52026E+01  1328   0.285E+01    0.123E+01
DAV:   5    -0.543853763976E+02    0.85486E+00   -0.36930E+00  1472   0.105E+01    0.920E+00
DAV:   6    -0.549698518715E+02   -0.58448E+00   -0.21026E+00  1248   0.780E+00    0.952E+00
DAV:   7    -0.547923353247E+02    0.17752E+00   -0.40119E-01  1232   0.415E+00    0.105E+01
DAV:   8    -0.554339881511E+02   -0.64165E+00   -0.26145E-01  1232   0.404E+00    0.929E+00
DAV:   9    -0.559194450047E+02   -0.48546E+00   -0.41974E+00  1328   0.119E+01    0.330E+00
DAV:  10    -0.559320804588E+02   -0.12635E-01   -0.32746E-01  1376   0.403E+00    0.112E+00
DAV:  11    -0.559338205989E+02   -0.17401E-02   -0.65246E-02  1472   0.127E+00    0.623E-01
DAV:  12    -0.559488246268E+02   -0.15004E-01   -0.24908E-02  1312   0.842E-01    0.276E-01
DAV:  13    -0.559588585507E+02   -0.10034E-01   -0.78664E-03  1104   0.604E-01    0.126E-01
DAV:  14    -0.559625587589E+02   -0.37002E-02   -0.20150E-03  1008   0.210E-01    0.906E-02
DAV:  15    -0.559638515945E+02   -0.12928E-02   -0.61313E-04  1040   0.146E-01    0.602E-02
DAV:  16    -0.559647542404E+02   -0.90265E-03   -0.51214E-04   992   0.108E-01    0.395E-02
DAV:  17    -0.559654432101E+02   -0.68897E-03   -0.48503E-04  1056   0.951E-02    0.354E-02
DAV:  18    -0.559654260523E+02    0.17158E-04   -0.22947E-04   944   0.649E-02
   2 F= -.55965426E+02 E0= -.55965426E+02  d E =-.745846E+01  mag=     5.2100
       N       E                     dE             d eps       ncg     rms          rms(c)
DAV:   1    -0.560226625720E+02   -0.57219E-01   -0.14807E+00  1168   0.671E+00    0.124E+00
DAV:   2    -0.559879113769E+02    0.34751E-01   -0.95540E-02  1264   0.214E+00    0.601E-01
DAV:   3    -0.559835421141E+02    0.43693E-02   -0.48914E-02  1488   0.188E+00    0.569E-01
DAV:   4    -0.559779465143E+02    0.55956E-02   -0.25984E-02  1440   0.158E+00    0.139E-01
DAV:   5    -0.559776988087E+02    0.24771E-03   -0.23269E-03  1360   0.450E-01    0.626E-02
DAV:   6    -0.559777645338E+02   -0.65725E-04   -0.60088E-04  1104   0.245E-01
   3 F= -.55977765E+02 E0= -.55977765E+02  d E =-.747080E+01  mag=     5.2172
       N       E                     dE             d eps       ncg     rms          rms(c)
DAV:   1    -0.560428428129E+02   -0.65144E-01   -0.89410E+00   992   0.100E+01    0.103E+00
DAV:   2    -0.560905373743E+02   -0.47695E-01   -0.74199E-01  1312   0.404E+00    0.668E-01
DAV:   3    -0.560797908217E+02    0.10747E-01   -0.30598E-02  1392   0.141E+00    0.423E-01
DAV:   4    -0.560768022126E+02    0.29886E-02   -0.22715E-02  1344   0.141E+00    0.378E-01
DAV:   5    -0.560732855919E+02    0.35166E-02   -0.12899E-02  1520   0.104E+00    0.121E-01
DAV:   6    -0.560731567206E+02    0.12887E-03   -0.24493E-03  1440   0.490E-01    0.110E-01
DAV:   7    -0.560728698915E+02    0.28683E-03   -0.69336E-04  1216   0.288E-01    0.539E-02
DAV:   8    -0.560727281433E+02    0.14175E-03   -0.34119E-04  1152   0.107E-01    0.310E-02
DAV:   9    -0.560726491657E+02    0.78978E-04   -0.58499E-05   896   0.412E-02
   4 F= -.56072649E+02 E0= -.56072649E+02  d E =-.948846E-01  mag=     5.3003
       N       E                     dE             d eps       ncg     rms          rms(c)
DAV:   1    -0.560730311221E+02   -0.30298E-03   -0.39869E-02  1088   0.669E-01    0.726E-02
DAV:   2    -0.560732510420E+02   -0.21992E-03   -0.33336E-03  1280   0.280E-01    0.483E-02
DAV:   3    -0.560732556205E+02   -0.45785E-05   -0.18678E-04   896   0.128E-01
   5 F= -.56073256E+02 E0= -.56073256E+02  d E =-.954911E-01  mag=     5.3038
       N       E                     dE             d eps       ncg     rms          rms(c)
DAV:   1    -0.561100793646E+02   -0.36828E-01   -0.37075E+00  1024   0.723E+00    0.936E-01
DAV:   2    -0.561187609921E+02   -0.86816E-02   -0.28581E-01  1296   0.224E+00    0.453E-01
DAV:   3    -0.561137134358E+02    0.50476E-02   -0.10923E-02  1072   0.569E-01    0.214E-01
DAV:   4    -0.561126965738E+02    0.10169E-02   -0.77094E-03  1360   0.512E-01    0.155E-01
DAV:   5    -0.561124671870E+02    0.22939E-03   -0.29165E-03  1456   0.578E-01    0.903E-02
DAV:   6    -0.561123897023E+02    0.77485E-04   -0.52352E-04  1008   0.262E-01
   6 F= -.56112390E+02 E0= -.56112390E+02  d E =-.391341E-01  mag=     5.3358
       N       E                     dE             d eps       ncg     rms          rms(c)
DAV:   1    -0.561130742530E+02   -0.60707E-03   -0.25944E-02   992   0.660E-01    0.971E-02
DAV:   2    -0.561131204762E+02   -0.46223E-04   -0.22756E-03  1296   0.265E-01    0.594E-02
DAV:   3    -0.561131398698E+02   -0.19394E-04   -0.45724E-04   976   0.223E-01
   7 F= -.56113140E+02 E0= -.56113140E+02  d E =-.398842E-01  mag=     5.3444
       N       E                     dE             d eps       ncg     rms          rms(c)
DAV:   1    -0.561156999682E+02   -0.25795E-02   -0.18975E-01  1040   0.184E+00    0.268E-01
DAV:   2    -0.561154326682E+02    0.26730E-03   -0.15778E-02  1088   0.588E-01    0.139E-01
DAV:   3    -0.561151336848E+02    0.29898E-03   -0.27498E-03  1328   0.492E-01    0.141E-01
DAV:   4    -0.561148669762E+02    0.26671E-03   -0.19058E-03  1328   0.466E-01    0.707E-02
DAV:   5    -0.561148636169E+02    0.33592E-05   -0.67961E-04  1088   0.282E-01
   8 F= -.56114864E+02 E0= -.56114864E+02  d E =-.172375E-02  mag=     5.3469
       N       E                     dE             d eps       ncg     rms          rms(c)
DAV:   1    -0.561150198145E+02   -0.15284E-03   -0.58194E-03  1024   0.304E-01    0.461E-02
DAV:   2    -0.561151215191E+02   -0.10170E-03   -0.49654E-04  1008   0.114E-01    0.242E-02
DAV:   3    -0.561151645780E+02   -0.43059E-04   -0.65608E-05   720   0.809E-02
   9 F= -.56115165E+02 E0= -.56115165E+02  d E =-.202471E-02  mag=     5.3485
